Title
81371
    1CHL1    C3    1   4.470   5.101  10.222  0.2666  0.2956  0.6434
    1CHL1    H3    2   4.535   5.012  10.208 -0.3308 -0.3268  1.6507
    1CHL1    O3    3   4.437   5.107  10.360  0.9319  0.0255  0.3643
    1CHL1   H3'    4   4.342   5.094  10.363  0.6991  1.3798 -0.4786
    1CHL1    C4    5   4.542   5.229  10.168 -0.6378  0.4056 -0.2779
    1CHL1   H4A    6   4.494   5.319  10.211 -1.2165 -0.4607  0.9473
    1CHL1   H4B    7   4.636   5.235  10.228 -0.9831 -0.5092  0.3734
    1CHL1    C5    8   4.558   5.216  10.014 -0.5470 -0.1745 -0.6692
    1CHL1    C6    9   4.672   5.232   9.951  0.1595 -0.6045  0.6112
    1CHL1    H6   10   4.763   5.245  10.010  0.7156 -0.9308 -0.1480
    1CHL1    C7   11   4.689   5.226   9.804 -0.1667 -0.3044  1.1062
    1CHL1   H7A   12   4.754   5.305   9.761 -2.4587  0.2318 -1.7227
    1CHL1   H7B   13   4.741   5.133   9.774 -1.1259 -1.0138  1.5864
    1CHL1    C8   14   4.548   5.240   9.728 -0.7926  0.3693 -0.0478
    1CHL1    H8   15   4.516   5.346   9.729 -0.9682  0.3168  0.8352
    1CHL1   C14   16   4.569   5.184   9.586 -0.5832 -0.4920  0.1240
    1CHL1   H14   17   4.610   5.083   9.603 -1.2841 -0.8615 -0.2993
    1CHL1   C15   18   4.692   5.235   9.506  0.6440 -0.1443  0.3673
    1CHL1  H15A   19   4.693   5.346   9.517  3.7679 -0.2155  2.0991
    1CHL1  H15B   20   4.790   5.200   9.546  1.1288  0.6788 -0.0787
    1CHL1   C16   21   4.663   5.188   9.362 -0.2467 -0.1489 -0.2129
    1CHL1  H16A   22   4.660   5.285   9.309  2.1616 -0.2365 -0.6523
    1CHL1  H16B   23   4.738   5.122   9.312  2.2981  0.7470  2.1584
    1CHL1   C17   24   4.525   5.113   9.363 -0.4379  0.0104 -0.3764
    1CHL1   H17   25   4.554   5.010   9.393  0.1977  0.1587 -0.4626
    1CHL1   C13   26   4.455   5.183   9.491  0.0144 -0.0837 -0.0828
    1CHL1   C18   27   4.415   5.326   9.452  0.2449  0.3589 -0.2420
    1CHL1  H18A   28   4.423   5.391   9.541  0.6693  2.5490 -1.7899
    1CHL1  H18B   29   4.479   5.373   9.374 -0.6087  1.5522 -0.2551
    1CHL1  H18C   30   4.310   5.331   9.416 -0.2994 -1.3407  0.9862
    1CHL1   C12   31   4.346   5.099   9.565 -0.2884 -0.2287 -0.5170
    1CHL1  H12A   32   4.251   5.095   9.508  0.2265  2.3653 -1.7431
    1CHL1  H12B   33   4.389   4.998   9.581  0.9565  0.4477  0.6720
    1CHL1   C11   34   4.321   5.150   9.706  0.2753  0.5576  0.1085
    1CHL1  H11A   35   4.278   5.252   9.701  0.4010  0.5522 -1.4458
    1CHL1  H11B   36   4.243   5.088   9.756  1.2537  0.9644  2.2278
    1CHL1    C9   37   4.450   5.149   9.794  0.0806  0.1115  0.2442
    1CHL1    H9   38   4.486   5.046   9.772 -1.2008 -0.1269 -0.8272
    1CHL1   C10   39   4.425   5.185   9.944 -0.1257 -0.7248  0.5279
    1CHL1   C19   40   4.332   5.311   9.948  0.1553  0.3870 -0.0661
    1CHL1  H19A   41   4.323   5.349  10.052 -0.6082 -4.9775  2.1230
    1CHL1  H19B   42   4.361   5.395   9.881 -0.7237  1.8251  1.2556
    1CHL1  H19C   43   4.227   5.284   9.924  0.1964  0.1688 -0.0032
    1CHL1    C1   44   4.352   5.067  10.011  0.3391 -0.5753  0.0817
    1CHL1   H1A   45   4.256   5.065   9.956  0.2155 -3.2913  0.3027
    1CHL1   H1B   46   4.412   4.975   9.997 -0.3537 -0.6707 -2.9460
    1CHL1    C2   47   4.329   5.090  10.158 -0.2544  0.0323  0.0019
    1CHL1   H2A   48   4.276   5.000  10.197  0.6372 -0.2238  0.6559
    1CHL1   H2B   49   4.267   5.180  10.175  0.2097  0.6600 -1.4762
    1CHL1   C20   50   4.453   5.115   9.228 -0.5061 -0.3977  0.6358
    1CHL1   H20   51   4.422   5.217   9.198 -0.0053 -0.4142  0.0563
    1CHL1   C21   52   4.319   5.037   9.237 -1.2248 -0.2951  0.4482
    1CHL1  H21A   53   4.334   4.931   9.267  0.9950 -0.2669 -0.3838
    1CHL1  H21B   54   4.285   5.024   9.132  1.5271  1.6595 -0.8043
    1CHL1  H21C   55   4.232   5.084   9.287 -1.2647 -0.7236  0.7902
    1CHL1   C22   56   4.557   5.057   9.120  0.4450 -0.3496 -0.2645
    1CHL1  H22A   57   4.649   5.118   9.115 -0.2788  0.8583  0.7203
    1CHL1  H22B   58   4.599   4.962   9.160 -1.0928 -0.7038  0.6046
    1CHL1   C23   59   4.496   5.046   8.983  1.0013 -0.1793 -0.4411
    1CHL1  H23A   60   4.411   4.975   8.977 -0.6456  1.8074 -2.1431
    1CHL1  H23B   61   4.441   5.139   8.961 -1.2760 -1.3991 -0.2322
    1CHL1   C24   62   4.597   5.006   8.877  0.0574  0.4542 -0.4479
    1CHL1  H24A   63   4.697   5.043   8.909  0.0915  1.4702 -1.6655
    1CHL1  H24B   64   4.590   4.897   8.859  0.5260  0.4457 -0.5776
    1CHL1   C25   65   4.577   5.076   8.734  0.1679  0.2655  0.5017
    1CHL1   H25   66   4.537   5.178   8.755  0.8981  0.5485  0.5475
    1CHL1   C26   67   4.715   5.089   8.664  0.0648  0.4245  0.6609
    1CHL1  H26A   68   4.769   5.160   8.731  0.7529 -0.3000  0.8920
    1CHL1  H26B   69   4.778   4.998   8.655  1.1176  1.1780  0.0988
    1CHL1  H26C   70   4.694   5.135   8.565 -0.7153 -1.4394 -0.0817
    1CHL1   C27   71   4.464   4.993   8.658 -0.2231 -0.5633 -0.7938
    1CHL1  H27A   72   4.376   4.983   8.725  0.3113  0.1579  0.0464
    1CHL1  H27B   73   4.441   5.050   8.566  0.4684  0.5741 -0.2879
    1CHL1  H27C   74   4.498   4.890   8.636  0.7442 -0.0252 -1.8976
    2CHL1    C3   75   3.290   0.379  10.211  0.2718 -0.0152 -0.0357
    2CHL1    H3   76   3.248   0.277  10.196 -3.0519  1.3498 -1.0489
    2CHL1    O3   77   3.307   0.400  10.350  0.4170  0.2642  0.1157
    2CHL1   H3'   78   3.393   0.442  10.357 -0.1041  1.4153 -0.2100
    2CHL1    C4   79   3.419   0.395  10.128 -0.1245 -0.3063 -0.8473
    2CHL1   H4A   80   3.477   0.483  10.164  1.1548 -0.9528 -1.2441
    2CHL1   H4B   81   3.488   0.314  10.160 -0.7376 -1.6423 -2.7008
    2CHL1    C5   82   3.389   0.393   9.981  0.2660 -0.5529 -0.5058
    2CHL1    C6   83   3.456   0.309   9.903  0.3634 -0.5303 -0.0883
    2CHL1    H6   84   3.531   0.245   9.951  0.5428 -1.0949 -1.0772
    2CHL1    C7   85   3.453   0.308   9.755  1.4096  0.0342  0.3824
    2CHL1   H7A   86   3.558   0.305   9.718  0.6473  1.0818 -2.1179
    2CHL1   H7B   87   3.400   0.218   9.715 -0.1697  0.5764  1.1600
    2CHL1    C8   88   3.385   0.441   9.704  0.1416  0.0402  0.4698
    2CHL1    H8   89   3.462   0.520   9.717 -2.2465  2.8795 -1.0663
    2CHL1   C14   90   3.352   0.438   9.554  0.0192 -0.4953  0.1805
    2CHL1   H14   91   3.287   0.349   9.539  3.6791 -3.9857  2.8386
    2CHL1   C15   92   3.465   0.401   9.464 -0.3918 -0.0519  0.5273
    2CHL1  H15A   93   3.559   0.451   9.498  0.0761 -0.8834  0.4778
    2CHL1  H15B   94   3.494   0.294   9.467 -1.0537 -0.2369  3.5338
    2CHL1   C16   95   3.417   0.431   9.323  0.7050 -0.0709 -0.2350
    2CHL1  H16A   96   3.491   0.490   9.266  0.8821  0.3042  0.3835
    2CHL1  H16B   97   3.388   0.343   9.262 -0.1049  0.8518 -1.2165
    2CHL1   C17   98   3.286   0.525   9.342 -0.9074  0.3324 -0.7343
    2CHL1   H17   99   3.193   0.463   9.343 -1.8979  1.7554  0.1275
    2CHL1   C13  100   3.289   0.569   9.492 -0.9467 -0.1497  0.0032
    2CHL1   C18  101   3.392   0.684   9.505  0.0442  0.3343 -0.2723
    2CHL1  H18A  102   3.487   0.658   9.453  0.1824  2.6500 -1.3119
    2CHL1  H18B  103   3.341   0.772   9.461 -1.2841 -0.3456 -0.1661
    2CHL1  H18C  104   3.419   0.698   9.611 -0.7049 -2.3150  0.3415
    2CHL1   C12  105   3.163   0.595   9.577 -0.3590  0.2999 -0.0289
    2CHL1  H12A  106   3.111   0.684   9.534 -0.2545 -0.8651 -2.7133
    2CHL1  H12B  107   3.089   0.514   9.559  0.0847 -0.4164  1.2636
    2CHL1   C11  108   3.190   0.611   9.720 -0.7038  0.0249 -0.1424
    2CHL1  H11A  109   3.261   0.696   9.728  1.4734 -1.6111 -1.0748
    2CHL1  H11B  110   3.093   0.626   9.772 -2.1474 -1.3717 -2.2138
    2CHL1    C9  111   3.258   0.485   9.785  0.2199 -0.0427 -0.0460
    2CHL1    H9  112   3.191   0.396   9.782  0.4712 -0.2180 -2.8296
    2CHL1   C10  113   3.291   0.501   9.933  1.3601 -0.1478 -0.5578
    2CHL1   C19  114   3.343   0.644   9.965 -0.3123 -0.0320 -0.0397
    2CHL1  H19A  115   3.378   0.639  10.070  3.3617  0.3765 -1.0941
    2CHL1  H19B  116   3.425   0.674   9.896  1.4780 -0.4298  1.8291
    2CHL1  H19C  117   3.261   0.718   9.958  1.7883  2.4879  0.4596
    2CHL1    C1  118   3.160   0.481  10.025  0.7545  0.1038 -0.1492
    2CHL1   H1A  119   3.095   0.568   9.999 -0.4130 -0.9615 -0.9524
    2CHL1   H1B  120   3.109   0.386   9.998  0.9331 -0.3330  1.0007
    2CHL1    C2  121   3.187   0.486  10.175 -0.2563  0.4754 -0.1983
    2CHL1   H2A  122   3.095   0.474  10.237  0.1949 -0.7833  0.2596
    2CHL1   H2B  123   3.220   0.589  10.198 -0.7078  0.5128  0.3110
    2CHL1   C20  124   3.261   0.633   9.238 -0.0562 -0.0782  0.1188
    2CHL1   H20  125   3.349   0.702   9.234  0.4070 -0.7001 -1.1399
    2CHL1   C21  126   3.128   0.711   9.263  0.6768  0.5591 -0.1560
    2CHL1  H21A  127   3.121   0.793   9.187 -0.3871  1.1038  0.5013
    2CHL1  H21B  128   3.141   0.759   9.362 -1.2205 -1.0935  0.9571
    2CHL1  H21C  129   3.036   0.651   9.246 -0.7529  2.4696  0.3987
    2CHL1   C22  130   3.255   0.583   9.093 -0.5673 -0.4330  0.0357
    2CHL1  H22A  131   3.299   0.481   9.087  1.1369  0.3101 -0.7432
    2CHL1  H22B  132   3.149   0.592   9.059 -0.6604  0.0668  0.4462
    2CHL1   C23  133   3.343   0.668   8.994  0.5965  0.5864 -0.3933
    2CHL1  H23A  134   3.445   0.665   9.036  0.3783  0.9480  0.1746
    2CHL1  H23B  135   3.340   0.609   8.900  0.4103  1.4761 -0.9655
    2CHL1   C24  136   3.291   0.811   8.962  0.7701  0.0046 -0.3456
    2CHL1  H24A  137   3.183   0.800   8.934  1.0468 -1.3042 -0.9632
    2CHL1  H24B  138   3.285   0.890   9.040 -1.7694  0.8415 -1.2700
    2CHL1   C25  139   3.367   0.865   8.840 -0.2210 -0.2618  0.2575
    2CHL1   H25  140   3.475   0.843   8.859  0.0351  0.5762 -0.1507
    2CHL1   C26  141   3.334   0.796   8.710  0.6840  0.2763  0.6262
    2CHL1  H26A  142   3.359   0.688   8.709  2.2366  0.6051  0.8952
    2CHL1  H26B  143   3.228   0.817   8.684  0.3712 -0.8009  0.9999
    2CHL1  H26C  144   3.392   0.845   8.629  1.4197 -1.3926  0.1073
    2CHL1   C27  145   3.361   1.016   8.819  0.5135 -0.8213  0.4890
    2CHL1  H27A  146   3.452   1.057   8.771  0.4103 -1.6935 -0.4668
    2CHL1  H27B  147   3.272   1.033   8.755  0.1555 -1.5437  0.7793
    2CHL1  H27C  148   3.354   1.069   8.917  1.4982 -1.0170  0.6693
    3CHL1    C3  149   0.057   1.564  10.195  0.3444  0.6655  0.2555
    3CHL1    H3  150   0.007   1.650  10.147 -0.1483 -1.2738 -3.0104
    3CHL1    O3  151  -0.009   1.535  10.319 -0.1863 -0.0993 -0.2633
    3CHL1   H3'  152   0.053   1.476  10.362  3.1222  1.7982 -2.0256
    3CHL1    C4  153   0.047   1.441  10.099 -0.5379 -0.5822  0.0857
    3CHL1   H4A  154   0.102   1.358  10.147 -1.0331  0.0926  1.8962
    3CHL1   H4B  155  -0.062   1.420  10.092 -1.3579  3.4551 -4.1025
    3CHL1    C5  156   0.112   1.475   9.969 -0.3821  0.1476  0.2024
    3CHL1    C6  157   0.053   1.467   9.850  0.7379 -0.8744  0.1676
    3CHL1    H6  158  -0.054   1.445   9.845  0.0711  2.2148 -2.0439
    3CHL1    C7  159   0.115   1.488   9.716  0.2108 -0.7499  0.1649
    3CHL1   H7A  160   0.090   1.402   9.650 -0.9101 -1.8633  1.9427
    3CHL1   H7B  161   0.082   1.588   9.681  1.0563 -0.0813  1.1988
    3CHL1    C8  162   0.270   1.500   9.728  0.1386 -0.6305  0.7941
    3CHL1    H8  163   0.309   1.396   9.736 -0.3539 -1.0623 -1.6349
    3CHL1   C14  164   0.330   1.573   9.609 -0.0145 -1.0262 -0.1174
    3CHL1   H14  165   0.304   1.681   9.602 -0.8530 -1.2813 -1.2146
    3CHL1   C15  166   0.269   1.525   9.470 -0.6366 -0.8666  0.1984
    3CHL1  H15A  167   0.243   1.418   9.482 -0.3882 -1.3501 -2.7591
    3CHL1  H15B  168   0.184   1.571   9.416 -1.8527  1.2901  3.5885
    3CHL1   C16  169   0.393   1.549   9.377 -0.1615  0.1757 -0.4218
    3CHL1  H16A  170   0.439   1.451   9.351  2.3467  0.6392  1.8408
    3CHL1  H16B  171   0.367   1.605   9.286 -3.7247 -0.2337  0.1937
    3CHL1   C17  172   0.504   1.614   9.466 -0.0293  0.0967 -0.6813
    3CHL1   H17  173   0.479   1.721   9.477 -1.6397 -0.2127 -1.1600
    3CHL1   C13  174   0.482   1.568   9.610 -0.4398  0.4900 -0.3054
    3CHL1   C18  175   0.532   1.423   9.624  1.0104 -0.3518  0.1458
    3CHL1  H18A  176   0.643   1.425   9.619  1.0392 -1.3186  0.1481
    3CHL1  H18B  177   0.506   1.376   9.721 -0.2341  0.8347  0.4031
    3CHL1  H18C  178   0.489   1.369   9.537 -1.2061 -0.5461  1.3062
    3CHL1   C12  179   0.530   1.658   9.726  0.0840  0.4530 -0.2522
    3CHL1  H12A  180   0.640   1.647   9.732 -0.1451 -1.4844  1.0975
    3CHL1  H12B  181   0.495   1.759   9.697 -0.8619  0.4123  0.6914
    3CHL1   C11  182   0.466   1.609   9.859 -0.6100 -0.1229  0.7043
    3CHL1  H11A  183   0.527   1.526   9.902  0.3284  0.3107  0.2432
    3CHL1  H11B  184   0.502   1.697   9.917  1.1846  0.6526 -1.4512
    3CHL1    C9  185   0.312   1.579   9.856  0.2297  0.1961  0.0513
    3CHL1    H9  186   0.261   1.675   9.833  0.9216 -0.0014 -2.5458
    3CHL1   C10  187   0.257   1.524   9.989 -0.9814 -0.0345 -0.0294
    3CHL1   C19  188   0.333   1.393  10.017  0.1012  0.1786 -0.0034
    3CHL1  H19A  189   0.442   1.412  10.032 -0.3242  2.3474  0.6479
    3CHL1  H19B  190   0.284   1.328  10.092 -1.4998 -0.3841 -1.4682
    3CHL1  H19C  191   0.309   1.325   9.932 -0.2891  1.2671 -0.7882
    3CHL1    C1  192   0.289   1.628  10.103  0.1413  0.1972 -0.4248
    3CHL1   H1A  193   0.395   1.633  10.137 -0.3339  1.7133  0.9140
    3CHL1   H1B  194   0.259   1.724  10.056  1.6274  0.7275 -0.3447
    3CHL1    C2  195   0.205   1.598  10.231 -0.3719 -0.1435  0.0451
    3CHL1   H2A  196   0.221   1.688  10.295 -0.8375  2.5045 -3.2525
    3CHL1   H2B  197   0.245   1.509  10.284 -1.3308 -1.4979 -1.4478
    3CHL1   C20  198   0.647   1.593   9.406 -0.0118  0.0093  0.3879
    3CHL1   H20  199   0.688   1.493   9.431 -0.8054 -0.8170 -1.4859
    3CHL1   C21  200   0.744   1.690   9.469  0.0587 -0.2462 -0.4565
    3CHL1  H21A  201   0.706   1.794   9.461  0.7445  0.0275 -0.1856
    3CHL1  H21B  202   0.846   1.673   9.429  1.7240  2.1189  2.3594
    3CHL1  H21C  203   0.762   1.679   9.578 -0.1875 -0.0016 -0.3889
    3CHL1   C22  204   0.661   1.602   9.253 -0.0781 -0.6694  0.4954
    3CHL1  H22A  205   0.769   1.584   9.234 -0.3988 -1.3480 -0.7952
    3CHL1  H22B  206   0.603   1.525   9.197 -0.6788 -1.1270  1.7235
    3CHL1   C23  207   0.634   1.741   9.192 -0.0107 -0.0931 -0.0088
    3CHL1  H23A  208   0.533   1.776   9.223 -0.2619 -0.2344 -0.6350
    3CHL1  H23B  209   0.723   1.803   9.211  2.8856 -2.8851 -3.1178
    3CHL1   C24  210   0.615   1.733   9.034  0.0897  1.0920  0.6898
    3CHL1  H24A  211   0.712   1.684   9.009 -0.4557  0.0675  0.5206
    3CHL1  H24B  212   0.542   1.658   8.998  1.5068  1.2304 -2.8788
    3CHL1   C25  213   0.594   1.869   8.964  0.2170  0.6651 -0.0718
    3CHL1   H25  214   0.573   1.856   8.856 -3.2909  1.0371  0.4486
    3CHL1   C26  215   0.455   1.925   9.006  0.7111  0.7664  0.6869
    3CHL1  H26A  216   0.375   1.849   9.010  2.0950 -0.7500  0.5188
    3CHL1  H26B  217   0.460   1.961   9.111 -2.3977  0.4420  1.0420
    3CHL1  H26C  218   0.411   2.004   8.941  0.7962 -0.2863 -0.6964
    3CHL1   C27  219   0.706   1.975   8.980 -0.5132 -0.0476 -0.1154
    3CHL1  H27A  220   0.717   2.007   9.086  1.4801  0.0700 -0.3217
    3CHL1  H27B  221   0.803   1.926   8.956 -0.8723  0.3873 -2.7599
    3CHL1  H27C  222   0.705   2.060   8.908 -2.0135  1.4464  1.5679
    4CHL1    C3  223   6.001   3.190  10.453 -0.3087 -0.0118  0.2342
    4CHL1    H3  224   5.941   3.105  10.491  1.8612 -1.1639  1.2766
    4CHL1    O3  225   6.014   3.297  10.548 -0.3134  0.0026  0.0628
    4CHL1   H3'  226   6.077   3.275  10.617  1.3259  0.5288 -1.2034
    4CHL1    C4  227   6.140   3.126  10.424 -0.1248 -0.5176 -0.1254
    4CHL1   H4A  228   6.206   3.212  10.402 -0.2144 -0.6300 -0.8725
    4CHL1   H4B  229   6.177   3.082  10.519 -0.9176  0.1727  0.5202
    4CHL1    C5  230   6.143   3.027  10.310 -0.9264  0.2801 -0.2802
    4CHL1    C6  231   6.170   2.896  10.330  0.3771 -0.3584 -0.2696
    4CHL1    H6  232   6.206   2.858  10.426 -0.5743 -0.1587  0.1733
    4CHL1    C7  233   6.174   2.796  10.211 -0.1989 -0.5377  0.6841
    4CHL1   H7A  234   6.269   2.738  10.207 -0.6491 -1.2272 -1.3921
    4CHL1   H7B  235   6.087   2.727  10.214  0.5818 -1.5185  1.5819
    4CHL1    C8  236   6.165   2.866  10.068  0.2550  1.0069 -0.7856
    4CHL1    H8  237   6.264   2.912  10.045  0.8010 -0.5986 -1.7973
    4CHL1   C14  238   6.143   2.762   9.959 -0.1781  0.8392  0.2446
    4CHL1   H14  239   6.055   2.697   9.975 -0.0622 -0.1540 -2.4930
    4CHL1   C15  240   6.249   2.649   9.947 -0.3400  0.8233  0.4509
    4CHL1  H15A  241   6.345   2.705   9.940 -0.3408  1.0242  1.7705
    4CHL1  H15B  242   6.263   2.572  10.026 -0.6947 -0.7896 -0.9920
    4CHL1   C16  243   6.234   2.603   9.801 -0.1399 -0.9882  0.1628
    4CHL1  H16A  244   6.334   2.579   9.757  0.8333  0.6319  1.4036
    4CHL1  H16B  245   6.175   2.509   9.794 -1.1803 -0.2670 -1.3273
    4CHL1   C17  246   6.146   2.704   9.723 -0.5203 -0.0541  0.4207
    4CHL1   H17  247   6.046   2.657   9.730 -0.1091 -0.7976  1.5907
    4CHL1   C13  248   6.145   2.828   9.820 -0.2117  0.1514  0.8953
    4CHL1   C18  249   6.279   2.902   9.795  0.4640  0.0818  0.0419
    4CHL1  H18A  250   6.285   2.958   9.699 -2.5878 -0.5285 -0.6144
    4CHL1  H18B  251   6.294   2.974   9.878  1.1634 -1.8646  1.6904
    4CHL1  H18C  252   6.370   2.840   9.807  1.7397  1.5203 -1.5559
    4CHL1   C12  253   6.021   2.920   9.810  0.2958  0.1297  0.1700
    4CHL1  H12A  254   6.004   2.965   9.710 -0.7915  1.0085  0.7244
    4CHL1  H12B  255   5.936   2.852   9.834 -0.2779  1.0325  0.7772
    4CHL1   C11  256   6.023   3.024   9.919  0.3194 -0.4963 -0.3032
    4CHL1  H11A  257   6.103   3.093   9.886 -0.6622  1.6177  1.4788
    4CHL1  H11B  258   5.934   3.088   9.929  1.3339  0.9039  0.0729
    4CHL1    C9  259   6.057   2.974  10.062 -0.0055 -0.2774 -1.0401
    4CHL1    H9  260   5.965   2.924  10.099 -0.1936  0.9349  0.2294
    4CHL1   C10  261   6.081   3.081  10.181 -0.0944  0.5643  0.2304
    4CHL1   C19  262   6.189   3.181  10.126  0.6782 -0.2288  0.0499
    4CHL1  H19A  263   6.158   3.228  10.030 -0.0954 -0.7121  0.0485
    4CHL1  H19B  264   6.202   3.258  10.205 -0.7526  1.2175 -1.0460
    4CHL1  H19C  265   6.288   3.133  10.110  1.7395  2.4530 -2.3481
    4CHL1    C1  266   5.947   3.147  10.215  0.2910  0.0898  0.5831
    4CHL1   H1A  267   5.901   3.185  10.121  1.7250  4.0612  1.3176
    4CHL1   H1B  268   5.880   3.063  10.243  0.0114  0.0329 -0.2312
    4CHL1    C2  269   5.952   3.252  10.322  0.6687  0.2638  0.7109
    4CHL1   H2A  270   5.846   3.279  10.344 -0.1278 -2.0838  0.0049
    4CHL1   H2B  271   6.015   3.339  10.292 -0.4439  0.3811 -1.4735
    4CHL1   C20  272   6.175   2.720   9.570  0.4850  0.3243  0.4561
    4CHL1   H20  273   6.279   2.756   9.561  0.7186 -0.6247 -0.9329
    4CHL1   C21  274   6.079   2.827   9.508 -0.1552  0.2383 -0.2016
    4CHL1  H21A  275   6.046   2.822   9.402 -0.5197 -1.1454 -0.0420
    4CHL1  H21B  276   6.125   2.927   9.518 -0.4609  0.4393 -0.7478
    4CHL1  H21C  277   5.985   2.827   9.568  0.5920  0.3597  0.9992
    4CHL1   C22  278   6.177   2.586   9.490  0.0511 -0.4646 -0.7693
    4CHL1  H22A  279   6.282   2.551   9.498  0.0084 -0.6195 -0.8735
    4CHL1  H22B  280   6.103   2.516   9.535  0.4528 -0.3887  0.0183
    4CHL1   C23  281   6.155   2.596   9.337 -0.4834 -1.1621  0.0329
    4CHL1  H23A  282   6.052   2.628   9.313  0.6631  1.6647 -1.5478
    4CHL1  H23B  283   6.219   2.681   9.304  0.8288 -2.1908 -0.1571
    4CHL1   C24  284   6.190   2.468   9.266 -0.4206  0.1460  0.1765
    4CHL1  H24A  285   6.299   2.449   9.278 -0.2615  0.5234 -0.5988
    4CHL1  H24B  286   6.138   2.377   9.304  1.6221 -1.4597 -0.6784
    4CHL1   C25  287   6.166   2.485   9.106 -0.0429 -0.1873 -0.0257
    4CHL1   H25  288   6.057   2.474   9.087 -1.2477  1.6834  4.5205
    4CHL1   C26  289   6.233   2.620   9.050 -0.0266  0.2511 -0.4861
    4CHL1  H26A  290   6.207   2.635   8.943  0.2820  5.3693 -0.0811
    4CHL1  H26B  291   6.207   2.713   9.104 -0.1424  0.5164 -0.9868
    4CHL1  H26C  292   6.342   2.601   9.049 -0.3184 -1.7786 -1.9901
    4CHL1   C27  293   6.234   2.381   9.027  0.2655  0.3443 -0.7745
    4CHL1  H27A  294   6.332   2.349   9.068 -0.2798 -0.3077  0.0526
    4CHL1  H27B  295   6.169   2.291   9.031  0.6149  0.1455  1.3392
    4CHL1  H27C  296   6.249   2.411   8.921 -1.2640  3.2738 -0.2762
    5CHL1    C3  297   0.699   1.943  10.117 -1.3766 -0.5410  0.2412
    5CHL1    H3  298   0.748   1.864  10.056  0.5425  0.5141  0.3334
    5CHL1    O3  299   0.714   1.915  10.250 -0.3740  0.5680 -0.5808
    5CHL1   H3'  300   0.719   1.998  10.298  1.8164 -0.7712  1.7955
    5CHL1    C4  301   0.742   2.091  10.093  1.1008  0.4191 -0.2272
    5CHL1   H4A  302   0.693   2.156  10.169  2.7002  2.3197 -0.7370
    5CHL1   H4B  303   0.852   2.094  10.110  1.5343  3.2347 -2.7113
    5CHL1    C5  304   0.714   2.141   9.957  0.5146 -0.7580  0.1951
    5CHL1    C6  305   0.807   2.195   9.880 -0.1255 -0.3286  0.0071
    5CHL1    H6  306   0.910   2.213   9.916 -0.3877  0.5578  0.3340
    5CHL1    C7  307   0.792   2.246   9.742 -0.5427  0.2535 -0.3520
    5CHL1   H7A  308   0.844   2.344   9.736 -1.3766  0.8126  1.0585
    5CHL1   H7B  309   0.832   2.173   9.668  0.1738  0.2743  0.0128
    5CHL1    C8  310   0.645   2.276   9.707  0.2480 -0.1681  0.7397
    5CHL1    H8  311   0.619   2.366   9.767  1.2887  0.9755 -0.4596
    5CHL1   C14  312   0.631   2.296   9.559  0.1632 -0.7377  0.4622
    5CHL1   H14  313   0.674   2.210   9.504 -0.2368  0.2049 -1.4156
    5CHL1   C15  314   0.715   2.418   9.506 -0.3720  0.2336 -0.6779
    5CHL1  H15A  315   0.716   2.498   9.582 -0.9430 -0.8226  0.4772
    5CHL1  H15B  316   0.819   2.387   9.481 -0.7811  0.0352 -2.2220
    5CHL1   C16  317   0.654   2.446   9.371 -0.4038 -0.7096  0.0252
    5CHL1  H16A  318   0.616   2.550   9.373  0.3079 -0.4499  0.6361
    5CHL1  H16B  319   0.724   2.446   9.285 -0.8564  0.7678 -0.3772
    5CHL1   C17  320   0.534   2.343   9.354 -0.4154 -0.3762  0.8747
    5CHL1   H17  321   0.570   2.256   9.294 -1.6216  0.5729 -1.3162
    5CHL1   C13  322   0.493   2.313   9.497  0.4911  0.2652  0.1849
    5CHL1   C18  323   0.431   2.435   9.565 -0.0987  0.4997 -0.2564
    5CHL1  H18A  324   0.474   2.532   9.533  0.4732  1.1606  2.3170
    5CHL1  H18B  325   0.322   2.430   9.542 -0.2515  0.7408  0.3959
    5CHL1  H18C  326   0.429   2.430   9.676 -1.0573  0.8553 -0.2446
    5CHL1   C12  327   0.422   2.177   9.526  0.1334  0.5585 -0.2362
    5CHL1  H12A  328   0.320   2.178   9.484 -0.5495  0.0815  1.3177
    5CHL1  H12B  329   0.479   2.087   9.494 -3.3203 -1.9225  0.0781
    5CHL1   C11  330   0.421   2.153   9.682 -0.4333 -0.2391 -0.2473
    5CHL1  H11A  331   0.370   2.239   9.731 -0.8486 -1.1799  1.0298
    5CHL1  H11B  332   0.369   2.057   9.702  1.4992 -1.0798  1.1482
    5CHL1    C9  333   0.563   2.153   9.751 -0.2544 -0.3566 -0.1169
    5CHL1    H9  334   0.619   2.064   9.715 -0.9588 -0.7098 -0.3666
    5CHL1   C10  335   0.571   2.125   9.905  0.3706  0.2121 -0.5208
    5CHL1   C19  336   0.478   2.234   9.974 -0.2410  0.2428 -0.8717
    5CHL1  H19A  337   0.490   2.336   9.932 -1.4853 -0.0495 -2.0289
    5CHL1  H19B  338   0.370   2.214   9.955 -0.9194  1.7409  1.0006
    5CHL1  H19C  339   0.488   2.224  10.084  1.0789 -1.8184 -1.1342
    5CHL1    C1  340   0.512   1.979   9.947 -0.1854 -0.6781  0.0026
    5CHL1   H1A  341   0.401   1.976   9.937 -0.2237  0.9257 -0.3278
    5CHL1   H1B  342   0.550   1.894   9.886  1.2371 -1.8560  2.4048
    5CHL1    C2  343   0.550   1.930  10.087  0.0289 -0.3574 -0.1962
    5CHL1   H2A  344   0.518   1.824  10.098 -2.2829  0.1142 -1.5552
    5CHL1   H2B  345   0.490   1.997  10.153  2.0009  2.6588 -1.3307
    5CHL1   C20  346   0.424   2.388   9.256 -0.4155 -0.3535 -0.6877
    5CHL1   H20  347   0.366   2.464   9.312  0.2876  1.4598 -2.3032
    5CHL1   C21  348   0.345   2.268   9.213 -0.1573 -0.3170 -0.1895
    5CHL1  H21A  349   0.294   2.211   9.293  0.1055 -0.3233 -0.0236
    5CHL1  H21B  350   0.408   2.190   9.164 -0.9581 -2.6666  2.2506
    5CHL1  H21C  351   0.264   2.303   9.146  1.0658  1.0228 -1.0468
    5CHL1   C22  352   0.482   2.478   9.133 -0.6383 -0.5812  0.2809
    5CHL1  H22A  353   0.575   2.537   9.146  0.3051 -1.8832 -0.3797
    5CHL1  H22B  354   0.514   2.410   9.052  0.4582  1.0645 -0.7173
    5CHL1   C23  355   0.369   2.574   9.087 -0.2868  0.7169  1.0235
    5CHL1  H23A  356   0.277   2.512   9.080  1.2791 -1.5549 -1.4765
    5CHL1  H23B  357   0.349   2.653   9.162 -1.9847  1.7475 -0.4316
    5CHL1   C24  358   0.390   2.630   8.946  0.3490 -1.0147  0.6615
    5CHL1  H24A  359   0.490   2.676   8.932 -0.2834  0.2527  0.1350
    5CHL1  H24B  360   0.399   2.545   8.874  0.1019 -0.3445 -0.1820
    5CHL1   C25  361   0.288   2.742   8.899  0.4972 -0.3832 -0.6528
    5CHL1   H25  362   0.190   2.689   8.900 -0.2169  0.9112 -0.2819
    5CHL1   C26  363   0.275   2.870   8.979 -0.9990 -0.5437 -0.2716
    5CHL1  H26A  364   0.191   2.927   8.934 -2.7913 -2.3535  0.5993
    5CHL1  H26B  365   0.240   2.842   9.081  2.0855 -2.7043  0.3599
    5CHL1  H26C  366   0.372   2.924   8.972 -1.0486 -0.5265 -0.9126
    5CHL1   C27  367   0.308   2.789   8.749 -0.2874 -0.6147  0.4710
    5CHL1  H27A  368   0.407   2.837   8.738 -1.2408  1.0651 -1.5375
    5CHL1  H27B  369   0.293   2.697   8.688 -0.2060  0.7489 -1.7031
    5CHL1  H27C  370   0.232   2.860   8.709  0.7282  0.0083 -0.3872
    6CHL1    C3  371   2.935   6.247  10.170 -0.0862  0.2758  0.1380
    6CHL1    H3  372   3.035   6.247  10.121 -0.8344  0.8336 -1.4582
    6CHL1    O3  373   2.959   6.261  10.307 -0.5541 -0.2188 -1.2793
    6CHL1   H3'  374   3.031   6.324  10.310 -1.2997  0.7236 -2.3551
    6CHL1    C4  375   2.868   6.371  10.116 -0.1963  0.6798  0.6402
    6CHL1   H4A  376   2.762   6.375  10.149 -0.6747 -3.2796  0.0783
    6CHL1   H4B  377   2.914   6.465  10.153  0.2609  1.3988 -1.5876
    6CHL1    C5  378   2.859   6.367   9.967  0.7091  0.8458 -1.0557
    6CHL1    C6  379   2.908   6.461   9.891  0.1321  0.2122  0.4361
    6CHL1    H6  380   2.954   6.550   9.936  2.0021 -0.4228 -0.1242
    6CHL1    C7  381   2.896   6.454   9.735 -0.1389  0.4327  0.3186
    6CHL1   H7A  382   2.874   6.552   9.688  0.1489 -0.3785 -1.5866
    6CHL1   H7B  383   2.994   6.418   9.699 -0.7739 -1.7544  0.6343
    6CHL1    C8  384   2.796   6.352   9.670 -0.3481 -0.8101 -0.6796
    6CHL1    H8  385   2.692   6.392   9.672 -0.5002 -1.1269  2.4411
    6CHL1   C14  386   2.831   6.330   9.521 -0.6052  0.8380  0.1438
    6CHL1   H14  387   2.932   6.284   9.519  0.1546  2.3991  1.0884
    6CHL1   C15  388   2.833   6.451   9.428  0.1258  0.6649 -1.0693
    6CHL1  H15A  389   2.741   6.508   9.451 -0.3592 -1.1418  2.0692
    6CHL1  H15B  390   2.914   6.522   9.457 -0.1354  1.6298 -2.6372
    6CHL1   C16  391   2.844   6.389   9.285  0.3473  0.4306  0.0203
    6CHL1  H16A  392   2.767   6.431   9.216  0.1462 -0.0171 -0.0311
    6CHL1  H16B  393   2.944   6.410   9.241 -0.1520 -0.2815 -1.5434
    6CHL1   C17  394   2.818   6.236   9.307  0.2429 -0.7223 -0.2599
    6CHL1   H17  395   2.918   6.189   9.323 -0.6043 -2.3620  0.4981
    6CHL1   C13  396   2.755   6.227   9.452 -0.0614 -0.3508  0.5470
    6CHL1   C18  397   2.599   6.270   9.445 -0.3560 -0.3614 -0.5673
    6CHL1  H18A  398   2.543   6.189   9.393  0.2007 -0.8477 -0.4149
    6CHL1  H18B  399   2.559   6.278   9.548  2.6706 -0.7061  0.7191
    6CHL1  H18C  400   2.579   6.370   9.401 -3.2469 -1.2648 -1.5533
    6CHL1   C12  401   2.775   6.098   9.529 -0.4586  0.0069  0.0559
    6CHL1  H12A  402   2.714   6.017   9.485  0.6178 -0.5330 -0.4810
    6CHL1  H12B  403   2.882   6.069   9.519 -0.4541 -0.6580  1.7203
    6CHL1   C11  404   2.731   6.109   9.675  0.3734  0.2800 -1.2328
    6CHL1  H11A  405   2.623   6.132   9.676  0.3761  0.4032 -2.3217
    6CHL1  H11B  406   2.751   6.012   9.725 -1.1364  1.4887  1.9618
    6CHL1    C9  407   2.814   6.220   9.747  0.8062 -0.6145 -0.4360
    6CHL1    H9  408   2.920   6.193   9.728  0.8633 -0.3364 -0.5246
    6CHL1   C10  409   2.794   6.239   9.905  0.2725  0.2482 -0.6654
    6CHL1   C19  410   2.642   6.239   9.924 -0.6540  0.2909  1.0687
    6CHL1  H19A  411   2.601   6.321   9.862 -0.7989 -1.0846 -0.7245
    6CHL1  H19B  412   2.591   6.144   9.895  0.6458 -0.6204  1.6743
    6CHL1  H19C  413   2.612   6.254  10.030 -1.0424 -3.7799  1.6811
    6CHL1    C1  414   2.848   6.114   9.979 -0.4715 -0.5435  0.0024
    6CHL1   H1A  415   2.788   6.026   9.948 -0.4409 -0.3182 -0.7184
    6CHL1   H1B  416   2.954   6.095   9.949 -0.0962 -1.1962  1.6514
    6CHL1    C2  417   2.857   6.123  10.133 -0.0348  0.0280  0.0930
    6CHL1   H2A  418   2.917   6.032  10.155  0.1118 -0.3035 -1.5426
    6CHL1   H2B  419   2.760   6.126  10.187  0.5357  0.8519  1.0987
    6CHL1   C20  420   2.755   6.175   9.183 -0.0747 -0.6769  0.0831
    6CHL1   H20  421   2.660   6.230   9.166 -0.3843  0.7190  4.8466
    6CHL1   C21  422   2.720   6.026   9.211  0.5413 -0.8303 -1.0690
    6CHL1  H21A  423   2.805   5.968   9.253 -0.1632 -0.3107  1.1774
    6CHL1  H21B  424   2.670   5.984   9.121 -0.4553 -0.2080 -0.8205
    6CHL1  H21C  425   2.632   6.018   9.279 -0.8799  1.0885 -2.5705
    6CHL1   C22  426   2.845   6.192   9.060 -0.8142 -0.3283 -0.1910
    6CHL1  H22A  427   2.875   6.299   9.054  0.9504 -0.8242 -0.8278
    6CHL1  H22B  428   2.937   6.131   9.067  0.0056  1.0089  1.2805
    6CHL1   C23  429   2.783   6.162   8.926 -0.7990 -0.1086  0.7976
    6CHL1  H23A  430   2.755   6.054   8.922  0.4399 -0.4059 -0.7468
    6CHL1  H23B  431   2.690   6.222   8.919  0.6320  2.7291  3.6977
    6CHL1   C24  432   2.884   6.193   8.812  0.2850  0.3436 -0.4918
    6CHL1  H24A  433   2.892   6.303   8.799 -1.5662  0.6105  0.2231
    6CHL1  H24B  434   2.977   6.141   8.845 -0.2174  0.6185  1.4614
    6CHL1   C25  435   2.843   6.139   8.672  0.0892  0.3939 -0.1317
    6CHL1   H25  436   2.746   6.193   8.659 -1.4631 -2.1732  0.0665
    6CHL1   C26  437   2.932   6.197   8.563 -0.0578  0.0692 -0.0121
    6CHL1  H26A  438   2.949   6.304   8.589 -1.1078 -0.2173  2.0578
    6CHL1  H26B  439   3.035   6.154   8.571  0.3380  0.6211 -1.7722
    6CHL1  H26C  440   2.877   6.190   8.467 -0.9310  2.5157  0.2431
    6CHL1   C27  441   2.828   5.983   8.650  0.1199  0.4227 -0.0788
    6CHL1  H27A  442   2.774   5.963   8.554 -3.1412  0.2153  1.6552
    6CHL1  H27B  443   2.923   5.926   8.660  0.4746  1.1828  1.0077
    6CHL1  H27C  444   2.762   5.948   8.732  2.4494  0.2124  1.8022
    7CHL1    C3  445   1.037   3.018  10.418 -0.2410 -0.5172 -1.0067
    7CHL1    H3  446   1.121   3.085  10.444 -0.5057 -0.1582 -1.0617
    7CHL1    O3  447   0.982   2.964  10.543  0.8430 -0.2052 -0.0168
    7CHL1   H3'  448   0.997   3.028  10.613  0.3154 -0.6027  0.4768
    7CHL1    C4  449   0.929   3.106  10.348 -0.5491  0.2932  0.7956
    7CHL1   H4A  450   0.833   3.049  10.345 -0.4008  0.0885 -0.3235
    7CHL1   H4B  451   0.908   3.194  10.413  2.0119  2.0781 -0.6251
    7CHL1    C5  452   0.967   3.152  10.208  0.2267 -0.1283  0.2091
    7CHL1    C6  453   0.967   3.283  10.164 -0.2979 -0.6552  0.0347
    7CHL1    H6  454   0.948   3.370  10.227 -0.4234 -1.1388  0.6750
    7CHL1    C7  455   0.992   3.318  10.019  0.5610 -0.3292 -0.3398
    7CHL1   H7A  456   0.923   3.404  10.003  0.3076 -0.9209 -2.9812
    7CHL1   H7B  457   1.090   3.371  10.015  0.9303 -1.0031 -0.2949
    7CHL1    C8  458   0.983   3.203   9.916 -0.2869 -0.2098  0.3768
    7CHL1    H8  459   0.876   3.184   9.896 -0.9738  1.1524  2.4700
    7CHL1   C14  460   1.041   3.241   9.777 -0.1582 -0.1306  0.5792
    7CHL1   H14  461   1.148   3.268   9.796 -0.0387  2.2717 -2.5775
    7CHL1   C15  462   0.974   3.358   9.721 -0.0272 -0.1915  0.3834
    7CHL1  H15A  463   0.866   3.341   9.737 -0.3348 -0.9967 -2.1296
    7CHL1  H15B  464   0.996   3.458   9.765 -0.3223 -0.7217  1.7955
    7CHL1   C16  465   1.008   3.348   9.575  0.6996 -0.2935 -0.0662
    7CHL1  H16A  466   0.916   3.351   9.513  0.3016 -0.8375  0.4808
    7CHL1  H16B  467   1.075   3.427   9.535  1.3369 -1.2809 -1.0124
    7CHL1   C17  468   1.074   3.208   9.554 -0.4629  0.1098 -0.2855
    7CHL1   H17  469   1.184   3.221   9.568 -0.5115  0.1474  0.0671
    7CHL1   C13  470   1.039   3.130   9.675  0.5022 -0.2347 -0.1767
    7CHL1   C18  471   0.891   3.086   9.655  0.4728  0.0962  0.2063
    7CHL1  H18A  472   0.882   3.009   9.576 -1.7571  0.1462  0.3428
    7CHL1  H18B  473   0.849   3.040   9.747  0.8596  0.7273  0.7117
    7CHL1  H18C  474   0.821   3.161   9.611  1.5015  2.3700  2.2418
    7CHL1   C12  475   1.128   3.022   9.727 -1.2618  1.0254  0.0814
    7CHL1  H12A  476   1.138   2.945   9.647 -2.2419  0.8218  0.1514
    7CHL1  H12B  477   1.225   3.073   9.745 -0.8975  0.4192 -0.1012
    7CHL1   C11  478   1.079   2.966   9.863 -0.2945 -0.2137  1.0524
    7CHL1  H11A  479   0.989   2.901   9.853  0.7214 -1.4443 -0.3115
    7CHL1  H11B  480   1.163   2.901   9.893 -1.0700 -2.2582 -0.9581
    7CHL1    C9  481   1.057   3.080   9.968  0.2118  0.5304  0.2449
    7CHL1    H9  482   1.159   3.122   9.984  0.9947 -0.0039 -2.7373
    7CHL1   C10  483   1.006   3.034  10.109 -0.1882 -0.0226 -0.5703
    7CHL1   C19  484   0.885   2.942  10.093 -0.2717  0.6533  0.3948
    7CHL1  H19A  485   0.894   2.860  10.018 -1.7254  1.3898 -0.6435
    7CHL1  H19B  486   0.848   2.894  10.186 -1.2768 -2.6000 -1.5025
    7CHL1  H19C  487   0.800   3.000  10.051  0.5361 -0.4233 -3.0911
    7CHL1    C1  488   1.115   2.940  10.183  0.2160 -0.2432  0.2339
    7CHL1   H1A  489   1.134   2.848  10.124 -1.7413 -0.4515 -0.1270
    7CHL1   H1B  490   1.208   2.996  10.207  0.4067  0.0681 -1.1517
    7CHL1    C2  491   1.080   2.896  10.329 -0.6690  0.2558 -1.1940
    7CHL1   H2A  492   1.157   2.834  10.379 -1.9428  0.3672  1.0370
    7CHL1   H2B  493   0.994   2.827  10.329  0.3390 -1.0447 -1.9751
    7CHL1   C20  494   1.046   3.159   9.407  0.0320 -0.1439  0.1677
    7CHL1   H20  495   0.937   3.143   9.390 -0.3316 -0.4741  2.4263
    7CHL1   C21  496   1.109   3.023   9.393 -0.2902  0.0662  0.0255
    7CHL1  H21A  497   1.040   2.947   9.438  0.9231 -0.8020  0.4650
    7CHL1  H21B  498   1.210   3.028   9.439 -0.9952  1.3554  1.5102
    7CHL1  H21C  499   1.119   2.987   9.288 -1.4489 -2.3491  0.6505
    7CHL1   C22  500   1.086   3.273   9.301  0.5431  0.2944  0.3481
    7CHL1  H22A  501   1.028   3.367   9.312  2.7315  2.2250 -2.9210
    7CHL1  H22B  502   1.194   3.298   9.305  0.1768  1.8760  1.1845
    7CHL1   C23  503   1.060   3.228   9.157 -0.0193  0.5839  0.2254
    7CHL1  H23A  504   1.123   3.139   9.135  1.2051  1.6855 -0.8708
    7CHL1  H23B  505   0.955   3.194   9.150  0.1508  0.3470 -1.5091
    7CHL1   C24  506   1.079   3.335   9.054 -0.4718  0.4808 -0.1333
    7CHL1  H24A  507   1.020   3.423   9.087  0.6618  1.1051  0.2941
    7CHL1  H24B  508   1.185   3.370   9.052 -0.9939  2.1428 -1.4156
    7CHL1   C25  509   1.045   3.300   8.907  0.6526  0.3595 -0.2232
    7CHL1   H25  510   1.102   3.205   8.892 -0.6891 -1.4090  4.1710
    7CHL1   C26  511   0.900   3.267   8.888 -0.2370  0.5704  0.1997
    7CHL1  H26A  512   0.877   3.232   8.785  2.9546  0.2450 -0.5289
    7CHL1  H26B  513   0.866   3.196   8.966  0.3302  1.3326  1.1590
    7CHL1  H26C  514   0.842   3.359   8.909  2.2090  2.2405  0.0699
    7CHL1   C27  515   1.089   3.421   8.819 -1.1683 -0.4734 -0.2399
    7CHL1  H27A  516   1.013   3.498   8.844 -1.7718  0.5226 -4.3974
    7CHL1  H27B  517   1.190   3.459   8.845 -0.3130 -3.2161  0.8076
    7CHL1  H27C  518   1.085   3.409   8.708  2.9253  0.9763 -0.7157
    8CHL1    C3  519   0.737   5.851  10.270  0.6320 -0.7184  0.4849
    8CHL1    H3  520   0.728   5.740  10.263 -2.2188 -0.6917  2.2566
    8CHL1    O3  521   0.744   5.889  10.408  0.7690 -0.5965  0.2937
    8CHL1   H3'  522   0.792   5.818  10.450  1.2874  0.4791  1.5896
    8CHL1    C4  523   0.871   5.892  10.203 -0.2628  0.0595  0.1780
    8CHL1   H4A  524   0.878   6.002  10.213 -1.2371  0.0659  1.0241
    8CHL1   H4B  525   0.951   5.831  10.251 -0.9520 -0.8682  0.1941
    8CHL1    C5  526   0.866   5.868  10.055  0.5325  0.1542 -0.0467
    8CHL1    C6  527   0.967   5.803   9.986 -0.4561 -0.4895 -1.0864
    8CHL1    H6  528   1.054   5.767  10.042 -1.4090 -1.0923  0.0553
    8CHL1    C7  529   0.972   5.796   9.840  0.8338 -0.1222 -0.7169
    8CHL1   H7A  530   1.076   5.808   9.804  1.2904 -0.0161  0.5844
    8CHL1   H7B  531   0.941   5.692   9.816 -0.7090 -0.4312  2.1383
    8CHL1    C8  532   0.872   5.895   9.763  1.0455 -0.2498 -0.2665
    8CHL1    H8  533   0.912   5.998   9.761  0.7329 -0.0842  1.0292
    8CHL1   C14  534   0.849   5.844   9.617 -0.2361 -0.6776 -0.1245
    8CHL1   H14  535   0.814   5.741   9.639 -0.2834 -0.3302  1.5171
    8CHL1   C15  536   0.975   5.820   9.538 -0.4289  0.3170 -0.2647
    8CHL1  H15A  537   1.056   5.893   9.557  0.3909 -0.3961 -0.9643
    8CHL1  H15B  538   1.030   5.729   9.569  0.4512  0.9219 -0.0247
    8CHL1   C16  539   0.921   5.807   9.391  0.5460  0.6400 -0.7336
    8CHL1  H16A  540   0.979   5.880   9.330  0.7441  0.2546 -1.0069
    8CHL1  H16B  541   0.941   5.705   9.352 -0.4442 -0.0220  0.4254
    8CHL1   C17  542   0.768   5.834   9.400 -0.4754  0.3920 -0.1659
    8CHL1   H17  543   0.726   5.733   9.420  0.5111 -0.5131 -2.3758
    8CHL1   C13  544   0.746   5.918   9.530  0.1000 -0.5363 -0.5431
    8CHL1   C18  545   0.792   6.066   9.510 -0.1924 -0.1572 -0.6544
    8CHL1  H18A  546   0.883   6.076   9.446 -0.7393  0.7935 -1.3122
    8CHL1  H18B  547   0.704   6.115   9.463 -1.3413 -0.4526  1.1086
    8CHL1  H18C  548   0.813   6.109   9.610  0.8667 -2.8731  0.3978
    8CHL1   C12  549   0.611   5.909   9.608 -0.5539 -0.4052  0.2558
    8CHL1  H12A  550   0.530   5.951   9.545 -0.1713  1.3037  0.8514
    8CHL1  H12B  551   0.594   5.799   9.618 -0.9719 -0.6343 -2.3555
    8CHL1   C11  552   0.632   5.965   9.754 -1.0320  0.5016 -0.1379
    8CHL1  H11A  553   0.646   6.074   9.744 -1.9102  0.4267 -2.9295
    8CHL1  H11B  554   0.532   5.954   9.803 -1.1932  2.3708  0.0057
    8CHL1    C9  555   0.732   5.893   9.840 -0.2777  0.1203  0.3939
    8CHL1    H9  556   0.698   5.787   9.835 -3.0018  0.8983  0.5413
    8CHL1   C10  557   0.738   5.933   9.990  0.3904 -0.1642 -0.1425
    8CHL1   C19  558   0.751   6.090   9.993  0.0620 -0.0219 -1.5042
    8CHL1  H19A  559   0.815   6.122   9.908 -0.0294 -1.2157 -2.0428
    8CHL1  H19B  560   0.648   6.132   9.985 -0.6151 -1.6789 -1.8412
    8CHL1  H19C  561   0.807   6.125  10.082  1.5547 -2.0252 -1.5866
    8CHL1    C1  562   0.605   5.889  10.060 -0.7733  0.5664  0.3212
    8CHL1   H1A  563   0.523   5.941  10.007 -3.2471 -0.6692  2.7230
    8CHL1   H1B  564   0.603   5.780  10.040 -1.7249  0.8236 -1.0877
    8CHL1    C2  565   0.606   5.914  10.207  0.0310 -0.0366  0.1473
    8CHL1   H2A  566   0.515   5.860  10.241 -1.2389  0.3884 -2.3371
    8CHL1   H2B  567   0.598   6.022  10.236 -1.7440 -0.5879  2.0389
    8CHL1   C20  568   0.712   5.872   9.261  0.3501 -0.2906 -0.1543
    8CHL1   H20  569   0.761   5.970   9.245  0.5897 -0.3497  0.2245
    8CHL1   C21  570   0.561   5.912   9.266  0.1939 -0.0621 -0.2075
    8CHL1  H21A  571   0.496   5.825   9.291  1.1162 -1.1156 -1.3481
    8CHL1  H21B  572   0.531   5.955   9.167 -0.5652 -1.3867 -0.5804
    8CHL1  H21C  573   0.552   6.003   9.329  2.6955 -0.6620  1.1183
    8CHL1   C22  574   0.735   5.762   9.150 -0.2525 -0.6775  0.5175
    8CHL1  H22A  575   0.838   5.720   9.154 -0.9485 -2.7150 -1.0915
    8CHL1  H22B  576   0.669   5.679   9.184 -0.8132 -0.7181 -0.6193
    8CHL1   C23  577   0.702   5.801   9.006  0.0125 -0.5067 -0.2474
    8CHL1  H23A  578   0.592   5.817   9.003  0.3155  2.2390  0.5862
    8CHL1  H23B  579   0.752   5.899   8.993  0.6601 -0.9650 -1.3446
    8CHL1   C24  580   0.741   5.688   8.912 -0.0526 -0.5378 -0.8037
    8CHL1  H24A  581   0.849   5.664   8.922  0.1522  0.7672  0.4928
    8CHL1  H24B  582   0.683   5.595   8.929  2.7325 -1.9140  2.4060
    8CHL1   C25  583   0.728   5.719   8.764  0.1029  0.2597 -0.0274
    8CHL1   H25  584   0.807   5.793   8.740  0.4069  0.0748  0.3766
    8CHL1   C26  585   0.761   5.601   8.668  0.1918  0.1755 -0.0850
    8CHL1  H26A  586   0.699   5.512   8.690 -0.5082  0.6394 -0.1677
    8CHL1  H26B  587   0.733   5.621   8.562 -0.4639  2.9689  0.5390
    8CHL1  H26C  588   0.869   5.573   8.666  0.8704  2.4501 -2.8670
    8CHL1   C27  589   0.598   5.781   8.726  0.1312 -0.3356  0.5043
    8CHL1  H27A  590   0.511   5.716   8.750  0.7284 -1.3808 -0.0760
    8CHL1  H27B  591   0.590   5.885   8.763  0.8843 -0.2751  0.5281
    8CHL1  H27C  592   0.605   5.788   8.616  0.1638 -1.8766  0.3920
    9CHL1    C3  593   4.500   2.119  10.085  0.2063 -0.2193  0.7428
    9CHL1    H3  594   4.599   2.168  10.091 -0.3823  1.1080  0.0721
    9CHL1    O3  595   4.434   2.125  10.214  0.2371  0.3829  1.0421
    9CHL1   H3'  596   4.373   2.051  10.206 -1.6003  1.9559 -0.5994
    9CHL1    C4  597   4.411   2.203   9.985 -0.2301 -0.1154 -0.4123
    9CHL1   H4A  598   4.312   2.153   9.985  1.0768 -2.8890 -0.7968
    9CHL1   H4B  599   4.398   2.304  10.030  3.9764  0.3069  0.3049
    9CHL1    C5  600   4.477   2.202   9.845  0.4747  0.2916  0.5047
    9CHL1    C6  601   4.505   2.316   9.789 -0.0806  0.1057 -0.0959
    9CHL1    H6  602   4.484   2.406   9.849 -2.0782  0.0702 -0.6586
    9CHL1    C7  603   4.549   2.326   9.645  0.0688 -0.1258  0.0749
    9CHL1   H7A  604   4.486   2.404   9.595 -2.1867 -0.7122  1.8505
    9CHL1   H7B  605   4.654   2.359   9.657 -0.8245  2.4881  1.4405
    9CHL1    C8  606   4.544   2.192   9.566  0.1200  0.1089 -0.5162
    9CHL1    H8  607   4.447   2.169   9.517 -0.3382 -1.9156  1.2166
    9CHL1   C14  608   4.643   2.203   9.456  1.0916 -0.1981  0.3955
    9CHL1   H14  609   4.742   2.228   9.501  0.7189  0.3199  0.9413
    9CHL1   C15  610   4.621   2.321   9.351  0.5260  0.6425 -0.7209
    9CHL1  H15A  611   4.510   2.331   9.344  0.2345  1.0706  2.7515
    9CHL1  H15B  612   4.656   2.421   9.386  0.4073  0.1618  0.8647
    9CHL1   C16  613   4.688   2.266   9.224  0.0368 -0.5733  1.0458
    9CHL1  H16A  614   4.616   2.256   9.140 -0.6032 -3.9424  1.8495
    9CHL1  H16B  615   4.770   2.332   9.188  0.1316  0.1615  2.5160
    9CHL1   C17  616   4.736   2.118   9.256  0.0332  0.1679 -0.6270
    9CHL1   H17  617   4.835   2.131   9.305 -1.0822 -1.5831  2.3521
    9CHL1   C13  618   4.647   2.080   9.370  0.2992 -0.1918 -0.1559
    9CHL1   C18  619   4.509   2.039   9.303 -0.1838  0.5138 -0.3308
    9CHL1  H18A  620   4.523   1.938   9.259  0.4515 -0.3110  1.6135
    9CHL1  H18B  621   4.430   2.043   9.381  0.8779  3.1797  0.7171
    9CHL1  H18C  622   4.469   2.116   9.235  0.6898  2.1871  0.9583
    9CHL1   C12  623   4.691   1.960   9.454 -0.0928  0.1276 -0.0281
    9CHL1  H12A  624   4.692   1.866   9.395  0.0757  0.2800 -0.2731
    9CHL1  H12B  625   4.800   1.978   9.469 -0.0557 -0.8257  0.9190
    9CHL1   C11  626   4.610   1.941   9.577 -0.0213 -0.0535 -0.2283
    9CHL1  H11A  627   4.511   1.898   9.549 -0.2613 -0.5141  1.2477
    9CHL1  H11B  628   4.656   1.856   9.631 -1.9558 -1.2610 -0.4138
    9CHL1    C9  629   4.586   2.069   9.652 -0.1653 -0.5083 -0.1290
    9CHL1    H9  630   4.689   2.093   9.686  0.2525 -1.4921 -0.6584
    9CHL1   C10  631   4.498   2.061   9.785 -0.4662 -0.5106 -0.4587
    9CHL1   C19  632   4.358   2.016   9.739 -0.1049  0.1318  0.3691
    9CHL1  H19A  633   4.332   2.078   9.650  0.8417  0.1778  0.1046
    9CHL1  H19B  634   4.355   1.909   9.710  3.3673 -0.3882  1.4502
    9CHL1  H19C  635   4.283   2.026   9.819 -0.0856 -1.6924  0.6631
    9CHL1    C1  636   4.565   1.969   9.892 -0.5070  0.2130  0.8114
    9CHL1   H1A  637   4.571   1.864   9.856  0.3907  0.5921 -0.2025
    9CHL1   H1B  638   4.672   1.997   9.892  0.0568 -1.7535  0.3501
    9CHL1    C2  639   4.511   1.974  10.034 -0.6215 -0.5077 -0.3186
    9CHL1   H2A  640   4.571   1.913  10.105  0.1114  0.4183 -0.1293
    9CHL1   H2B  641   4.410   1.927  10.037  0.1981 -2.3069  0.2079
    9CHL1   C20  642   4.765   2.028   9.137 -0.0565 -1.1556 -0.3653
    9CHL1   H20  643   4.743   1.925   9.172 -2.7131  0.0919  2.0196
    9CHL1   C21  644   4.910   2.044   9.096 -1.3245  0.2883  0.8142
    9CHL1  H21A  645   4.972   2.003   9.179  0.9186 -0.8806 -1.2981
    9CHL1  H21B  646   4.943   2.149   9.078  1.1730  0.0377  3.3176
    9CHL1  H21C  647   4.938   1.984   9.006 -0.5425  0.7611  0.7281
    9CHL1   C22  648   4.675   2.051   9.008  0.0478  0.0361 -0.3456
    9CHL1  H22A  649   4.566   2.048   9.034 -0.0004 -1.9489 -0.6359
    9CHL1  H22B  650   4.702   2.152   8.970  3.7347  0.2929  2.4889
    9CHL1   C23  651   4.693   1.944   8.901  0.0584 -0.2119 -0.4184
    9CHL1  H23A  652   4.795   1.956   8.858  0.2179  1.1015  0.2648
    9CHL1  H23B  653   4.685   1.843   8.945 -0.4479 -0.6883 -1.5480
    9CHL1   C24  654   4.586   1.938   8.785 -0.3589  0.0038 -0.6216
    9CHL1  H24A  655   4.485   1.927   8.830 -0.6625 -0.9948 -1.5243
    9CHL1  H24B  656   4.577   2.020   8.710  0.0136  0.5249 -0.1109
    9CHL1   C25  657   4.601   1.806   8.706 -0.4897 -0.4416 -0.5700
    9CHL1   H25  658   4.557   1.730   8.773 -0.3577 -1.3469 -1.4782
    9CHL1   C26  659   4.508   1.798   8.580  0.3350  0.7599 -0.0419
    9CHL1  H26A  660   4.528   1.703   8.527  0.7462  0.4938  0.5709
    9CHL1  H26B  661   4.403   1.800   8.619  0.0236  2.3582 -0.8987
    9CHL1  H26C  662   4.540   1.875   8.508  3.9623  0.9082  1.5310
    9CHL1   C27  663   4.744   1.776   8.670  0.1926 -0.1362  0.4103
    9CHL1  H27A  664   4.750   1.691   8.599 -1.0963 -0.2172  0.3789
    9CHL1  H27B  665   4.801   1.860   8.625  2.0019 -1.3549  0.3200
    9CHL1  H27C  666   4.792   1.735   8.762 -0.2418 -0.1161  0.6475
   10CHL1    C3  667   2.541   3.451  10.216  0.2299 -0.3486 -0.3904
   10CHL1    H3  668   2.435   3.462  10.185 -0.2604 -2.0627  0.4947
   10CHL1    O3  669   2.538   3.430  10.357 -0.0602 -0.0869 -0.2470
   10CHL1   H3'  670   2.619   3.382  10.378 -0.6232 -0.4757  1.1719
   10CHL1    C4  671   2.620   3.344  10.139  0.3864 -0.5637  0.7405
   10CHL1   H4A  672   2.724   3.346  10.178  0.5908  0.6729  0.1757
   10CHL1   H4B  673   2.572   3.244  10.148 -3.4061  0.9643 -0.3663
   10CHL1    C5  674   2.625   3.375   9.987  0.7569 -0.0017 -0.3024
   10CHL1    C6  675   2.567   3.301   9.897  0.0023 -0.1515 -0.3378
   10CHL1    H6  676   2.513   3.218   9.946  0.1035  0.3557  0.6445
   10CHL1    C7  677   2.568   3.312   9.748 -0.0445 -0.5542 -0.1866
   10CHL1   H7A  678   2.616   3.218   9.714 -1.0797 -1.1630 -0.0261
   10CHL1   H7B  679   2.464   3.323   9.710  0.2755  1.7317 -0.5720
   10CHL1    C8  680   2.658   3.427   9.699  0.2339 -0.1481  0.2260
   10CHL1    H8  681   2.765   3.398   9.700  0.7626  1.5960 -0.6538
   10CHL1   C14  682   2.624   3.476   9.558 -0.2347  0.5922  0.6707
   10CHL1   H14  683   2.520   3.513   9.570 -0.7502 -0.2721 -0.8562
   10CHL1   C15  684   2.624   3.371   9.443 -0.5742  0.3027 -0.5808
   10CHL1  H15A  685   2.721   3.318   9.442 -0.1956  0.9924 -1.9266
   10CHL1  H15B  686   2.537   3.305   9.465 -1.7442  2.4453  1.8536
   10CHL1   C16  687   2.624   3.454   9.316 -0.1290  0.2550  0.2757
   10CHL1  H16A  688   2.703   3.410   9.252  1.3222 -0.3089  2.3528
   10CHL1  H16B  689   2.527   3.455   9.262  0.5876 -0.4631 -1.0604
   10CHL1   C17  690   2.659   3.606   9.357 -0.3080  0.8373  0.3342
   10CHL1   H17  691   2.568   3.669   9.362 -0.2390  1.2614 -2.3287
   10CHL1   C13  692   2.716   3.591   9.498  0.6880  0.0362 -0.9504
   10CHL1   C18  693   2.865   3.550   9.497 -0.1830 -0.5520  0.2875
   10CHL1  H18A  694   2.932   3.632   9.464 -1.5182 -0.2287 -1.8050
   10CHL1  H18B  695   2.899   3.524   9.600  0.0136 -1.4626 -0.0030
   10CHL1  H18C  696   2.881   3.462   9.432  3.8766 -1.2248  1.8987
   10CHL1   C12  697   2.690   3.713   9.596  0.3549  0.2540 -1.0490
   10CHL1  H12A  698   2.736   3.811   9.572 -0.3434  2.2032  4.2436
   10CHL1  H12B  699   2.581   3.731   9.601  0.2035 -0.7454 -0.2780
   10CHL1   C11  700   2.729   3.672   9.747  0.2778  0.0088  0.2924
   10CHL1  H11A  701   2.840   3.659   9.742  0.3057  0.5701 -1.0538
   10CHL1  H11B  702   2.703   3.760   9.808  3.9723  0.7219  1.1220
   10CHL1    C9  703   2.659   3.543   9.793 -0.0229  0.2044 -0.3769
   10CHL1    H9  704   2.552   3.573   9.799  0.2740  1.0187  1.5916
   10CHL1   C10  705   2.688   3.513   9.945  0.5749  0.3890 -0.5011
   10CHL1   C19  706   2.842   3.504   9.975  0.6798 -0.3984  0.0986
   10CHL1  H19A  707   2.897   3.416   9.933  0.7863 -0.3659  0.1696
   10CHL1  H19B  708   2.894   3.596   9.941 -0.9914  1.9461  3.3399
   10CHL1  H19C  709   2.853   3.504  10.086 -1.1858  0.3508  0.3167
   10CHL1    C1  710   2.625   3.626  10.035  0.5348 -0.0490 -0.2940
   10CHL1   H1A  711   2.698   3.708  10.020 -1.0893  1.5389  0.2033
   10CHL1   H1B  712   2.526   3.660  10.000  0.4678 -0.0458 -0.1003
   10CHL1    C2  713   2.617   3.587  10.184 -0.0787  0.3931 -0.1276
   10CHL1   H2A  714   2.562   3.664  10.243 -0.2077 -0.0297  0.3201
   10CHL1   H2B  715   2.721   3.585  10.222  0.1930  1.3801 -0.8147
   10CHL1   C20  716   2.747   3.682   9.258 -0.5844  0.5782  0.7787
   10CHL1   H20  717   2.848   3.635   9.257 -0.9921 -0.4192 -2.4195
   10CHL1   C21  718   2.768   3.830   9.292 -0.0943  0.2143 -0.2573
   10CHL1  H21A  719   2.832   3.871   9.212 -0.3045  0.5648 -0.2487
   10CHL1  H21B  720   2.830   3.834   9.385  2.2778  0.7791 -1.7869
   10CHL1  H21C  721   2.674   3.890   9.299  0.3371  1.0158 -1.1598
   10CHL1   C22  722   2.700   3.674   9.110  0.3660  0.3152 -0.1325
   10CHL1  H22A  723   2.753   3.754   9.052 -0.2319  0.1030 -0.9918
   10CHL1  H22B  724   2.726   3.573   9.072  1.3804 -1.4798  4.6598
   10CHL1   C23  725   2.554   3.707   9.088 -0.4037 -0.1315 -0.6658
   10CHL1  H23A  726   2.492   3.644   9.156 -0.0163 -0.6123 -0.7465
   10CHL1  H23B  727   2.533   3.812   9.114 -0.5267 -0.4722  0.6720
   10CHL1   C24  728   2.509   3.680   8.949 -0.6656  0.1059  0.3659
   10CHL1  H24A  729   2.539   3.583   8.904  0.4683 -0.5845  2.4845
   10CHL1  H24B  730   2.398   3.674   8.938 -0.6098  1.0299 -1.0980
   10CHL1   C25  731   2.555   3.784   8.845  0.0280 -0.0861  0.1506
   10CHL1   H25  732   2.664   3.798   8.857 -0.0023 -0.9427  1.7966
   10CHL1   C26  733   2.535   3.728   8.704 -0.1918  0.5623 -0.0070
   10CHL1  H26A  734   2.617   3.663   8.667 -0.5752  1.7520 -3.3364
   10CHL1  H26B  735   2.444   3.663   8.708 -0.6941  1.2124 -0.6124
   10CHL1  H26C  736   2.517   3.806   8.627 -1.7629 -0.6252 -0.8943
   10CHL1   C27  737   2.486   3.926   8.855  0.2717  0.0664  0.1379
   10CHL1  H27A  738   2.512   3.995   8.773 -0.7420 -0.2338 -0.4592
   10CHL1  H27B  739   2.379   3.897   8.846  0.2436  0.3382 -0.4339
   10CHL1  H27C  740   2.500   3.970   8.956  2.0047 -0.2052  0.0493
   11CHL1    C3  741   5.736   5.818  10.259 -0.0879  0.2961 -0.0987
   11CHL1    H3  742   5.679   5.726  10.237 -0.6739  0.1551  1.7971
   11CHL1    O3  743   5.724   5.847  10.399 -0.2958  0.0152  0.7158
   11CHL1   H3'  744   5.644   5.896  10.418 -0.4724 -0.1513  0.4139
   11CHL1    C4  745   5.884   5.780  10.227  0.0507  0.4176  0.8555
   11CHL1   H4A  746   5.961   5.848  10.267 -0.3213 -0.0337  2.4291
   11CHL1   H4B  747   5.895   5.690  10.293 -0.4738 -0.7763 -0.6197
   11CHL1    C5  748   5.896   5.741  10.080  0.2470 -0.3009  0.1760
   11CHL1    C6  749   5.938   5.622  10.042 -0.3535 -0.6827  0.3175
   11CHL1    H6  750   5.947   5.548  10.123 -0.0571  0.1819  1.0874
   11CHL1    C7  751   5.975   5.592   9.901  0.4896 -0.4385 -0.0972
   11CHL1   H7A  752   6.059   5.519   9.900  2.1513  1.3547 -1.6686
   11CHL1   H7B  753   5.884   5.548   9.855 -0.1602  0.3404  0.4078
   11CHL1    C8  754   6.001   5.722   9.813 -0.1550  0.1227 -0.2629
   11CHL1    H8  755   6.089   5.776   9.855 -1.2750  1.4500  0.4568
   11CHL1   C14  756   6.014   5.680   9.667 -0.1120  0.7469  0.3069
   11CHL1   H14  757   5.919   5.638   9.629  1.9233 -1.2769 -3.0515
   11CHL1   C15  758   6.118   5.578   9.624 -0.2549  0.4941  0.7268
   11CHL1  H15A  759   6.222   5.601   9.654 -0.1442 -0.0758  0.7911
   11CHL1  H15B  760   6.089   5.478   9.662 -2.3292 -0.3204 -2.5949
   11CHL1   C16  761   6.133   5.601   9.470  0.3768  0.0026 -1.0666
   11CHL1  H16A  762   6.234   5.646   9.461 -0.5058  3.2493  2.4929
   11CHL1  H16B  763   6.118   5.513   9.404  1.0624 -0.6411 -0.3982
   11CHL1   C17  764   6.043   5.718   9.438 -0.0328 -0.5695 -0.3584
   11CHL1   H17  765   5.943   5.671   9.428  0.3291 -1.0482 -2.2521
   11CHL1   C13  766   6.028   5.797   9.571 -0.1875 -1.1363  0.5917
   11CHL1   C18  767   6.157   5.882   9.594 -0.0544 -0.0114 -0.9941
   11CHL1  H18A  768   6.245   5.817   9.612 -0.4932 -0.4562 -0.4083
   11CHL1  H18B  769   6.167   5.952   9.508 -1.0083  0.8352 -0.4487
   11CHL1  H18C  770   6.156   5.948   9.684  0.6836  0.2020 -1.1397
   11CHL1   C12  771   5.907   5.884   9.590  0.3658  0.0435 -0.0010
   11CHL1  H12A  772   5.903   5.976   9.528  2.1564  1.2351  1.5607
   11CHL1  H12B  773   5.814   5.825   9.572  0.2705  0.2652 -0.2489
   11CHL1   C11  774   5.883   5.937   9.732 -0.5479  0.3231  0.3018
   11CHL1  H11A  775   5.968   6.005   9.749 -0.1102  0.4133 -1.9714
   11CHL1  H11B  776   5.790   5.997   9.739  0.5487  2.0666  0.6064
   11CHL1    C9  777   5.879   5.816   9.833  0.0133 -0.7264 -0.2675
   11CHL1    H9  778   5.788   5.755   9.815 -0.2586 -0.3216 -0.2579
   11CHL1   C10  779   5.868   5.863   9.988  0.1464  0.4014  0.5236
   11CHL1   C19  780   5.965   5.984  10.017  0.0030 -0.1900 -0.3799
   11CHL1  H19A  781   5.975   5.997  10.127 -1.0307  0.3387 -0.3394
   11CHL1  H19B  782   6.069   5.984   9.978  0.8604  0.3474  1.7217
   11CHL1  H19C  783   5.923   6.080   9.981 -1.3207 -1.5213 -2.5842
   11CHL1    C1  784   5.717   5.900  10.014 -0.3021 -0.6019 -0.0578
   11CHL1   H1A  785   5.689   5.987   9.950  1.3460 -0.8807 -1.2185
   11CHL1   H1B  786   5.655   5.819   9.971 -1.2399  0.9249 -1.7319
   11CHL1    C2  787   5.682   5.930  10.160 -0.6383 -0.1087  0.1019
   11CHL1   H2A  788   5.572   5.940  10.178 -1.5635 -2.1142 -3.4480
   11CHL1   H2B  789   5.733   6.020  10.201 -0.2182 -1.3232  2.4295
   11CHL1   C20  790   6.065   5.785   9.296 -0.1115  0.8107 -0.2649
   11CHL1   H20  791   6.148   5.856   9.313  0.6828 -0.3107  0.6791
   11CHL1   C21  792   5.943   5.864   9.250  0.6428 -0.5148  0.6869
   11CHL1  H21A  793   5.844   5.815   9.267 -0.6922  1.5635 -0.6101
   11CHL1  H21B  794   5.949   5.885   9.142  0.2763  0.3633  0.8273
   11CHL1  H21C  795   5.941   5.961   9.304 -1.7758 -1.0076  1.6259
   11CHL1   C22  796   6.112   5.685   9.183  0.0659 -0.0452 -0.4465
   11CHL1  H22A  797   6.158   5.754   9.110  0.7199  0.0493  0.0408
   11CHL1  H22B  798   6.197   5.624   9.222  0.0406  0.6578  0.7532
   11CHL1   C23  799   6.005   5.600   9.127 -0.3503  0.4522  0.7368
   11CHL1  H23A  800   5.961   5.537   9.207 -0.8573  1.3695  1.2049
   11CHL1  H23B  801   5.925   5.660   9.076  0.4829  0.7077 -0.3047
   11CHL1   C24  802   6.062   5.514   9.015  0.1086 -0.5195 -0.3052
   11CHL1  H24A  803   6.158   5.475   9.054 -0.4818 -1.3435  0.3703
   11CHL1  H24B  804   5.992   5.430   8.996 -1.8169  1.0552 -0.5408
   11CHL1   C25  805   6.086   5.573   8.877  0.3719  0.3599  0.7804
   11CHL1   H25  806   6.150   5.662   8.896  0.6255  0.4811 -0.5376
   11CHL1   C26  807   6.164   5.478   8.790 -0.3505  0.3936  0.6417
   11CHL1  H26A  808   6.259   5.459   8.844  0.0984 -1.2983 -0.6347
   11CHL1  H26B  809   6.111   5.380   8.780 -1.5999  1.2678 -2.2883
   11CHL1  H26C  810   6.195   5.507   8.687  2.1578 -3.4586  0.0901
   11CHL1   C27  811   5.955   5.625   8.808  0.3312 -0.1619  0.1875
   11CHL1  H27A  812   5.877   5.553   8.841 -1.3315  2.2192  1.7617
   11CHL1  H27B  813   5.928   5.723   8.851  2.9507 -0.0570  1.7773
   11CHL1  H27C  814   5.976   5.633   8.699 -0.2273  1.7740  0.1989
   12CHL1    C3  815   0.789   4.239  10.209  0.1485 -0.2682 -0.0353
   12CHL1    H3  816   0.885   4.291  10.232  0.7519 -1.4466  0.2219
   12CHL1    O3  817   0.736   4.209  10.331  0.4418  0.1719 -0.0391
   12CHL1   H3'  818   0.798   4.155  10.381  0.0181  2.1056  2.8326
   12CHL1    C4  819   0.694   4.310  10.118 -0.8366  0.3679 -0.1078
   12CHL1   H4A  820   0.596   4.258  10.121 -0.3271 -0.5853  0.5242
   12CHL1   H4B  821   0.686   4.408  10.171 -0.6735  0.2804  0.0787
   12CHL1    C5  822   0.735   4.319   9.975 -0.4144 -0.2223  0.1898
   12CHL1    C6  823   0.747   4.441   9.915  0.4123  0.7555  0.0093
   12CHL1    H6  824   0.728   4.532   9.975  1.1261  0.7089  0.3195
   12CHL1    C7  825   0.766   4.464   9.771 -0.2258 -0.2110 -0.6844
   12CHL1   H7A  826   0.722   4.558   9.731 -0.0047  0.2584  0.1505
   12CHL1   H7B  827   0.873   4.491   9.761 -0.0930  0.8519  2.4290
   12CHL1    C8  828   0.751   4.336   9.691 -0.0040  0.2184  0.5834
   12CHL1    H8  829   0.642   4.314   9.685 -0.6166  2.7652  1.3411
   12CHL1   C14  830   0.812   4.350   9.548 -0.0722  0.0055 -0.6132
   12CHL1   H14  831   0.922   4.350   9.564 -0.4239 -0.6279  2.3257
   12CHL1   C15  832   0.768   4.471   9.467 -0.4939  0.2144  0.8242
   12CHL1  H15A  833   0.658   4.481   9.465 -0.3947  1.6498 -1.6362
   12CHL1  H15B  834   0.817   4.562   9.507 -0.5929 -0.4569  2.5538
   12CHL1   C16  835   0.804   4.434   9.324  0.3532 -0.3538  0.4240
   12CHL1  H16A  836   0.718   4.462   9.260  0.9386 -1.6260 -0.9734
   12CHL1  H16B  837   0.894   4.485   9.283  1.4981 -3.3418 -1.0436
   12CHL1   C17  838   0.844   4.282   9.328  0.0502 -0.4112  1.0168
   12CHL1   H17  839   0.954   4.278   9.344  0.2515  1.1219  0.2809
   12CHL1   C13  840   0.792   4.224   9.462  0.6290  0.1912  0.5750
   12CHL1   C18  841   0.644   4.195   9.456  0.0704  0.5423  0.8463
   12CHL1  H18A  842   0.600   4.150   9.547 -0.2928  2.6562  1.7560
   12CHL1  H18B  843   0.593   4.292   9.435 -0.7267 -0.1603 -0.6894
   12CHL1  H18C  844   0.612   4.129   9.372 -2.8186  2.3486  0.3999
   12CHL1   C12  845   0.873   4.114   9.521 -0.4326 -0.1097  0.4134
   12CHL1  H12A  846   0.860   4.022   9.459 -1.2481  1.1525 -1.3933
   12CHL1  H12B  847   0.981   4.133   9.508 -0.0005 -1.6230  1.4709
   12CHL1   C11  848   0.839   4.089   9.667 -0.1460  0.6868 -0.0402
   12CHL1  H11A  849   0.739   4.040   9.667  0.1614 -0.0330  2.0458
   12CHL1  H11B  850   0.910   4.010   9.697  1.7260  0.7651 -3.7258
   12CHL1    C9  851   0.826   4.217   9.760  0.1725 -1.0550 -0.3334
   12CHL1    H9  852   0.926   4.258   9.784  0.6181 -3.5873  2.7415
   12CHL1   C10  853   0.764   4.187   9.905  0.5399 -0.9100 -0.4166
   12CHL1   C19  854   0.630   4.111   9.893 -0.2965  0.2745 -0.3136
   12CHL1  H19A  855   0.551   4.166   9.838 -2.1207 -1.6987  0.1814
   12CHL1  H19B  856   0.627   4.015   9.838 -0.4143  0.2333 -0.2349
   12CHL1  H19C  857   0.587   4.090   9.993 -0.9128 -2.8642 -1.1556
   12CHL1    C1  858   0.872   4.125   9.993  0.0748  0.3447 -0.2316
   12CHL1   H1A  859   0.896   4.022   9.958 -0.2508 -1.7216  4.6521
   12CHL1   H1B  860   0.960   4.192   9.995 -0.6265  1.2976 -0.5632
   12CHL1    C2  861   0.830   4.107  10.142  0.1995 -0.3650 -0.0316
   12CHL1   H2A  862   0.911   4.063  10.205 -0.4267 -1.5498 -0.0387
   12CHL1   H2B  863   0.749   4.033  10.159  0.2601  0.1370  3.0465
   12CHL1   C20  864   0.814   4.195   9.199 -0.5725 -0.9654 -0.0877
   12CHL1   H20  865   0.803   4.088   9.229 -1.1176  0.1878  4.6204
   12CHL1   C21  866   0.944   4.202   9.107  0.1186  0.0090  0.1592
   12CHL1  H21A  867   0.950   4.302   9.058  1.1393  0.5077  1.2720
   12CHL1  H21B  868   0.952   4.128   9.024  0.5166 -0.6695  0.7882
   12CHL1  H21C  869   1.034   4.194   9.170  0.4361  0.8670 -0.1681
   12CHL1   C22  870   0.687   4.238   9.110  0.3203 -0.5039 -1.0824
   12CHL1  H22A  871   0.605   4.259   9.181  2.1329  2.2013  0.4139
   12CHL1  H22B  872   0.705   4.337   9.062 -0.2098  0.0383 -0.1942
   12CHL1   C23  873   0.642   4.133   9.012 -0.2782  0.3271  0.3830
   12CHL1  H23A  874   0.719   4.104   8.938 -0.6281  2.4805 -0.9072
   12CHL1  H23B  875   0.604   4.044   9.066  0.6226 -0.0203  0.4558
   12CHL1   C24  876   0.516   4.184   8.941  0.2661  0.3331  0.0880
   12CHL1  H24A  877   0.423   4.173   9.001 -0.8475 -1.4715 -1.8257
   12CHL1  H24B  878   0.525   4.293   8.920  2.3619 -0.0252 -1.1858
   12CHL1   C25  879   0.490   4.116   8.814  0.0612  0.7807  0.4275
   12CHL1   H25  880   0.585   4.115   8.757  0.7180  1.3054  1.4847
   12CHL1   C26  881   0.453   3.970   8.829  0.3077  0.2730 -0.1314
   12CHL1  H26A  882   0.513   3.902   8.894 -0.5458 -1.5694 -1.1807
   12CHL1  H26B  883   0.353   3.957   8.875  0.2599  0.1490 -0.2671
   12CHL1  H26C  884   0.450   3.911   8.735  0.5226 -1.1931  0.7434
   12CHL1   C27  885   0.386   4.190   8.740  1.1985 -0.3430 -0.5592
   12CHL1  H27A  886   0.408   4.296   8.713  1.8553 -0.2175  0.4240
   12CHL1  H27B  887   0.356   4.143   8.644 -2.4566 -0.9796  0.7073
   12CHL1  H27C  888   0.300   4.183   8.810  0.6450 -0.1928 -1.2020
   13CHL1    C3  889   3.712   0.016  10.043 -0.0666  0.3975 -0.0543
   13CHL1    H3  890   3.604   0.023  10.020 -0.0131  0.6994 -0.2069
   13CHL1    O3  891   3.728   0.072  10.175  0.4748 -0.8833 -0.3836
   13CHL1   H3'  892   3.814   0.114  10.184 -0.3333  1.2979 -2.0302
   13CHL1    C4  893   3.765  -0.132  10.043  0.4656  0.5754  0.3125
   13CHL1   H4A  894   3.872  -0.145  10.071  0.3649 -3.7382 -0.6186
   13CHL1   H4B  895   3.699  -0.189  10.111 -1.3142  3.9886  1.6450
   13CHL1    C5  896   3.767  -0.191   9.898  0.1745 -0.7096 -1.5045
   13CHL1    C6  897   3.703  -0.308   9.875 -0.1630  0.3465 -0.9449
   13CHL1    H6  898   3.668  -0.364   9.962 -0.4041 -0.4893 -1.5676
   13CHL1    C7  899   3.709  -0.383   9.746  0.4973 -0.2694  0.8802
   13CHL1   H7A  900   3.756  -0.483   9.747  1.4814  0.0031 -2.5847
   13CHL1   H7B  901   3.609  -0.391   9.698 -0.9730 -3.2749  4.0602
   13CHL1    C8  902   3.810  -0.311   9.645 -0.5635  0.6092 -0.5583
   13CHL1    H8  903   3.913  -0.346   9.667  0.5705  3.4282 -0.8900
   13CHL1   C14  904   3.773  -0.353   9.512 -0.0795  0.9431  0.2421
   13CHL1   H14  905   3.666  -0.328   9.493 -0.2154  0.6147  0.5676
   13CHL1   C15  906   3.762  -0.507   9.484  0.2094  0.0860 -0.2327
   13CHL1  H15A  907   3.858  -0.554   9.515 -0.6388 -2.1295 -0.7637
   13CHL1  H15B  908   3.693  -0.568   9.545  1.6097 -0.6693  0.6568
   13CHL1   C16  909   3.761  -0.521   9.329 -0.0023 -0.7205  0.5870
   13CHL1  H16A  910   3.853  -0.580   9.308  0.5625  0.4156 -0.2260
   13CHL1  H16B  911   3.675  -0.556   9.267  0.0238 -1.7592  1.1238
   13CHL1   C17  912   3.783  -0.372   9.280 -0.3930 -0.0306  0.6768
   13CHL1   H17  913   3.680  -0.330   9.281 -0.4097 -0.0378  0.0145
   13CHL1   C13  914   3.846  -0.290   9.392  0.1752 -0.6483 -0.2474
   13CHL1   C18  915   4.001  -0.317   9.396 -0.0372  0.3346 -0.8001
   13CHL1  H18A  916   4.019  -0.426   9.389 -0.3578  0.0168  2.0116
   13CHL1  H18B  917   4.048  -0.261   9.312 -0.3248  2.4540  0.3677
   13CHL1  H18C  918   4.042  -0.280   9.493 -0.2857 -1.1284 -0.1129
   13CHL1   C12  919   3.819  -0.140   9.390  0.1785 -0.4406  0.4414
   13CHL1  H12A  920   3.847  -0.098   9.292 -0.0122 -1.0334  0.1259
   13CHL1  H12B  921   3.709  -0.129   9.402  0.2453  1.2283 -0.2598
   13CHL1   C11  922   3.869  -0.080   9.523 -0.1177  0.5355 -0.3072
   13CHL1  H11A  923   3.979  -0.086   9.534 -0.2482  0.0437  0.8545
   13CHL1  H11B  924   3.833   0.025   9.528 -0.1599  0.5090 -0.0082
   13CHL1    C9  925   3.801  -0.158   9.649 -0.3364 -0.0237  0.0208
   13CHL1    H9  926   3.693  -0.134   9.634 -0.6307  0.4794  2.5617
   13CHL1   C10  927   3.829  -0.103   9.787 -1.2928 -0.0867 -0.6797
   13CHL1   C19  928   3.985  -0.085   9.808  0.5521 -0.5399  0.0572
   13CHL1  H19A  929   4.022  -0.001   9.746  4.0989 -1.2665  0.9647
   13CHL1  H19B  930   4.014  -0.068   9.914 -1.5556 -0.1928  0.6118
   13CHL1  H19C  931   4.038  -0.181   9.792  0.8210 -0.3395 -0.2597
   13CHL1    C1  932   3.770   0.036   9.799  0.1400 -0.1360  0.6554
   13CHL1   H1A  933   3.803   0.111   9.725 -1.8815 -1.2700 -1.5359
   13CHL1   H1B  934   3.662   0.035   9.775  0.4466 -0.1252 -0.8350
   13CHL1    C2  935   3.788   0.099   9.936  1.0185 -0.3915 -0.1607
   13CHL1   H2A  936   3.746   0.202   9.928  0.2488 -0.6448  0.5096
   13CHL1   H2B  937   3.894   0.123   9.959  1.9679 -1.9628 -2.6149
   13CHL1   C20  938   3.829  -0.355   9.137 -0.0516 -0.3425 -0.6741
   13CHL1   H20  939   3.889  -0.263   9.121  1.5674 -1.3253 -0.5363
   13CHL1   C21  940   3.707  -0.346   9.042  0.0820  0.2492  0.2192
   13CHL1  H21A  941   3.629  -0.424   9.056 -0.9762  1.5127  1.6431
   13CHL1  H21B  942   3.739  -0.343   8.935 -1.4160  2.5418 -0.2303
   13CHL1  H21C  943   3.656  -0.251   9.069  3.0119  1.4365  2.1473
   13CHL1   C22  944   3.936  -0.461   9.093  0.4943 -0.9716  0.9471
   13CHL1  H22A  945   4.014  -0.480   9.170  0.8099  0.1311  0.9153
   13CHL1  H22B  946   3.876  -0.552   9.071 -0.7683  0.5017 -2.2619
   13CHL1   C23  947   4.013  -0.416   8.968  0.1063 -0.2325  0.4295
   13CHL1  H23A  948   3.945  -0.392   8.884  0.1089 -1.9391 -0.1055
   13CHL1  H23B  949   4.054  -0.314   8.982  0.1732 -0.3278  0.9478
   13CHL1   C24  950   4.106  -0.518   8.904 -0.3816  1.0244  0.3181
   13CHL1  H24A  951   4.170  -0.538   8.992 -0.8627  1.7878  0.8545
   13CHL1  H24B  952   4.049  -0.607   8.869  1.1231 -0.1606  0.8016
   13CHL1   C25  953   4.186  -0.455   8.786 -0.5937 -0.0620 -0.0805
   13CHL1   H25  954   4.222  -0.352   8.809 -1.7460  0.2026  0.6192
   13CHL1   C26  955   4.311  -0.544   8.774 -0.4528  0.3333  0.2048
   13CHL1  H26A  956   4.383  -0.513   8.695  0.0577  0.1176  0.5821
   13CHL1  H26B  957   4.360  -0.556   8.873  0.2911  2.4395  0.1539
   13CHL1  H26C  958   4.290  -0.650   8.748 -0.2038  0.5965 -1.1369
   13CHL1   C27  959   4.109  -0.452   8.650  0.7150 -0.1406  0.1377
   13CHL1  H27A  960   4.091  -0.555   8.612  0.2055  0.2536 -0.6929
   13CHL1  H27B  961   4.013  -0.401   8.671  1.9326  1.6944  1.6937
   13CHL1  H27C  962   4.170  -0.397   8.575 -0.1868  0.0699 -0.4531
   14CHL1    C3  963   2.126   2.413  10.463  0.1574  0.7349  0.0772
   14CHL1    H3  964   2.108   2.305  10.446 -0.9767  0.8050  0.7549
   14CHL1    O3  965   2.123   2.424  10.605  0.3820  0.0051 -0.0927
   14CHL1   H3'  966   2.143   2.516  10.627 -1.2129 -0.1899  2.7339
   14CHL1    C4  967   2.263   2.475  10.416 -0.0270 -0.0331  0.4704
   14CHL1   H4A  968   2.278   2.573  10.466  0.0873  0.5489 -0.6674
   14CHL1   H4B  969   2.342   2.406  10.453 -0.2074  0.7205  2.3817
   14CHL1    C5  970   2.276   2.489  10.265  0.9055 -0.8219  0.1155
   14CHL1    C6  971   2.378   2.435  10.201 -0.7559  0.3543  0.2260
   14CHL1    H6  972   2.459   2.380  10.252  0.8710  0.5778 -1.9932
   14CHL1    C7  973   2.399   2.451  10.055 -1.0513  0.0830  0.2048
   14CHL1   H7A  974   2.506   2.476  10.035 -0.4313 -2.4464  0.0250
   14CHL1   H7B  975   2.395   2.355  10.000  0.8274  0.7513 -1.2321
   14CHL1    C8  976   2.305   2.549   9.982 -0.2451 -0.7250 -0.1838
   14CHL1    H8  977   2.351   2.650   9.996 -0.4592 -0.0883 -3.3954
   14CHL1   C14  978   2.303   2.529   9.834  0.3778 -0.1523  0.2068
   14CHL1   H14  979   2.267   2.425   9.820 -1.4761  0.7825 -3.0291
   14CHL1   C15  980   2.438   2.529   9.761  0.0617  0.2398 -0.5013
   14CHL1  H15A  981   2.501   2.612   9.799 -0.5348 -0.5615  2.4387
   14CHL1  H15B  982   2.505   2.443   9.781  0.2144  0.6263  0.7257
   14CHL1   C16  983   2.402   2.547   9.614 -0.8592 -0.3350 -0.3300
   14CHL1  H16A  984   2.459   2.629   9.565 -1.5413 -0.9533 -2.2812
   14CHL1  H16B  985   2.410   2.453   9.555 -1.2622 -0.4089 -0.2728
   14CHL1   C17  986   2.248   2.583   9.618  0.1535  0.5631 -0.2825
   14CHL1   H17  987   2.192   2.488   9.609 -2.7493  1.9196  1.9596
   14CHL1   C13  988   2.211   2.627   9.758 -0.1872 -0.2872  0.3553
   14CHL1   C18  989   2.260   2.772   9.783  0.9128 -0.4525  0.8761
   14CHL1  H18A  990   2.278   2.810   9.886  0.6446 -0.4665  0.9293
   14CHL1  H18B  991   2.358   2.795   9.735  1.6009  0.4541  2.6034
   14CHL1  H18C  992   2.181   2.838   9.741 -2.2256 -3.2019  2.0342
   14CHL1   C12  993   2.077   2.590   9.806  0.3415  0.5626 -0.6037
   14CHL1  H12A  994   2.000   2.646   9.750 -0.2069 -1.2341 -1.7197
   14CHL1  H12B  995   2.033   2.490   9.791 -0.0356  0.6727 -0.2409
   14CHL1   C11  996   2.076   2.622   9.957 -0.2961  0.9831  0.8450
   14CHL1  H11A  997   2.095   2.731   9.965 -0.1440  1.2926 -2.4110
   14CHL1  H11B  998   1.969   2.605   9.978 -0.3836  1.5293  0.8581
   14CHL1    C9  999   2.161   2.529  10.036  0.1028  0.4530 -1.2828
   14CHL1    H9 1000   2.129   2.425  10.013 -1.4608  0.7743 -0.6861
   14CHL1   C10 1001   2.154   2.547  10.197 -0.2938 -0.6376 -0.2958
   14CHL1   C19 1002   2.148   2.708  10.213 -0.7284 -0.1710 -0.0472
   14CHL1  H19A 1003   2.053   2.757  10.183 -0.9103 -1.5352 -1.7976
   14CHL1  H19B 1004   2.155   2.723  10.323 -1.6647 -0.3330  0.0365
   14CHL1  H19C 1005   2.236   2.762  10.171  1.0184 -2.5796  0.2837
   14CHL1    C1 1006   2.027   2.488  10.245  0.9031  0.3243 -0.2705
   14CHL1   H1A 1007   1.942   2.535  10.192 -2.1081 -1.1706  2.8289
   14CHL1   H1B 1008   2.011   2.385  10.205 -2.2778  1.8707 -3.5537
   14CHL1    C2 1009   2.009   2.492  10.400  0.3398 -0.4539  0.6138
   14CHL1   H2A 1010   1.911   2.441  10.413  0.2005 -0.8679 -1.5719
   14CHL1   H2B 1011   2.006   2.596  10.437 -0.3422 -0.0679 -0.4798
   14CHL1   C20 1012   2.199   2.666   9.495 -0.7518 -0.6791 -0.0594
   14CHL1   H20 1013   2.251   2.763   9.511  0.1401 -1.5142  2.8778
   14CHL1   C21 1014   2.046   2.693   9.511  0.2247  0.3146 -0.7970
   14CHL1  H21A 1015   2.011   2.738   9.415  0.5474  1.4807 -0.3820
   14CHL1  H21B 1016   2.025   2.771   9.586 -0.3129  0.3925 -1.0195
   14CHL1  H21C 1017   1.986   2.601   9.530  3.5906 -1.6977  0.9062
   14CHL1   C22 1018   2.230   2.604   9.358 -0.6831  0.5255 -0.4842
   14CHL1  H22A 1019   2.330   2.556   9.367 -1.1157 -0.1146  1.3092
   14CHL1  H22B 1020   2.157   2.523   9.339 -2.6181  1.8002  1.1133
   14CHL1   C23 1021   2.226   2.695   9.241  0.2291 -0.4872  0.5779
   14CHL1  H23A 1022   2.130   2.753   9.245 -0.5112 -1.5031 -1.2161
   14CHL1  H23B 1023   2.315   2.761   9.249  1.8864 -2.1357 -2.4043
   14CHL1   C24 1024   2.218   2.608   9.105 -0.1659 -0.1365 -0.6175
   14CHL1  H24A 1025   2.323   2.585   9.080  0.3703  0.7253  0.7629
   14CHL1  H24B 1026   2.156   2.517   9.120  0.2370  0.0591  3.2243
   14CHL1   C25 1027   2.170   2.700   8.991 -0.4870  0.5061  0.2657
   14CHL1   H25 1028   2.073   2.735   9.032 -0.6649 -0.0514  0.3239
   14CHL1   C26 1029   2.272   2.816   8.972  0.7886 -0.2794  0.0324
   14CHL1  H26A 1030   2.269   2.877   9.065 -2.9420 -1.7164  1.0691
   14CHL1  H26B 1031   2.374   2.777   8.950 -0.5638 -3.0944 -1.8954
   14CHL1  H26C 1032   2.247   2.885   8.888 -2.4710 -1.9457 -0.5359
   14CHL1   C27 1033   2.151   2.630   8.856 -0.3304  0.5608 -0.8930
   14CHL1  H27A 1034   2.063   2.562   8.862  0.1787 -0.0160  3.0459
   14CHL1  H27B 1035   2.145   2.696   8.767 -1.2761  0.7206 -0.7225
   14CHL1  H27C 1036   2.237   2.564   8.831 -1.2858 -0.0710 -2.6420
   15CHL1    C3 1037   0.118   2.447  10.159 -0.3354  1.1001 -0.4083
   15CHL1    H3 1038   0.220   2.418  10.124 -0.6347  1.1388 -1.3144
   15CHL1    O3 1039   0.134   2.450  10.297 -0.3554 -0.2827 -0.1091
   15CHL1   H3' 1040   0.061   2.507  10.322  0.9876  1.7783 -0.6243
   15CHL1    C4 1041   0.093   2.587  10.110  0.8584 -0.0513 -0.3047
   15CHL1   H4A 1042  -0.007   2.614  10.150  0.4434  0.4809 -1.6576
   15CHL1   H4B 1043   0.174   2.654  10.146  0.1003  1.3766 -1.2142
   15CHL1    C5 1044   0.084   2.591   9.956 -0.2021 -0.4988  0.1435
   15CHL1    C6 1045   0.150   2.678   9.884  0.3704 -0.2866 -0.1351
   15CHL1    H6 1046   0.217   2.746   9.939 -4.0852  3.6763  1.1231
   15CHL1    C7 1047   0.146   2.682   9.735 -0.3003  0.2357  0.3690
   15CHL1   H7A 1048   0.136   2.788   9.704 -2.6552  0.1008  0.5062
   15CHL1   H7B 1049   0.238   2.652   9.680 -0.4479  0.6273 -0.1039
   15CHL1    C8 1050   0.022   2.602   9.679 -1.0776  0.0643  0.3215
   15CHL1    H8 1051  -0.068   2.665   9.699  1.1418  3.2662  0.8874
   15CHL1   C14 1052   0.050   2.581   9.530  0.0952  0.6635  0.1006
   15CHL1   H14 1053   0.127   2.500   9.527  1.1622  1.4240  3.3671
   15CHL1   C15 1054   0.090   2.705   9.446  0.7848 -0.4442 -0.4477
   15CHL1  H15A 1055   0.015   2.780   9.481  1.2301 -0.6661  1.0538
   15CHL1  H15B 1056   0.195   2.739   9.458  0.1996  0.7860  1.5744
   15CHL1   C16 1057   0.047   2.670   9.297  0.0910 -0.1071 -0.0324
   15CHL1  H16A 1058  -0.016   2.756   9.267 -0.3920 -0.3465  0.2809
   15CHL1  H16B 1059   0.140   2.660   9.237 -0.1937  4.2266 -1.5623
   15CHL1   C17 1060  -0.017   2.528   9.307 -0.4167 -0.5999  0.0658
   15CHL1   H17 1061   0.068   2.456   9.303  0.0924 -0.2170  2.5034
   15CHL1   C13 1062  -0.068   2.519   9.457  0.0562 -0.2060  0.2203
   15CHL1   C18 1063  -0.194   2.593   9.468 -0.5594 -0.6504 -0.2241
   15CHL1  H18A 1064  -0.194   2.691   9.415 -1.3398  0.5313  1.8402
   15CHL1  H18B 1065  -0.273   2.528   9.424  1.4027 -2.2964 -1.5299
   15CHL1  H18C 1066  -0.225   2.624   9.570 -2.0393  1.8897 -1.3326
   15CHL1   C12 1067  -0.090   2.378   9.517 -0.1645 -0.3780 -0.9585
   15CHL1  H12A 1068  -0.182   2.323   9.487  0.0139 -0.7362 -0.8445
   15CHL1  H12B 1069  -0.004   2.312   9.495 -0.3569 -0.5383 -1.2443
   15CHL1   C11 1070  -0.115   2.395   9.672  0.8379 -0.4006 -1.0307
   15CHL1  H11A 1071  -0.213   2.447   9.674  0.2585 -1.4794 -0.2643
   15CHL1  H11B 1072  -0.127   2.289   9.704 -1.2825 -0.3612 -1.5020
   15CHL1    C9 1073  -0.004   2.466   9.746 -0.2066 -0.4709 -0.6609
   15CHL1    H9 1074   0.087   2.403   9.729  0.2932  0.4626 -1.5803
   15CHL1   C10 1075  -0.018   2.479   9.901 -1.7211 -0.2721  0.4671
   15CHL1   C19 1076  -0.158   2.533   9.930  0.0246 -0.5277 -0.0728
   15CHL1  H19A 1077  -0.244   2.471   9.895  0.3785 -0.8981 -0.2884
   15CHL1  H19B 1078  -0.181   2.557  10.036 -1.6387 -0.2761 -0.4568
   15CHL1  H19C 1079  -0.170   2.634   9.885 -0.5277  0.2492  1.7219
   15CHL1    C1 1080   0.008   2.343   9.970  0.3272  0.1101  0.4245
   15CHL1   H1A 1081  -0.063   2.261   9.947  2.3087 -1.4612 -0.4278
   15CHL1   H1B 1082   0.105   2.303   9.934  0.2162  1.0797 -1.0368
   15CHL1    C2 1083   0.012   2.342  10.118  0.7620  0.4415 -0.9152
   15CHL1   H2A 1084   0.021   2.243  10.169  3.5197  1.3631  0.5838
   15CHL1   H2B 1085  -0.090   2.375  10.149  0.5224 -0.4437 -0.7088
   15CHL1   C20 1086  -0.119   2.500   9.196  0.0270 -0.1477  0.5907
   15CHL1   H20 1087  -0.208   2.566   9.205  0.2489  0.1640  0.5228
   15CHL1   C21 1088  -0.164   2.352   9.191  0.3586 -0.9379  0.2861
   15CHL1  H21A 1089  -0.201   2.325   9.292 -1.0748 -0.0102  0.0377
   15CHL1  H21B 1090  -0.091   2.278   9.151  0.6574 -0.9640  0.8604
   15CHL1  H21C 1091  -0.252   2.366   9.125 -0.4467  1.6524  1.7651
   15CHL1   C22 1092  -0.056   2.544   9.060 -0.3777  0.4567  0.7380
   15CHL1  H22A 1093  -0.032   2.652   9.063  3.8219 -0.3239  0.5113
   15CHL1  H22B 1094   0.038   2.485   9.063  0.0337  1.1101  0.7111
   15CHL1   C23 1095  -0.135   2.507   8.932  0.8136 -0.6266  0.2240
   15CHL1  H23A 1096  -0.152   2.397   8.924 -1.1687 -0.5077  1.8610
   15CHL1  H23B 1097  -0.233   2.561   8.931 -0.1017 -2.2141 -0.7696
   15CHL1   C24 1098  -0.051   2.549   8.809 -0.0252  0.2715 -0.1685
   15CHL1  H24A 1099  -0.017   2.649   8.843  0.2940 -0.2454  1.0960
   15CHL1  H24B 1100   0.029   2.472   8.801 -1.1557 -0.9348 -0.2120
   15CHL1   C25 1101  -0.127   2.536   8.677 -0.5879 -0.6255 -0.5074
   15CHL1   H25 1102  -0.204   2.617   8.683  2.3062  2.2611  0.4551
   15CHL1   C26 1103  -0.039   2.555   8.550  0.1912 -0.5649 -0.2813
   15CHL1  H26A 1104   0.046   2.485   8.545  1.7881  1.2891 -0.3888
   15CHL1  H26B 1105  -0.096   2.546   8.455  1.8934 -1.7744 -1.2267
   15CHL1  H26C 1106   0.009   2.655   8.541 -2.4598  0.7386 -1.0723
   15CHL1   C27 1107  -0.213   2.407   8.653 -0.1179 -0.2004  0.4746
   15CHL1  H27A 1108  -0.254   2.424   8.550 -0.9914  0.4286  0.9118
   15CHL1  H27B 1109  -0.139   2.327   8.636  0.7484  1.0368 -2.2046
   15CHL1  H27C 1110  -0.287   2.379   8.731  0.1306  1.6281  1.4295
   16CHL1    C3 1111   6.534   0.440  10.163 -0.7010 -0.5909  0.5984
   16CHL1    H3 1112   6.474   0.366  10.105 -1.6118 -0.4700  1.3616
   16CHL1    O3 1113   6.509   0.428  10.296 -0.6159  0.4484  0.0887
   16CHL1   H3' 1114   6.560   0.507  10.317  1.6463 -1.0510  0.5073
   16CHL1    C4 1115   6.686   0.422  10.139  0.2177 -0.6855  0.6012
   16CHL1   H4A 1116   6.730   0.504  10.200 -1.1739  0.0821  0.6103
   16CHL1   H4B 1117   6.715   0.326  10.187 -2.3015 -1.6954  0.2647
   16CHL1    C5 1118   6.720   0.453   9.994 -0.1339 -0.7166  0.5559
   16CHL1    C6 1119   6.772   0.355   9.919  0.0093  0.1094 -0.4730
   16CHL1    H6 1120   6.780   0.256   9.967  0.5315  0.6619  0.6021
   16CHL1    C7 1121   6.813   0.368   9.773 -0.5326  0.4705 -0.1502
   16CHL1   H7A 1122   6.916   0.327   9.757 -0.7275 -0.2480  0.3869
   16CHL1   H7B 1123   6.750   0.313   9.701  0.2254  0.4325 -0.7969
   16CHL1    C8 1124   6.824   0.518   9.734  0.2504  0.0204 -0.7021
   16CHL1    H8 1125   6.916   0.568   9.771 -1.6459  2.0469  1.6444
   16CHL1   C14 1126   6.813   0.522   9.583 -0.7415  0.3619 -0.5205
   16CHL1   H14 1127   6.719   0.465   9.566 -0.8883  0.0346  1.1846
   16CHL1   C15 1128   6.921   0.456   9.504 -1.0531 -0.7141  0.5504
   16CHL1  H15A 1129   7.022   0.503   9.515 -1.8664  1.8338 -1.6602
   16CHL1  H15B 1130   6.931   0.347   9.517 -1.3986 -0.5357  2.6556
   16CHL1   C16 1131   6.878   0.505   9.361 -0.1383  0.0929  0.9970
   16CHL1  H16A 1132   6.956   0.502   9.282 -1.5253 -0.1792 -0.4086
   16CHL1  H16B 1133   6.812   0.424   9.324 -1.9868  2.2165 -0.6036
   16CHL1   C17 1134   6.794   0.637   9.374  0.0640  0.0055  0.1565
   16CHL1   H17 1135   6.688   0.608   9.353  0.1252 -1.9968  2.1428
   16CHL1   C13 1136   6.797   0.664   9.527  0.1271 -0.3315 -0.0660
   16CHL1   C18 1137   6.922   0.743   9.569 -0.6709  1.0898  0.0371
   16CHL1  H18A 1138   6.945   0.742   9.678 -0.7208 -0.4196  0.0541
   16CHL1  H18B 1139   7.011   0.701   9.519 -0.6907 -0.7540  1.4609
   16CHL1  H18C 1140   6.920   0.849   9.535 -0.8819  0.6950 -1.2307
   16CHL1   C12 1141   6.667   0.731   9.569  0.1230  0.2689 -0.6562
   16CHL1  H12A 1142   6.661   0.835   9.532  0.4153  0.3585 -0.4604
   16CHL1  H12B 1143   6.584   0.663   9.541 -0.6417  1.0204 -0.2514
   16CHL1   C11 1144   6.665   0.742   9.723 -0.8182 -0.1597 -0.1124
   16CHL1  H11A 1145   6.750   0.805   9.757  1.1700 -2.0531 -1.2400
   16CHL1  H11B 1146   6.573   0.796   9.755 -0.4841 -0.3022  1.1271
   16CHL1    C9 1147   6.700   0.599   9.789 -0.0672 -0.1062  0.5534
   16CHL1    H9 1148   6.619   0.536   9.747  0.8175 -1.7757  1.2475
   16CHL1   C10 1149   6.687   0.590   9.937 -0.2488 -0.2933  0.3494
   16CHL1   C19 1150   6.786   0.700   9.996  0.3005  0.3756 -0.0392
   16CHL1  H19A 1151   6.794   0.687  10.106  1.5002  4.0070  0.4334
   16CHL1  H19B 1152   6.893   0.680   9.977  0.5156 -1.3008  2.4742
   16CHL1  H19C 1153   6.758   0.805   9.971 -2.0754  0.0906  1.0817
   16CHL1    C1 1154   6.540   0.622   9.983 -0.0191  0.1386 -0.0493
   16CHL1   H1A 1155   6.514   0.729   9.969  1.2640  0.4528 -0.0774
   16CHL1   H1B 1156   6.464   0.571   9.919 -0.5119  0.6048  0.1521
   16CHL1    C2 1157   6.496   0.591  10.126  0.0348 -0.4684  1.3068
   16CHL1   H2A 1158   6.388   0.610  10.141 -0.4937 -1.8799 -0.3916
   16CHL1   H2B 1159   6.552   0.661  10.192  1.4526 -0.9643  0.6790
   16CHL1   C20 1160   6.833   0.749   9.279 -0.4542  0.3815  0.0825
   16CHL1   H20 1161   6.923   0.803   9.317 -0.3588 -0.5847  1.3009
   16CHL1   C21 1162   6.725   0.856   9.263 -0.4473  0.0295  0.1218
   16CHL1  H21A 1163   6.728   0.917   9.355 -0.7540 -1.3390  1.0594
   16CHL1  H21B 1164   6.621   0.818   9.249 -0.4947  0.1830  0.0547
   16CHL1  H21C 1165   6.737   0.937   9.187 -1.0874 -0.8983 -1.0116
   16CHL1   C22 1166   6.872   0.692   9.143  0.2404 -0.2512 -0.2783
   16CHL1  H22A 1167   6.969   0.639   9.151  0.8234  0.6652 -1.1113
   16CHL1  H22B 1168   6.803   0.612   9.107  2.2272 -1.9585 -0.5206
   16CHL1   C23 1169   6.895   0.786   9.021  0.2146 -0.0049  0.7253
   16CHL1  H23A 1170   6.937   0.727   8.936  0.6263  0.1984  0.7863
   16CHL1  H23B 1171   6.801   0.832   8.983  0.4219 -0.4061 -0.3268
   16CHL1   C24 1172   6.995   0.902   9.055  0.2193  0.1501  0.0241
   16CHL1  H24A 1173   6.967   0.953   9.150  2.1293  2.2913 -0.4587
   16CHL1  H24B 1174   7.096   0.859   9.068 -0.0749 -0.9343 -1.0935
   16CHL1   C25 1175   7.003   1.018   8.945 -0.0050  0.4074  0.2113
   16CHL1   H25 1176   7.077   1.092   8.985  0.6888  0.3828 -0.9783
   16CHL1   C26 1177   7.060   0.970   8.812  0.0439 -0.0372 -0.7672
   16CHL1  H26A 1178   7.018   0.874   8.775  0.5456 -1.1120  1.2557
   16CHL1  H26B 1179   7.048   1.047   8.734  0.1203 -1.1966 -1.9554
   16CHL1  H26C 1180   7.167   0.939   8.824 -0.6242 -2.1787  0.1600
   16CHL1   C27 1181   6.870   1.096   8.940  0.4048 -0.3937  0.1977
   16CHL1  H27A 1182   6.805   1.036   8.873  1.2397 -1.3231  0.1880
   16CHL1  H27B 1183   6.826   1.112   9.041 -2.5966 -0.8767 -0.9270
   16CHL1  H27C 1184   6.891   1.195   8.895  2.3848 -0.7818  0.1469
   17CHL1    C3 1185   3.642   3.392  10.385  0.0333 -0.1237 -0.7372
   17CHL1    H3 1186   3.597   3.481  10.335 -2.4645  1.6671  4.0465
   17CHL1    O3 1187   3.593   3.401  10.524  0.3740  0.2196  0.3646
   17CHL1   H3' 1188   3.604   3.314  10.562  1.0815 -0.8800 -2.1295
   17CHL1    C4 1189   3.599   3.258  10.323  0.1033 -0.2448  0.1826
   17CHL1   H4A 1190   3.656   3.190  10.390 -0.5133 -1.5968 -0.6273
   17CHL1   H4B 1191   3.490   3.241  10.339 -0.2028  0.2889 -1.1879
   17CHL1    C5 1192   3.641   3.239  10.177 -0.1772  0.0961 -0.3348
   17CHL1    C6 1193   3.555   3.205  10.078 -0.2062 -0.3957  0.3971
   17CHL1    H6 1194   3.450   3.182  10.103  0.0530 -2.5843 -0.2663
   17CHL1    C7 1195   3.585   3.187   9.926  0.3058  0.6743  0.4762
   17CHL1   H7A 1196   3.542   3.090   9.891  2.7534 -0.6845  0.9775
   17CHL1   H7B 1197   3.538   3.272   9.872  0.5075  1.5189  1.6043
   17CHL1    C8 1198   3.736   3.180   9.898 -0.3082 -0.3441 -0.3080
   17CHL1    H8 1199   3.767   3.079   9.931  0.6921  0.4383  1.2730
   17CHL1   C14 1200   3.758   3.206   9.748  0.2021 -0.3341  0.3146
   17CHL1   H14 1201   3.716   3.307   9.732 -0.3581 -0.6088  0.0021
   17CHL1   C15 1202   3.685   3.118   9.641 -0.4587  0.5311  0.5732
   17CHL1  H15A 1203   3.688   3.012   9.675 -1.4392  0.6740  1.1459
   17CHL1  H15B 1204   3.579   3.140   9.616 -1.1122 -1.0741  1.7257
   17CHL1   C16 1205   3.768   3.135   9.514 -1.0203  1.1136  0.0092
   17CHL1  H16A 1206   3.821   3.038   9.497 -0.8543  1.1278  0.4327
   17CHL1  H16B 1207   3.711   3.157   9.421 -2.7311 -1.4717  0.3472
   17CHL1   C17 1208   3.879   3.236   9.548 -0.3191 -0.3120  0.5395
   17CHL1   H17 1209   3.833   3.335   9.531 -0.1496 -0.8443 -4.2578
   17CHL1   C13 1210   3.902   3.226   9.705  0.8993 -0.1082  0.1917
   17CHL1   C18 1211   3.975   3.090   9.739  0.7791  0.2795 -0.2025
   17CHL1  H18A 1212   4.086   3.098   9.736  0.7329  0.5672 -2.5760
   17CHL1  H18B 1213   3.956   3.067   9.846 -0.8879  2.1592 -0.0413
   17CHL1  H18C 1214   3.942   3.008   9.673 -0.3304 -1.1664  2.0226
   17CHL1   C12 1215   3.952   3.346   9.785  0.0129 -0.4386  0.0406
   17CHL1  H12A 1216   4.055   3.369   9.752  0.4573 -1.8385  0.3966
   17CHL1  H12B 1217   3.879   3.428   9.767 -1.1873 -1.1815  1.3258
   17CHL1   C11 1218   3.945   3.318   9.937 -0.3379  0.0590  0.8139
   17CHL1  H11A 1219   4.016   3.235   9.958  1.7813  0.6422 -3.1600
   17CHL1  H11B 1220   3.984   3.413   9.978  0.5241  0.0878 -0.0193
   17CHL1    C9 1221   3.799   3.290   9.982  0.6555 -0.6975  0.4914
   17CHL1    H9 1222   3.739   3.382   9.967  0.2710 -0.8868  0.8587
   17CHL1   C10 1223   3.785   3.269  10.141  0.4250 -0.2088  0.5807
   17CHL1   C19 1224   3.882   3.153  10.184  0.0789 -0.2845  0.1600
   17CHL1  H19A 1225   3.984   3.183  10.151 -0.1498 -2.0189 -2.4526
   17CHL1  H19B 1226   3.873   3.135  10.293  1.8159  0.6212  0.4981
   17CHL1  H19C 1227   3.855   3.063  10.125  0.0470  0.0528 -0.3479
   17CHL1    C1 1228   3.825   3.405  10.219 -0.4116  0.8796 -0.4623
   17CHL1   H1A 1229   3.934   3.416  10.199 -0.1288  1.9170  1.4242
   17CHL1   H1B 1230   3.765   3.484  10.167 -1.2170  0.7425  0.2419
   17CHL1    C2 1231   3.792   3.404  10.367  0.2425  0.0111 -0.1795
   17CHL1   H2A 1232   3.825   3.500  10.412 -0.1219  1.0274 -1.9767
   17CHL1   H2B 1233   3.840   3.326  10.429 -0.1921  0.4047  0.6809
   17CHL1   C20 1234   4.006   3.231   9.454 -0.3167  0.6163  0.2415
   17CHL1   H20 1235   4.059   3.136   9.478  2.8314  2.2661  0.2736
   17CHL1   C21 1236   4.087   3.351   9.495 -0.2627  0.3695  0.6132
   17CHL1  H21A 1237   4.034   3.438   9.539 -0.3155  0.7108 -0.1025
   17CHL1  H21B 1238   4.140   3.393   9.407 -1.5803 -1.0089 -0.9052
   17CHL1  H21C 1239   4.168   3.325   9.567  0.6171 -0.7208 -0.7128
   17CHL1   C22 1240   3.971   3.233   9.297 -0.5810 -0.2312 -0.2649
   17CHL1  H22A 1241   3.882   3.167   9.289  0.9686 -2.5497  0.6325
   17CHL1  H22B 1242   3.948   3.339   9.274 -0.7190  0.2056  1.6863
   17CHL1   C23 1243   4.076   3.174   9.207  0.0098 -1.1573 -0.0472
   17CHL1  H23A 1244   4.173   3.219   9.235 -0.0594 -1.4193  0.6264
   17CHL1  H23B 1245   4.089   3.064   9.217 -1.1780 -1.2740  0.4531
   17CHL1   C24 1246   4.029   3.208   9.061  0.0652  0.2388  0.3730
   17CHL1  H24A 1247   4.039   3.316   9.041  1.2610  0.5621  2.3997
   17CHL1  H24B 1248   4.108   3.160   8.999  1.3331  2.3510  0.2873
   17CHL1   C25 1249   3.884   3.151   9.036  0.2880 -1.0506  0.2578
   17CHL1   H25 1250   3.825   3.219   9.101  0.0966 -0.6499 -0.3211
   17CHL1   C26 1251   3.857   3.175   8.879  0.3065  0.4375  0.0693
   17CHL1  H26A 1252   3.926   3.117   8.813  0.3176  1.3944 -0.7832
   17CHL1  H26B 1253   3.757   3.131   8.860  1.3961 -1.9548 -0.5470
   17CHL1  H26C 1254   3.852   3.284   8.858  0.8422  0.7570  1.4624
   17CHL1   C27 1255   3.855   3.009   9.072  0.1073  0.1140 -0.3549
   17CHL1  H27A 1256   3.858   2.989   9.182 -0.8670 -1.5702 -0.6078
   17CHL1  H27B 1257   3.749   2.992   9.045 -0.1545  0.9762  0.0867
   17CHL1  H27C 1258   3.928   2.940   9.025 -0.3449  0.5838 -1.7718
   18CHL1    C3 1259   3.939   4.801  10.024 -0.0223 -0.0648 -0.0392
   18CHL1    H3 1260   3.876   4.891  10.011 -3.5443 -2.1306  1.2321
   18CHL1    O3 1261   3.963   4.767  10.159  0.4737  0.3248 -0.2370
   18CHL1   H3' 1262   3.880   4.773  10.207  0.1284  0.7351 -0.8636
   18CHL1    C4 1263   3.864   4.677   9.966 -0.9179 -0.2406  0.5338
   18CHL1   H4A 1264   3.935   4.592   9.977 -1.5186 -1.3701 -2.9389
   18CHL1   H4B 1265   3.771   4.650  10.020 -0.4301 -1.1945  0.9159
   18CHL1    C5 1266   3.839   4.695   9.818  0.6249 -0.3163 -0.5195
   18CHL1    C6 1267   3.713   4.690   9.769 -0.2202  0.9464  0.4609
   18CHL1    H6 1268   3.624   4.663   9.828 -1.2499  2.0547 -0.5289
   18CHL1    C7 1269   3.676   4.706   9.625  0.0832 -0.2905  0.1206
   18CHL1   H7A 1270   3.596   4.631   9.608 -1.9340  0.9653  3.1059
   18CHL1   H7B 1271   3.617   4.799   9.606  1.4573  0.3335 -1.3265
   18CHL1    C8 1272   3.799   4.713   9.525 -0.0742 -0.2297  0.0630
   18CHL1    H8 1273   3.837   4.609   9.515  0.9369  0.0687  0.7610
   18CHL1   C14 1274   3.768   4.763   9.388  0.4621  0.2729 -0.1795
   18CHL1   H14 1275   3.728   4.867   9.391 -2.1655 -0.6418  2.7985
   18CHL1   C15 1276   3.655   4.683   9.313 -0.7998  0.0077 -0.7406
   18CHL1  H15A 1277   3.679   4.574   9.314  3.1708  0.7280  0.6135
   18CHL1  H15B 1278   3.551   4.702   9.347 -1.3547 -1.0425 -1.7797
   18CHL1   C16 1279   3.668   4.741   9.170  0.1614  0.7876 -0.5082
   18CHL1  H16A 1280   3.647   4.658   9.100 -0.2092 -0.0920  0.6098
   18CHL1  H16B 1281   3.580   4.805   9.147  0.2217  0.1511 -2.6963
   18CHL1   C17 1282   3.811   4.805   9.164 -0.1386 -0.5373  0.2261
   18CHL1   H17 1283   3.792   4.914   9.174 -2.4760 -0.8592 -0.0853
   18CHL1   C13 1284   3.885   4.757   9.295  0.3271 -0.4517  0.0628
   18CHL1   C18 1285   3.947   4.620   9.277  0.2184  0.1123 -0.0255
   18CHL1  H18A 1286   4.033   4.609   9.208  0.6297 -1.0866  0.6408
   18CHL1  H18B 1287   3.988   4.570   9.368  1.0410 -1.4240 -1.1849
   18CHL1  H18C 1288   3.880   4.544   9.231 -0.5843 -0.2182  1.6073
   18CHL1   C12 1289   3.988   4.852   9.351  0.0946  1.0327  0.4168
   18CHL1  H12A 1290   4.073   4.857   9.279  0.4038  1.1564  0.7875
   18CHL1  H12B 1291   3.948   4.955   9.363 -0.7855  0.9110 -1.1849
   18CHL1   C11 1292   4.035   4.808   9.490 -0.0815 -0.6298 -0.3443
   18CHL1  H11A 1293   4.086   4.710   9.474 -0.3895 -0.8779  0.1817
   18CHL1  H11B 1294   4.109   4.883   9.524  0.2069  0.1123 -2.4666
   18CHL1    C9 1295   3.917   4.786   9.588 -0.1656 -0.2799  0.1660
   18CHL1    H9 1296   3.884   4.889   9.611 -0.7325 -0.7584  1.6115
   18CHL1   C10 1297   3.960   4.723   9.735  0.4095 -0.2452 -0.2787
   18CHL1   C19 1298   4.039   4.591   9.719 -0.5801 -0.2208  0.8345
   18CHL1  H19A 1299   3.973   4.506   9.692 -1.1925 -0.5474  3.1036
   18CHL1  H19B 1300   4.116   4.597   9.640  0.5882 -2.5170  1.7253
   18CHL1  H19C 1301   4.086   4.561   9.815  1.8802  0.1112 -0.1920
   18CHL1    C1 1302   4.048   4.830   9.806  0.6961  0.3161 -0.2888
   18CHL1   H1A 1303   4.140   4.847   9.746  1.0625 -2.5779 -0.7094
   18CHL1   H1B 1304   4.002   4.931   9.810  1.7113  0.8013 -0.3633
   18CHL1    C2 1305   4.073   4.808   9.956 -0.2931  0.0141  0.0707
   18CHL1   H2A 1306   4.123   4.900   9.993 -1.5858  0.6725  0.2375
   18CHL1   H2B 1307   4.141   4.724   9.980  0.6756  0.3937 -1.2108
   18CHL1   C20 1308   3.871   4.771   9.025  0.2648 -0.0045  0.4344
   18CHL1   H20 1309   3.877   4.661   9.012  0.4591 -0.2426  2.2522
   18CHL1   C21 1310   4.013   4.825   9.028 -0.5019  0.4496 -0.3895
   18CHL1  H21A 1311   4.022   4.922   9.080  1.4323 -0.1128  0.4404
   18CHL1  H21B 1312   4.058   4.835   8.927  1.6721  0.1703  0.4924
   18CHL1  H21C 1313   4.078   4.748   9.075 -0.6009 -0.5543 -1.8451
   18CHL1   C22 1314   3.790   4.835   8.900 -0.3168 -0.0120 -0.3800
   18CHL1  H22A 1315   3.683   4.808   8.913  0.0902 -0.6479  2.1996
   18CHL1  H22B 1316   3.779   4.944   8.919  2.1071 -0.1219  2.2790
   18CHL1   C23 1317   3.840   4.803   8.762 -0.1315 -0.5738  0.2757
   18CHL1  H23A 1318   3.941   4.843   8.739 -0.0915 -1.9788 -2.4271
   18CHL1  H23B 1319   3.846   4.692   8.759  3.2578 -0.5167 -3.0885
   18CHL1   C24 1320   3.739   4.841   8.649  0.0893  0.0032 -0.2984
   18CHL1  H24A 1321   3.637   4.808   8.675  0.3572  0.0248  0.8430
   18CHL1  H24B 1322   3.744   4.951   8.637  0.4686  0.2249  1.5830
   18CHL1   C25 1323   3.770   4.774   8.513 -0.2401  0.2557  0.2332
   18CHL1   H25 1324   3.800   4.668   8.532 -0.0143  0.4179  0.8029
   18CHL1   C26 1325   3.645   4.752   8.432  1.0895  0.3040  0.1357
   18CHL1  H26A 1326   3.652   4.725   8.325 -2.2946  1.9081 -0.6261
   18CHL1  H26B 1327   3.587   4.676   8.489  2.2936 -1.7974 -1.3356
   18CHL1  H26C 1328   3.577   4.840   8.426 -0.7451 -0.9700  1.1091
   18CHL1   C27 1329   3.877   4.847   8.435  0.0860  0.0730  0.0190
   18CHL1  H27A 1330   3.842   4.951   8.414  0.0728  0.2017  0.6610
   18CHL1  H27B 1331   3.964   4.861   8.502  1.6518 -1.1950 -1.6497
   18CHL1  H27C 1332   3.911   4.789   8.346  0.0189  0.8040 -0.5003
   19CHL1    C3 1333   3.985   5.323  10.170 -0.0435 -0.1375  0.3441
   19CHL1    H3 1334   4.095   5.321  10.163 -0.0980 -0.7835 -0.4511
   19CHL1    O3 1335   3.958   5.307  10.309 -0.2877 -0.5175 -0.2613
   19CHL1   H3' 1336   3.865   5.310  10.328  0.3278  0.6568  3.1508
   19CHL1    C4 1337   3.926   5.460  10.120 -1.0968 -0.1986 -0.1999
   19CHL1   H4A 1338   3.819   5.462  10.151 -0.1162 -0.5964  3.7138
   19CHL1   H4B 1339   3.977   5.543  10.173 -1.5608  0.1808 -0.3421
   19CHL1    C5 1340   3.957   5.464   9.970  0.3185  1.1219  0.3521
   19CHL1    C6 1341   4.035   5.552   9.915 -1.3638 -0.2728 -0.2042
   19CHL1    H6 1342   4.092   5.621   9.980 -1.5923 -1.1776  0.9821
   19CHL1    C7 1343   4.055   5.563   9.765 -0.5860 -0.2416  0.4199
   19CHL1   H7A 1344   4.041   5.669   9.738  0.2602 -0.6333 -1.8034
   19CHL1   H7B 1345   4.160   5.539   9.736 -0.1157  0.2144  1.6845
   19CHL1    C8 1346   3.960   5.481   9.671 -0.1389  0.4870  0.6745
   19CHL1    H8 1347   3.863   5.532   9.653 -0.8177 -0.3753  1.7538
   19CHL1   C14 1348   4.018   5.453   9.532 -0.5354  0.1166 -0.5607
   19CHL1   H14 1349   4.118   5.409   9.553 -0.4482  1.5185  2.4122
   19CHL1   C15 1350   4.064   5.576   9.454  0.4312  0.1451  0.1548
   19CHL1  H15A 1351   3.976   5.642   9.445 -0.6174 -1.3453 -1.0142
   19CHL1  H15B 1352   4.153   5.630   9.494  1.1233  0.3210 -1.5352
   19CHL1   C16 1353   4.093   5.509   9.314 -0.1439 -0.2841 -0.0551
   19CHL1  H16A 1354   4.040   5.579   9.246  1.2288  0.8498 -0.0167
   19CHL1  H16B 1355   4.202   5.506   9.289  0.3231 -1.0811  1.8843
   19CHL1   C17 1356   4.028   5.370   9.309  0.8447  0.3586 -0.2217
   19CHL1   H17 1357   4.108   5.298   9.338  2.5354  2.1531 -0.2242
   19CHL1   C13 1358   3.936   5.364   9.434  0.2683 -0.4678 -0.0656
   19CHL1   C18 1359   3.800   5.436   9.406 -0.1570 -0.4083 -0.2816
   19CHL1  H18A 1360   3.743   5.468   9.496  1.4981  2.3761 -0.0927
   19CHL1  H18B 1361   3.811   5.531   9.351  0.0535  0.9390  1.9370
   19CHL1  H18C 1362   3.732   5.374   9.344 -0.6798  2.2201 -2.5345
   19CHL1   C12 1363   3.907   5.232   9.504 -0.0721  0.1692 -0.1889
   19CHL1  H12A 1364   3.839   5.162   9.452 -0.4336 -0.4618  1.0880
   19CHL1  H12B 1365   4.006   5.181   9.505  1.8159  3.1919 -3.9726
   19CHL1   C11 1366   3.851   5.249   9.650  0.2947  0.1016  0.6576
   19CHL1  H11A 1367   3.749   5.292   9.642 -0.2939 -0.7291  3.1243
   19CHL1  H11B 1368   3.841   5.149   9.696 -0.0861 -0.8486 -1.3798
   19CHL1    C9 1369   3.939   5.343   9.733 -0.0123  0.3850 -0.0259
   19CHL1    H9 1370   4.036   5.290   9.747 -0.5549 -0.2543  1.5234
   19CHL1   C10 1371   3.898   5.350   9.889 -0.2671  0.0077  0.0406
   19CHL1   C19 1372   3.745   5.373   9.894 -0.2233  0.1779 -0.1017
   19CHL1  H19A 1373   3.731   5.478   9.860  0.7759  0.2255 -0.3875
   19CHL1  H19B 1374   3.681   5.299   9.841  1.2163 -0.1336 -1.5118
   19CHL1  H19C 1375   3.706   5.367   9.997 -2.0069 -0.2232 -0.7614
   19CHL1    C1 1376   3.949   5.208   9.948  0.2968 -0.7011  0.4563
   19CHL1   H1A 1377   3.888   5.132   9.895  0.3787 -1.1111  0.9469
   19CHL1   H1B 1378   4.054   5.195   9.915  0.4485  0.1657  0.5701
   19CHL1    C2 1379   3.925   5.199  10.094 -0.2027 -0.1953  0.0442
   19CHL1   H2A 1380   3.966   5.106  10.138 -0.9838 -1.1347 -1.1533
   19CHL1   H2B 1381   3.816   5.204  10.117 -0.4621  1.9299 -1.2803
   19CHL1   C20 1382   3.972   5.332   9.175 -0.6890  0.2002 -0.0272
   19CHL1   H20 1383   3.902   5.413   9.145 -0.5221  0.3124 -0.1118
   19CHL1   C21 1384   3.893   5.194   9.183  0.0348  0.6254 -0.3919
   19CHL1  H21A 1385   3.808   5.197   9.255 -0.4719 -0.3644 -0.9407
   19CHL1  H21B 1386   3.958   5.107   9.209 -0.4529 -0.1803 -1.7933
   19CHL1  H21C 1387   3.849   5.180   9.083  2.1822  0.1946 -1.3458
   19CHL1   C22 1388   4.087   5.324   9.065  0.2849 -0.6121  0.6688
   19CHL1  H22A 1389   4.159   5.408   9.071  0.7129 -1.0838  3.1049
   19CHL1  H22B 1390   4.142   5.229   9.084 -1.1570 -1.9137 -1.2016
   19CHL1   C23 1391   4.048   5.320   8.921  0.1859 -0.0759 -0.1838
   19CHL1  H23A 1392   3.981   5.231   8.919  1.2442 -0.9459  1.2667
   19CHL1  H23B 1393   4.001   5.412   8.880  0.4571 -0.3712 -1.1699
   19CHL1   C24 1394   4.172   5.301   8.831  0.8701  0.4741  0.5113
   19CHL1  H24A 1395   4.238   5.389   8.839  2.3293 -0.5097 -0.3444
   19CHL1  H24B 1396   4.233   5.218   8.874  0.1475  1.0727  2.8489
   19CHL1   C25 1397   4.133   5.268   8.685 -0.3762  0.8689 -0.2067
   19CHL1   H25 1398   4.233   5.246   8.642 -0.2561  0.1649  0.4185
   19CHL1   C26 1399   4.057   5.137   8.679  0.0580  0.6980 -0.1575
   19CHL1  H26A 1400   4.043   5.093   8.578 -0.4013 -2.3110  1.1190
   19CHL1  H26B 1401   4.105   5.054   8.736 -0.2064  1.4881  1.2566
   19CHL1  H26C 1402   3.961   5.153   8.733  0.9744 -1.2770  2.2579
   19CHL1   C27 1403   4.070   5.384   8.614 -0.2909  0.1768 -0.1587
   19CHL1  H27A 1404   3.975   5.412   8.664  0.2050 -0.7531  1.3784
   19CHL1  H27B 1405   4.143   5.469   8.616  0.6323 -0.6117  1.2587
   19CHL1  H27C 1406   4.055   5.347   8.511 -0.8545  0.5153 -0.2024
   20CHL1    C3 1407   0.984   2.386  10.223  0.3368  0.2221 -0.1432
   20CHL1    H3 1408   0.914   2.322  10.166  2.1636  0.6987 -3.1382
   20CHL1    O3 1409   0.949   2.373  10.360 -0.1676 -0.1532 -0.2068
   20CHL1   H3' 1410   0.899   2.292  10.351  0.6956 -0.6306 -0.8169
   20CHL1    C4 1411   1.130   2.350  10.193 -0.0864  0.3644 -0.5110
   20CHL1   H4A 1412   1.208   2.413  10.241 -2.6494  1.3691  2.6579
   20CHL1   H4B 1413   1.163   2.246  10.216  0.7384  0.7968  0.2678
   20CHL1    C5 1414   1.147   2.353  10.041  0.3513 -0.4319 -0.2629
   20CHL1    C6 1415   1.171   2.243   9.970  0.1970  0.1762 -0.2432
   20CHL1    H6 1416   1.177   2.146  10.021 -1.2902  0.7098  1.0495
   20CHL1    C7 1417   1.184   2.238   9.822  0.5841 -0.4609  1.2947
   20CHL1   H7A 1418   1.266   2.172   9.786 -2.6003 -2.9662 -2.2266
   20CHL1   H7B 1419   1.094   2.185   9.781  1.1878 -1.8501  1.7029
   20CHL1    C8 1420   1.197   2.377   9.755  0.1994 -0.0616 -0.2409
   20CHL1    H8 1421   1.297   2.421   9.779 -0.1751  1.5084 -1.3691
   20CHL1   C14 1422   1.175   2.371   9.599  0.4247  0.3980  0.1120
   20CHL1   H14 1423   1.072   2.336   9.574  0.9816 -1.8278  0.7603
   20CHL1   C15 1424   1.256   2.266   9.517  0.9602 -0.4925 -0.3011
   20CHL1  H15A 1425   1.359   2.257   9.559  0.4497 -0.7091  0.9500
   20CHL1  H15B 1426   1.220   2.163   9.534 -2.5559  1.0761  3.1461
   20CHL1   C16 1427   1.242   2.322   9.375 -0.7056  0.0303 -0.3807
   20CHL1  H16A 1428   1.343   2.323   9.329 -0.3021 -3.6181  0.1754
   20CHL1  H16B 1429   1.192   2.242   9.316 -2.5779  0.1493  0.9266
   20CHL1   C17 1430   1.161   2.458   9.373 -0.2073  0.0255  0.4507
   20CHL1   H17 1431   1.055   2.425   9.362  0.1877 -1.3390  0.5064
   20CHL1   C13 1432   1.187   2.507   9.522 -0.4041 -0.3612 -0.3687
   20CHL1   C18 1433   1.329   2.569   9.525 -0.3147  0.2126 -0.3155
   20CHL1  H18A 1434   1.371   2.584   9.627  1.0405  1.0080 -0.9643
   20CHL1  H18B 1435   1.401   2.505   9.470  0.5493 -0.3585  1.4048
   20CHL1  H18C 1436   1.326   2.671   9.480  0.0543  0.5899  0.5073
   20CHL1   C12 1437   1.082   2.600   9.586 -0.7256  0.2525  0.3086
   20CHL1  H12A 1438   1.090   2.699   9.537  2.6766 -0.0116  0.1239
   20CHL1  H12B 1439   0.977   2.567   9.567 -0.0201 -0.7548 -2.1407
   20CHL1   C11 1440   1.109   2.621   9.740  0.2841  0.2245 -0.3552
   20CHL1  H11A 1441   1.209   2.669   9.747  0.7901 -0.1290 -3.6899
   20CHL1  H11B 1442   1.033   2.686   9.788  1.0161  0.0167  1.1696
   20CHL1    C9 1443   1.102   2.484   9.812 -0.5068 -0.2829  0.5607
   20CHL1    H9 1444   0.998   2.453   9.793 -1.3203  2.1174  0.7494
   20CHL1   C10 1445   1.117   2.491   9.970 -0.2752 -0.4183 -0.2305
   20CHL1   C19 1446   1.242   2.569  10.004 -0.3221 -0.4935  0.4639
   20CHL1  H19A 1447   1.334   2.523   9.962  0.0060 -0.7565  1.4351
   20CHL1  H19B 1448   1.254   2.671   9.960 -0.7624 -1.2641 -1.5506
   20CHL1  H19C 1449   1.271   2.573  10.111 -0.4930 -1.0024  0.5278
   20CHL1    C1 1450   0.989   2.549  10.031  0.1169  0.9184  0.1647
   20CHL1   H1A 1451   0.981   2.656  10.002  0.2495  0.8288 -0.2078
   20CHL1   H1B 1452   0.905   2.498   9.979 -0.5934  0.3073  1.8285
   20CHL1    C2 1453   0.966   2.528  10.178  0.3282  0.7357 -0.3849
   20CHL1   H2A 1454   0.859   2.552  10.196 -0.5424 -0.7779 -2.9586
   20CHL1   H2B 1455   1.033   2.600  10.229  1.6648 -1.2082  0.7648
   20CHL1   C20 1456   1.187   2.554   9.260  0.4497  0.1296  0.1337
   20CHL1   H20 1457   1.288   2.597   9.271  0.1752  2.1935 -3.6077
   20CHL1   C21 1458   1.078   2.666   9.255 -0.6669  0.6798 -0.0055
   20CHL1  H21A 1459   1.106   2.741   9.332  1.4681  1.3878 -1.3790
   20CHL1  H21B 1460   0.974   2.625   9.253  0.2922 -2.0093  0.1992
   20CHL1  H21C 1461   1.089   2.730   9.165  2.8838 -0.9050 -0.8621
   20CHL1   C22 1462   1.196   2.484   9.129 -0.4115  0.2383  0.2830
   20CHL1  H22A 1463   1.229   2.553   9.048 -2.3808  3.5513  2.0909
   20CHL1  H22B 1464   1.262   2.394   9.132 -0.5014  0.1765  0.3915
   20CHL1   C23 1465   1.062   2.417   9.084  0.3507  1.2220  0.0446
   20CHL1  H23A 1466   1.040   2.334   9.154  2.5672 -0.3361 -1.0026
   20CHL1  H23B 1467   0.983   2.494   9.071  1.3964  2.2782 -0.2826
   20CHL1   C24 1468   1.088   2.352   8.943  0.0868  0.0921  0.4445
   20CHL1  H24A 1469   1.094   2.436   8.870  1.4946  0.7079  1.2387
   20CHL1  H24B 1470   1.186   2.301   8.947 -0.9702 -1.9443  1.9039
   20CHL1   C25 1471   0.972   2.272   8.899  0.1615  0.5466  0.1259
   20CHL1   H25 1472   0.947   2.214   8.990  1.6009  1.0201  0.8486
   20CHL1   C26 1473   0.854   2.356   8.838 -1.3588  0.3748  0.1372
   20CHL1  H26A 1474   0.820   2.436   8.908 -1.6553 -1.2608  1.9193
   20CHL1  H26B 1475   0.894   2.401   8.744 -0.7458  0.6269  0.5101
   20CHL1  H26C 1476   0.767   2.291   8.815 -0.9453 -0.8188  1.8274
   20CHL1   C27 1477   1.021   2.161   8.802 -0.4732  0.1812 -0.3192
   20CHL1  H27A 1478   1.077   2.194   8.712  2.0569 -0.1535  1.0260
   20CHL1  H27B 1479   1.091   2.092   8.854 -0.2900  0.1624 -0.5865
   20CHL1  H27C 1480   0.933   2.105   8.765 -1.3467  1.4348 -0.2323
   21CHL1    C3 1481   1.645   3.259  10.170  0.2409  0.2479 -0.2498
   21CHL1    H3 1482   1.718   3.187  10.127 -0.6336 -1.3780  0.8623
   21CHL1    O3 1483   1.637   3.236  10.307  0.8173  0.2000  0.2822
   21CHL1   H3' 1484   1.584   3.310  10.338 -1.5703 -1.4457  0.4791
   21CHL1    C4 1485   1.688   3.402  10.149  0.4248 -0.7810  0.3973
   21CHL1   H4A 1486   1.620   3.476  10.197 -0.7950 -1.7794  0.2742
   21CHL1   H4B 1487   1.790   3.411  10.191  0.9555 -1.0439 -0.7906
   21CHL1    C5 1488   1.687   3.444  10.003 -0.3300  0.2633  0.5020
   21CHL1    C6 1489   1.802   3.479   9.940 -0.2008  0.1154  0.2794
   21CHL1    H6 1490   1.895   3.489   9.999 -0.1856  1.5264  0.0389
   21CHL1    C7 1491   1.812   3.512   9.793 -0.5804 -0.0980  0.3564
   21CHL1   H7A 1492   1.845   3.617   9.787  0.2298 -0.3347  0.6233
   21CHL1   H7B 1493   1.902   3.456   9.759  0.1942  1.2248  0.1860
   21CHL1    C8 1494   1.675   3.514   9.715  0.7370  0.6258 -0.0933
   21CHL1    H8 1495   1.620   3.610   9.721 -1.9844 -0.8609  0.4002
   21CHL1   C14 1496   1.699   3.487   9.566  0.0560 -0.3234 -0.0917
   21CHL1   H14 1497   1.742   3.384   9.559 -2.2608 -1.3646  0.0686
   21CHL1   C15 1498   1.808   3.579   9.505 -0.4384  1.2144 -0.1878
   21CHL1  H15A 1499   1.807   3.683   9.546  2.9855  0.9080  0.9612
   21CHL1  H15B 1500   1.910   3.545   9.532  0.3863  0.3070 -3.8735
   21CHL1   C16 1501   1.771   3.576   9.359  0.4686 -0.2135  0.2382
   21CHL1  H16A 1502   1.726   3.674   9.331 -1.6316 -1.2455 -0.1299
   21CHL1  H16B 1503   1.853   3.559   9.286 -0.0898 -1.2164 -0.1677
   21CHL1   C17 1504   1.654   3.471   9.343  0.2515 -0.1247 -0.4370
   21CHL1   H17 1505   1.706   3.373   9.343 -1.2849 -0.9818 -1.4484
   21CHL1   C13 1506   1.582   3.485   9.476  0.3463 -0.5383 -0.1098
   21CHL1   C18 1507   1.507   3.626   9.479  0.3968 -0.3365 -0.2598
   21CHL1  H18A 1508   1.406   3.621   9.433 -1.6501  1.7103  3.4707
   21CHL1  H18B 1509   1.499   3.669   9.582  0.0413 -1.8419  0.3680
   21CHL1  H18C 1510   1.566   3.706   9.430  0.0100 -0.2578 -0.6088
   21CHL1   C12 1511   1.487   3.375   9.525  0.4763 -0.0263 -0.2912
   21CHL1  H12A 1512   1.389   3.382   9.473  0.6761  1.5410 -0.5259
   21CHL1  H12B 1513   1.542   3.283   9.498 -0.6716 -0.6281 -0.6247
   21CHL1   C11 1514   1.462   3.390   9.680  0.9913  0.1361 -0.4644
   21CHL1  H11A 1515   1.384   3.469   9.693 -0.6106 -1.6118  1.1089
   21CHL1  H11B 1516   1.407   3.298   9.709  0.4695  0.9600  1.3203
   21CHL1    C9 1517   1.587   3.399   9.767  0.9454 -0.3999 -0.3401
   21CHL1    H9 1518   1.642   3.303   9.756  0.6192 -0.7545  0.8841
   21CHL1   C10 1519   1.556   3.408   9.921 -0.8479  0.3167  0.4578
   21CHL1   C19 1520   1.456   3.516   9.951 -0.1767  0.6326  0.0426
   21CHL1  H19A 1521   1.443   3.530  10.061  1.8714  2.5929  0.1048
   21CHL1  H19B 1522   1.487   3.613   9.907  0.6567  1.0378  1.4574
   21CHL1  H19C 1523   1.355   3.488   9.914 -0.4366  0.2062  1.0227
   21CHL1    C1 1524   1.514   3.267   9.963 -0.1859  0.5950  0.6658
   21CHL1   H1A 1525   1.412   3.241   9.928  0.3335 -0.2410 -0.2789
   21CHL1   H1B 1526   1.585   3.191   9.924  0.3924  0.3258  2.1453
   21CHL1    C2 1527   1.508   3.230  10.111 -0.1951 -0.0700  0.0197
   21CHL1   H2A 1528   1.476   3.125  10.132 -0.5620  0.3982  1.9716
   21CHL1   H2B 1529   1.433   3.295  10.160 -2.7633 -2.7678 -0.0053
   21CHL1   C20 1530   1.583   3.483   9.211 -0.3260  0.0171  0.1408
   21CHL1   H20 1531   1.533   3.581   9.193  2.8118  1.6998 -0.1027
   21CHL1   C21 1532   1.487   3.365   9.212 -0.0774  0.3496 -0.7146
   21CHL1  H21A 1533   1.525   3.277   9.268 -0.3449 -0.2581 -1.4679
   21CHL1  H21B 1534   1.457   3.330   9.110 -1.0032 -1.7119  0.1963
   21CHL1  H21C 1535   1.388   3.397   9.252 -0.1317 -1.2325  0.5238
   21CHL1   C22 1536   1.684   3.485   9.090 -0.9047 -0.4440  0.3970
   21CHL1  H22A 1537   1.741   3.581   9.091 -3.3411  1.0790  0.8908
   21CHL1  H22B 1538   1.768   3.418   9.118  0.3285  1.6317  2.0171
   21CHL1   C23 1539   1.615   3.477   8.959 -0.0107  0.0282 -0.5577
   21CHL1  H23A 1540   1.550   3.386   8.954 -0.1314  0.1007 -0.3075
   21CHL1  H23B 1541   1.542   3.560   8.949 -1.6584 -0.7164  3.3722
   21CHL1   C24 1542   1.712   3.477   8.845 -0.2437 -0.6277 -0.1404
   21CHL1  H24A 1543   1.775   3.568   8.841  1.9367 -2.0962 -1.6445
   21CHL1  H24B 1544   1.791   3.399   8.850  1.1988  0.7052 -1.4285
   21CHL1   C25 1545   1.648   3.448   8.701  0.0605  1.0192  0.6459
   21CHL1   H25 1546   1.566   3.521   8.684  1.7231  2.6087 -0.9699
   21CHL1   C26 1547   1.757   3.457   8.593 -0.2109 -0.2396 -0.4177
   21CHL1  H26A 1548   1.786   3.564   8.589  3.1573 -1.0472 -0.6866
   21CHL1  H26B 1549   1.844   3.389   8.602 -1.2702 -1.6581 -0.5908
   21CHL1  H26C 1550   1.709   3.425   8.498  0.4871  0.3278 -0.9731
   21CHL1   C27 1551   1.592   3.300   8.688 -0.0733 -0.1503  0.0401
   21CHL1  H27A 1552   1.566   3.284   8.581 -1.4505 -0.0907  0.3371
   21CHL1  H27B 1553   1.673   3.236   8.727 -0.2442  0.5177  1.5807
   21CHL1  H27C 1554   1.504   3.284   8.755  0.0275  0.9389  0.4634
   22CHL1    C3 1555   2.078   3.703  10.062 -0.0233 -0.5389  0.7870
   22CHL1    H3 1556   2.001   3.643  10.008  0.6619 -0.8246  0.1045
   22CHL1    O3 1557   2.063   3.678  10.202 -0.4216 -0.2801 -0.1801
   22CHL1   H3' 1558   2.150   3.706  10.230  0.4875 -2.4586 -0.5469
   22CHL1    C4 1559   2.214   3.652  10.011 -0.8516  0.9690  0.5011
   22CHL1   H4A 1560   2.306   3.707  10.040  1.8810 -2.5493 -0.6522
   22CHL1   H4B 1561   2.235   3.546  10.036  1.8508  0.5948 -2.5395
   22CHL1    C5 1562   2.226   3.667   9.861 -0.2037  0.1302  0.3507
   22CHL1    C6 1563   2.240   3.564   9.774  0.0337  0.6661  0.4427
   22CHL1    H6 1564   2.253   3.458   9.803 -1.1451  0.6500  0.9570
   22CHL1    C7 1565   2.221   3.574   9.627  0.4721 -0.2128  0.3509
   22CHL1   H7A 1566   2.284   3.497   9.578  0.2273 -1.8249  2.4524
   22CHL1   H7B 1567   2.113   3.561   9.607  0.1931  2.5508 -0.3620
   22CHL1    C8 1568   2.248   3.717   9.573  0.4252  0.6625 -0.4105
   22CHL1    H8 1569   2.357   3.735   9.576  0.3234  1.1508  0.6280
   22CHL1   C14 1570   2.191   3.729   9.428 -0.1944 -0.3697  0.1543
   22CHL1   H14 1571   2.082   3.709   9.439  0.3144 -3.1317  0.9220
   22CHL1   C15 1572   2.219   3.623   9.314  0.1960  0.4696 -0.8694
   22CHL1  H15A 1573   2.327   3.606   9.295  0.7032 -0.7599  2.4627
   22CHL1  H15B 1574   2.174   3.526   9.344  0.0001  0.3699 -1.4704
   22CHL1   C16 1575   2.163   3.680   9.189  0.1444 -0.2708  1.5015
   22CHL1  H16A 1576   2.231   3.670   9.102  1.7005  0.4970  2.6072
   22CHL1  H16B 1577   2.067   3.637   9.152 -0.2240  1.1371  0.7546
   22CHL1   C17 1578   2.143   3.825   9.215  0.1496 -0.0554  0.1493
   22CHL1   H17 1579   2.036   3.834   9.243  0.0910 -0.8019  0.1773
   22CHL1   C13 1580   2.209   3.857   9.352  0.2808 -0.5247  0.4138
   22CHL1   C18 1581   2.359   3.888   9.336  0.5083  1.2426  0.0068
   22CHL1  H18A 1582   2.383   3.987   9.291 -1.3216  1.5982 -0.2707
   22CHL1  H18B 1583   2.413   3.882   9.433 -2.1142  0.0084  1.4927
   22CHL1  H18C 1584   2.408   3.810   9.272 -0.3515  0.8163 -0.1411
   22CHL1   C12 1585   2.134   3.966   9.436 -0.1781 -0.7140 -0.0654
   22CHL1  H12A 1586   2.154   4.066   9.391  0.8067  0.1721  2.1746
   22CHL1  H12B 1587   2.025   3.946   9.442 -0.2988 -0.6201 -1.6409
   22CHL1   C11 1588   2.185   3.973   9.585  0.3323 -0.0896 -0.0731
   22CHL1  H11A 1589   2.289   4.006   9.602  0.1077  1.5824 -1.6039
   22CHL1  H11B 1590   2.127   4.048   9.642  2.1760  1.7494 -0.5015
   22CHL1    C9 1591   2.175   3.826   9.648  0.2565 -0.1400  0.3314
   22CHL1    H9 1592   2.065   3.810   9.647 -0.0617  1.7955  0.4671
   22CHL1   C10 1593   2.197   3.814   9.802  0.2455 -0.5138 -0.2599
   22CHL1   C19 1594   2.337   3.885   9.835  0.4271  0.3508 -0.0850
   22CHL1  H19A 1595   2.365   3.879   9.943 -0.2306 -1.9896  0.0291
   22CHL1  H19B 1596   2.419   3.829   9.784  0.8971 -1.0281  2.0347
   22CHL1  H19C 1597   2.325   3.991   9.804 -0.8647 -0.1956 -1.5770
   22CHL1    C1 1598   2.075   3.881   9.876  0.4560  0.4122 -0.2084
   22CHL1   H1A 1599   2.072   3.989   9.850 -2.1581 -0.1063 -2.6475
   22CHL1   H1B 1600   1.981   3.831   9.844 -0.1247  0.5547  1.1753
   22CHL1    C2 1601   2.071   3.858  10.027 -0.4739  0.1349  0.0072
   22CHL1   H2A 1602   1.971   3.890  10.064 -0.9530 -0.8352 -0.4246
   22CHL1   H2B 1603   2.147   3.911  10.089  0.0428  2.0903 -2.1652
   22CHL1   C20 1604   2.158   3.907   9.090 -0.5439  0.7172  0.7815
   22CHL1   H20 1605   2.263   3.891   9.057 -0.4096  4.0890 -0.8255
   22CHL1   C21 1606   2.152   4.059   9.109  0.1476  0.1266  0.1140
   22CHL1  H21A 1607   2.156   4.112   9.011  0.7852 -1.4766 -0.7728
   22CHL1  H21B 1608   2.241   4.100   9.163 -0.5531  0.8462  0.7475
   22CHL1  H21C 1609   2.057   4.085   9.160  0.1887  1.0592 -0.2580
   22CHL1   C22 1610   2.062   3.863   8.974 -0.4105  0.3538 -0.3690
   22CHL1  H22A 1611   2.066   3.754   8.952 -0.1027  0.3358 -0.2246
   22CHL1  H22B 1612   1.957   3.880   9.007 -0.8990  1.9888 -2.5737
   22CHL1   C23 1613   2.082   3.928   8.838  0.6536  0.3126  0.4242
   22CHL1  H23A 1614   2.071   4.039   8.839  0.0634  0.2804 -0.6167
   22CHL1  H23B 1615   2.185   3.903   8.807  0.8512  0.0535  1.2665
   22CHL1   C24 1616   1.991   3.871   8.723 -0.3675 -0.0582  0.2568
   22CHL1  H24A 1617   1.989   3.760   8.728 -2.4943 -0.0422  0.9595
   22CHL1  H24B 1618   1.887   3.904   8.745 -0.1212  0.5737  0.5181
   22CHL1   C25 1619   2.039   3.920   8.578 -0.2641  0.0108 -0.8389
   22CHL1   H25 1620   2.149   3.919   8.569 -0.1062  2.4121  0.1263
   22CHL1   C26 1621   1.970   3.839   8.475 -0.1294  1.0059  0.2378
   22CHL1  H26A 1622   1.859   3.838   8.483 -0.4834 -1.5859 -3.1325
   22CHL1  H26B 1623   2.004   3.879   8.377  3.9430  0.5377  1.2646
   22CHL1  H26C 1624   2.008   3.735   8.480 -2.3414  0.1366  0.2217
   22CHL1   C27 1625   2.001   4.062   8.570  0.2728  0.2354 -0.0728
   22CHL1  H27A 1626   2.033   4.098   8.469 -1.3356  1.7629 -0.0990
   22CHL1  H27B 1627   1.891   4.078   8.580  0.8460  3.8508  1.8322
   22CHL1  H27C 1628   2.048   4.122   8.650  0.2124  0.0656  0.0887
   23CHL1    C3 1629   3.477   5.525  10.145 -0.2747 -0.2301 -1.1968
   23CHL1    H3 1630   3.557   5.456  10.111  0.3120 -0.7415  1.0582
   23CHL1    O3 1631   3.458   5.494  10.288 -0.7765  0.2599  0.1245
   23CHL1   H3' 1632   3.394   5.558  10.321 -2.9904 -1.1567 -1.1825
   23CHL1    C4 1633   3.528   5.663  10.132 -0.4589 -0.8067  0.0687
   23CHL1   H4A 1634   3.458   5.740  10.172  0.9206  0.1272  0.7835
   23CHL1   H4B 1635   3.621   5.680  10.190 -2.1026  1.4810  2.2961
   23CHL1    C5 1636   3.546   5.699   9.989 -0.1285 -0.2115  0.3082
   23CHL1    C6 1637   3.667   5.741   9.945 -0.4842  0.7879 -0.2832
   23CHL1    H6 1638   3.744   5.744  10.023  0.3072 -0.8788 -0.9475
   23CHL1    C7 1639   3.691   5.787   9.806  0.9082 -0.4628 -0.3815
   23CHL1   H7A 1640   3.725   5.893   9.806  0.9007 -0.4610 -0.1172
   23CHL1   H7B 1641   3.777   5.731   9.764  1.3119  0.5576 -0.9649
   23CHL1    C8 1642   3.573   5.787   9.706 -0.4111  1.1983 -0.5115
   23CHL1    H8 1643   3.518   5.880   9.733 -0.6515  0.3831  2.1212
   23CHL1   C14 1644   3.629   5.778   9.565  0.1998  0.0235  0.4726
   23CHL1   H14 1645   3.675   5.678   9.552 -3.7928 -1.8722 -0.7573
   23CHL1   C15 1646   3.750   5.872   9.530  0.4080 -0.0494  0.4778
   23CHL1  H15A 1647   3.724   5.976   9.559 -1.4612 -0.4841  0.5283
   23CHL1  H15B 1648   3.842   5.848   9.586 -0.3409 -1.8764  1.0058
   23CHL1   C16 1649   3.766   5.853   9.377  0.3544 -0.0712 -0.0637
   23CHL1  H16A 1650   3.793   5.950   9.332 -0.9811 -0.2307 -1.2645
   23CHL1  H16B 1651   3.850   5.793   9.335  0.3634 -0.8537  1.0099
   23CHL1   C17 1652   3.632   5.787   9.339 -0.3093  0.4094  0.4057
   23CHL1   H17 1653   3.648   5.680   9.314 -1.0868  0.9263 -2.7782
   23CHL1   C13 1654   3.529   5.794   9.453 -0.0777  0.2782  0.2744
   23CHL1   C18 1655   3.449   5.923   9.461  0.0868 -0.2623 -0.6527
   23CHL1  H18A 1656   3.507   6.013   9.433  3.0659 -1.1620  2.0732
   23CHL1  H18B 1657   3.362   5.919   9.392 -0.3277  3.4412 -0.5462
   23CHL1  H18C 1658   3.411   5.944   9.563  0.4666 -2.0014 -0.1142
   23CHL1   C12 1659   3.438   5.664   9.472 -0.5251 -0.6676  0.2104
   23CHL1  H12A 1660   3.366   5.671   9.388  1.1805 -0.7312 -1.2960
   23CHL1  H12B 1661   3.500   5.572   9.467 -0.8666 -0.8908 -0.0244
   23CHL1   C11 1662   3.379   5.656   9.617  0.6125  0.1762  0.0930
   23CHL1  H11A 1663   3.306   5.739   9.632  1.0644  0.3159  1.6530
   23CHL1  H11B 1664   3.315   5.568   9.640  0.9624  0.0969  0.7813
   23CHL1    C9 1665   3.481   5.664   9.730 -0.5423 -0.3644 -0.8870
   23CHL1    H9 1666   3.538   5.569   9.720 -3.4742 -2.3782 -0.1349
   23CHL1   C10 1667   3.435   5.663   9.885  0.1386  0.0358 -0.2224
   23CHL1   C19 1668   3.324   5.770   9.905  0.0394 -0.6079 -0.1616
   23CHL1  H19A 1669   3.356   5.870   9.870 -1.2108  0.1221  0.6985
   23CHL1  H19B 1670   3.244   5.739   9.834  0.6740 -0.2408 -1.0620
   23CHL1  H19C 1671   3.286   5.781  10.009 -1.4805  0.2506 -0.7631
   23CHL1    C1 1672   3.366   5.527   9.918 -0.4178 -0.4213  0.0338
   23CHL1   H1A 1673   3.273   5.514   9.859  0.2476 -0.3826 -1.0456
   23CHL1   H1B 1674   3.438   5.449   9.886  1.5637  0.2704  2.5156
   23CHL1    C2 1675   3.353   5.498  10.067 -0.4566 -0.1964 -0.5609
   23CHL1   H2A 1676   3.326   5.394  10.094  0.6626 -0.0230  1.3622
   23CHL1   H2B 1677   3.276   5.569  10.104  2.2346  2.6185 -0.0179
   23CHL1   C20 1678   3.576   5.840   9.199 -0.6832 -0.2916  0.6945
   23CHL1   H20 1679   3.535   5.943   9.208 -2.0097 -0.7307 -0.0688
   23CHL1   C21 1680   3.468   5.741   9.148 -0.1694  0.0133  0.1426
   23CHL1  H21A 1681   3.373   5.763   9.201 -0.1831  0.1458  0.0641
   23CHL1  H21B 1682   3.492   5.636   9.176  0.3052  0.1227  0.1628
   23CHL1  H21C 1683   3.444   5.740   9.039  1.6570 -0.1154 -0.2925
   23CHL1   C22 1684   3.687   5.842   9.097 -0.4376  0.1805  0.2600
   23CHL1  H22A 1685   3.768   5.912   9.127 -2.4698  2.7090  0.1370
   23CHL1  H22B 1686   3.727   5.740   9.079  1.2614  1.1300 -1.8102
   23CHL1   C23 1687   3.640   5.895   8.960 -0.3818  0.2487  0.2975
   23CHL1  H23A 1688   3.573   5.825   8.905  0.3163 -0.5055  0.3852
   23CHL1  H23B 1689   3.580   5.988   8.970  1.5374  1.4533  1.0736
   23CHL1   C24 1690   3.754   5.941   8.870  0.0566  0.7200  0.3064
   23CHL1  H24A 1691   3.821   6.012   8.924  0.4744  1.1469 -0.7570
   23CHL1  H24B 1692   3.828   5.859   8.865  1.1960  1.5649  2.0124
   23CHL1   C25 1693   3.714   6.008   8.743 -0.5110  0.2412  0.0117
   23CHL1   H25 1694   3.645   6.094   8.758 -0.0847  0.9377 -1.8420
   23CHL1   C26 1695   3.833   6.060   8.665  0.1060 -0.1812 -0.5046
   23CHL1  H26A 1696   3.892   6.135   8.722 -0.7122  1.2632 -1.4902
   23CHL1  H26B 1697   3.897   5.972   8.643 -1.6667 -1.0499 -2.5023
   23CHL1  H26C 1698   3.782   6.114   8.582 -1.1491 -2.0511 -1.0013
   23CHL1   C27 1699   3.646   5.910   8.645 -0.5719  0.0835 -0.4465
   23CHL1  H27A 1700   3.594   5.962   8.562 -2.0023 -2.8582 -1.5224
   23CHL1  H27B 1701   3.716   5.838   8.596 -1.9719 -0.9610 -0.9647
   23CHL1  H27C 1702   3.572   5.846   8.697 -0.4158 -2.5630 -3.2095
   24CHL1    C3 1703   3.405   5.100  10.043 -0.0123 -0.2246  0.2845
   24CHL1    H3 1704   3.440   5.205  10.036 -0.8294 -0.0563 -2.2817
   24CHL1    O3 1705   3.405   5.052  10.179 -0.5513 -0.1447  0.1597
   24CHL1   H3' 1706   3.392   4.957  10.172  1.0806 -0.3513 -0.7668
   24CHL1    C4 1707   3.269   5.092   9.977 -0.5549  0.4937 -0.2174
   24CHL1   H4A 1708   3.229   4.988   9.984  0.8983 -0.0322  0.5814
   24CHL1   H4B 1709   3.211   5.162  10.042  0.8819  1.8030 -0.2956
   24CHL1    C5 1710   3.263   5.123   9.832 -0.4469 -0.5569 -0.2993
   24CHL1    C6 1711   3.176   5.207   9.779 -0.2083 -0.1903 -0.0906
   24CHL1    H6 1712   3.105   5.262   9.842 -0.5794  0.4199 -1.0252
   24CHL1    C7 1713   3.171   5.226   9.629  0.5562 -0.1590  0.5648
   24CHL1   H7A 1714   3.068   5.209   9.591 -0.4219 -0.9300  3.2987
   24CHL1   H7B 1715   3.195   5.331   9.602 -1.6053 -0.0334 -1.1358
   24CHL1    C8 1716   3.254   5.135   9.539 -0.8256 -0.2795  0.0960
   24CHL1    H8 1717   3.203   5.042   9.506  0.1194 -1.0043  0.6394
   24CHL1   C14 1718   3.279   5.203   9.398 -0.1003 -0.0227  0.0955
   24CHL1   H14 1719   3.343   5.292   9.415 -2.2845  1.3200  1.9056
   24CHL1   C15 1720   3.151   5.267   9.333 -0.0711  0.9996 -0.0565
   24CHL1  H15A 1721   3.065   5.197   9.321  0.0358  0.9012 -0.2656
   24CHL1  H15B 1722   3.123   5.358   9.390 -0.2497  0.0345  1.4557
   24CHL1   C16 1723   3.206   5.285   9.192  0.1445  0.5334  0.7901
   24CHL1  H16A 1724   3.155   5.223   9.115  0.6584 -0.1870  1.0151
   24CHL1  H16B 1725   3.194   5.391   9.161 -0.6767 -0.0532 -1.0073
   24CHL1   C17 1726   3.353   5.227   9.186  0.9101 -0.1100 -0.1996
   24CHL1   H17 1727   3.406   5.319   9.219 -0.1632  0.4117  0.1044
   24CHL1   C13 1728   3.364   5.128   9.302 -0.6073 -0.1344 -0.1216
   24CHL1   C18 1729   3.300   5.001   9.260  0.2312 -0.2521  0.6310
   24CHL1  H18A 1730   3.338   4.979   9.158 -1.4667  0.8480 -0.2931
   24CHL1  H18B 1731   3.311   4.916   9.331  0.3966  0.2050  1.1647
   24CHL1  H18C 1732   3.195   5.019   9.229  1.2463  0.1755 -3.0099
   24CHL1   C12 1733   3.504   5.105   9.373  0.9792  1.0214 -0.4350
   24CHL1  H12A 1734   3.563   5.037   9.308  0.7762 -0.3928  0.7899
   24CHL1  H12B 1735   3.573   5.191   9.372  0.9299  1.0517 -1.2590
   24CHL1   C11 1736   3.495   5.039   9.510  0.5688 -0.0680  0.2912
   24CHL1  H11A 1737   3.476   4.930   9.501 -0.5223  0.2098 -1.3267
   24CHL1  H11B 1738   3.591   5.051   9.565 -0.5375 -0.3861  2.3888
   24CHL1    C9 1739   3.391   5.102   9.607 -0.0715 -0.1858  0.0204
   24CHL1    H9 1740   3.449   5.196   9.615  1.3511 -1.1157  1.0195
   24CHL1   C10 1741   3.371   5.039   9.746 -0.2237  0.3626 -0.5885
   24CHL1   C19 1742   3.319   4.896   9.731  0.2717  0.1998  0.5976
   24CHL1  H19A 1743   3.335   4.848   9.830 -1.8557  1.7739  1.7879
   24CHL1  H19B 1744   3.210   4.904   9.713  0.2152  0.9625  1.2209
   24CHL1  H19C 1745   3.382   4.835   9.663  0.8495 -1.3903  2.4689
   24CHL1    C1 1746   3.508   5.031   9.822 -0.3494  0.3365 -0.5087
   24CHL1   H1A 1747   3.560   4.957   9.756 -0.2931  0.6953 -0.8683
   24CHL1   H1B 1748   3.565   5.124   9.806  0.0647  0.6598  2.4130
   24CHL1    C2 1749   3.497   5.003   9.972 -0.0152  0.7666  0.1144
   24CHL1   H2A 1750   3.599   5.015  10.014  1.0653  2.7404 -2.7286
   24CHL1   H2B 1751   3.460   4.900   9.989 -0.4004  0.9026  0.1262
   24CHL1   C20 1752   3.411   5.197   9.046 -0.7597  0.2221 -0.3085
   24CHL1   H20 1753   3.370   5.102   9.005  1.5347 -1.0425  0.1745
   24CHL1   C21 1754   3.567   5.174   9.046  0.4453  0.2024 -0.7651
   24CHL1  H21A 1755   3.612   5.257   9.104 -1.2250 -1.1317  2.7626
   24CHL1  H21B 1756   3.613   5.170   8.945  2.6732 -2.0574  0.2134
   24CHL1  H21C 1757   3.595   5.079   9.098  0.7595  1.3608  1.2978
   24CHL1   C22 1758   3.360   5.304   8.955 -0.2763 -0.5941 -0.1371
   24CHL1  H22A 1759   3.260   5.270   8.922  0.4428 -0.7409 -2.4069
   24CHL1  H22B 1760   3.363   5.409   8.992 -1.7153 -0.8800  0.8751
   24CHL1   C23 1761   3.437   5.313   8.822  0.4306 -0.3157  1.0430
   24CHL1  H23A 1762   3.478   5.219   8.781 -2.8519 -0.8363 -1.3524
   24CHL1  H23B 1763   3.368   5.352   8.745  1.3107  1.4929  1.1068
   24CHL1   C24 1764   3.542   5.433   8.828  0.7780 -0.5548 -0.2077
   24CHL1  H24A 1765   3.498   5.534   8.844  0.8439  0.1410 -3.7008
   24CHL1  H24B 1766   3.605   5.414   8.918  0.7749  0.1766 -0.0493
   24CHL1   C25 1767   3.644   5.441   8.708  0.5731  0.4332 -0.3830
   24CHL1   H25 1768   3.715   5.356   8.712  1.2546  0.8985 -1.8011
   24CHL1   C26 1769   3.566   5.452   8.572  0.1041  1.0734 -0.3873
   24CHL1  H26A 1770   3.629   5.480   8.484 -0.7147  1.9551 -0.7091
   24CHL1  H26B 1771   3.521   5.352   8.559  0.4386  0.8702  0.0032
   24CHL1  H26C 1772   3.482   5.525   8.576 -0.5050  0.3609 -0.0672
   24CHL1   C27 1773   3.724   5.565   8.742 -0.1283 -0.0257 -0.0426
   24CHL1  H27A 1774   3.789   5.556   8.832  0.3043 -0.1757 -0.3638
   24CHL1  H27B 1775   3.793   5.596   8.661  1.0428  3.4740  2.0794
   24CHL1  H27C 1776   3.658   5.652   8.761  1.2672  0.8586  0.9451
   25CHL1    C3 1777   0.285   6.354  10.390 -0.6503 -0.8561  0.5365
   25CHL1    H3 1778   0.301   6.459  10.357 -0.1585 -1.1760 -0.2756
   25CHL1    O3 1779   0.301   6.337  10.525  0.4516 -0.2486  0.8090
   25CHL1   H3' 1780   0.251   6.411  10.560 -2.7045 -1.2893 -1.0845
   25CHL1    C4 1781   0.143   6.318  10.340 -0.1298  0.0223 -0.2024
   25CHL1   H4A 1782   0.124   6.211  10.362  1.4794  0.0711  1.5934
   25CHL1   H4B 1783   0.066   6.377  10.394 -2.3010  1.2283 -4.1671
   25CHL1    C5 1784   0.136   6.342  10.189 -0.0586 -0.2798 -0.3705
   25CHL1    C6 1785   0.056   6.426  10.128  0.1855 -0.2020  0.5222
   25CHL1    H6 1786  -0.022   6.476  10.186 -0.3525  1.7853 -1.7648
   25CHL1    C7 1787   0.055   6.451   9.978 -0.1586  0.2326 -0.3584
   25CHL1   H7A 1788  -0.050   6.472   9.949 -0.0164  0.5094 -0.6741
   25CHL1   H7B 1789   0.111   6.546   9.961 -0.9709  0.7852  0.0028
   25CHL1    C8 1790   0.123   6.350   9.885 -0.1653 -0.4378 -0.0822
   25CHL1    H8 1791   0.041   6.275   9.877 -1.3553  0.8566 -0.3205
   25CHL1   C14 1792   0.144   6.402   9.748  0.6441  0.2973 -0.2846
   25CHL1   H14 1793   0.218   6.484   9.762 -0.2905  1.1769 -0.3657
   25CHL1   C15 1794   0.036   6.477   9.669 -0.4503  0.2398 -0.1780
   25CHL1  H15A 1795  -0.061   6.423   9.668 -0.3178 -0.0308  0.7188
   25CHL1  H15B 1796   0.028   6.579   9.713  2.1859 -0.1412  1.3890
   25CHL1   C16 1797   0.083   6.473   9.528 -0.0051 -0.1898  0.6277
   25CHL1  H16A 1798  -0.008   6.436   9.475  2.7219 -2.3985 -2.9746
   25CHL1  H16B 1799   0.092   6.575   9.485  2.7494 -0.4769  0.3667
   25CHL1   C17 1800   0.203   6.385   9.518  0.0052  0.1279  0.6473
   25CHL1   H17 1801   0.298   6.442   9.525  1.5934 -2.0229 -1.8003
   25CHL1   C13 1802   0.205   6.297   9.650 -0.6738 -0.1203 -0.4545
   25CHL1   C18 1803   0.112   6.178   9.615 -0.7036  0.7729 -0.4469
   25CHL1  H18A 1804   0.004   6.205   9.613 -1.1223 -0.8878 -1.1429
   25CHL1  H18B 1805   0.142   6.121   9.525  0.0826 -0.3581  0.4963
   25CHL1  H18C 1806   0.117   6.097   9.691  3.7470  0.9117 -0.3474
   25CHL1   C12 1807   0.334   6.240   9.713 -0.3156 -0.4047 -0.2579
   25CHL1  H12A 1808   0.391   6.165   9.654  0.0233 -0.3674  0.0222
   25CHL1  H12B 1809   0.399   6.329   9.724  0.2242 -0.9126  0.7237
   25CHL1   C11 1810   0.318   6.189   9.859 -0.5730 -0.4506  0.0022
   25CHL1  H11A 1811   0.259   6.096   9.852  0.7662 -1.4462  1.3108
   25CHL1  H11B 1812   0.415   6.167   9.907  0.2743 -0.9426 -1.8392
   25CHL1    C9 1813   0.252   6.299   9.950  0.2698 -0.6905 -0.2306
   25CHL1    H9 1814   0.315   6.389   9.935  1.0500 -1.1634  0.1579
   25CHL1   C10 1815   0.240   6.269  10.102 -0.1781  0.6046 -0.9271
   25CHL1   C19 1816   0.202   6.120  10.110 -0.8743 -0.6924 -0.4701
   25CHL1  H19A 1817   0.100   6.119  10.066 -1.7216  0.6612  1.3228
   25CHL1  H19B 1818   0.276   6.054  10.061 -0.5437 -0.6252 -0.0648
   25CHL1  H19C 1819   0.192   6.083  10.214  0.4943  1.1095  0.3620
   25CHL1    C1 1820   0.380   6.288  10.169  1.0098  0.0340 -0.3858
   25CHL1   H1A 1821   0.458   6.222  10.124  0.5722 -0.0988 -0.9742
   25CHL1   H1B 1822   0.419   6.391  10.158  1.7608  0.1719  2.7069
   25CHL1    C2 1823   0.387   6.263  10.317  0.3964  0.3689 -0.2008
   25CHL1   H2A 1824   0.494   6.265  10.347  0.0153 -1.1006  1.4272
   25CHL1   H2B 1825   0.360   6.156  10.332  1.8256 -0.0716 -0.6151
   25CHL1   C20 1826   0.229   6.319   9.374 -0.4928 -0.3490  0.5914
   25CHL1   H20 1827   0.147   6.251   9.343  0.7600 -1.4872 -0.3333
   25CHL1   C21 1828   0.363   6.243   9.382  0.0828  0.0190  0.0412
   25CHL1  H21A 1829   0.387   6.185   9.290  2.3758  0.5378  0.2537
   25CHL1  H21B 1830   0.357   6.162   9.457  1.3484 -0.8568 -0.7538
   25CHL1  H21C 1831   0.445   6.313   9.408 -0.6690  1.1076 -0.4561
   25CHL1   C22 1832   0.230   6.430   9.258  0.0497  0.5892 -0.2057
   25CHL1  H22A 1833   0.132   6.482   9.252  0.1278  0.6885 -0.7121
   25CHL1  H22B 1834   0.317   6.497   9.270  0.7270  0.0248 -1.7034
   25CHL1   C23 1835   0.259   6.375   9.119  0.9858  0.1520  0.9510
   25CHL1  H23A 1836   0.358   6.325   9.118  1.8905  1.8645  0.3547
   25CHL1  H23B 1837   0.175   6.305   9.099  1.7171 -0.7471  0.9434
   25CHL1   C24 1838   0.279   6.490   9.021  0.1325  0.2778  0.9143
   25CHL1  H24A 1839   0.191   6.557   9.030  0.3863  0.5279  1.5989
   25CHL1  H24B 1840   0.363   6.555   9.055 -1.2564  2.6374  0.0431
   25CHL1   C25 1841   0.297   6.452   8.868  0.8844  0.5309 -0.1982
   25CHL1   H25 1842   0.385   6.385   8.873  1.5487  1.4419  0.8187
   25CHL1   C26 1843   0.172   6.388   8.795  0.1097  0.1240  0.2983
   25CHL1  H26A 1844   0.117   6.323   8.867  3.0629 -0.7928  1.8807
   25CHL1  H26B 1845   0.110   6.474   8.762  1.7613  1.3489  0.2645
   25CHL1  H26C 1846   0.207   6.334   8.705 -0.5227  2.4753 -1.4408
   25CHL1   C27 1847   0.336   6.573   8.787  0.5573 -0.7186 -0.9303
   25CHL1  H27A 1848   0.380   6.534   8.693 -0.6728 -2.8284 -0.7046
   25CHL1  H27B 1849   0.245   6.633   8.767 -0.1211 -0.4256  2.3342
   25CHL1  H27C 1850   0.413   6.635   8.837 -1.6571 -0.4538  2.5421
   26CHL1    C3 1851   2.677   4.095  10.241 -0.4262  0.3513  0.4047
   26CHL1    H3 1852   2.780   4.055  10.245 -1.6917 -3.2900  1.2629
   26CHL1    O3 1853   2.619   4.092  10.367 -0.1078  0.1634 -0.2232
   26CHL1   H3' 1854   2.673   4.030  10.417 -0.4340  0.8983  1.0830
   26CHL1    C4 1855   2.657   4.242  10.198  0.5799 -0.5608 -0.6937
   26CHL1   H4A 1856   2.553   4.273  10.220  0.4235  0.2025 -2.4041
   26CHL1   H4B 1857   2.718   4.303  10.269 -1.0478  1.2016 -0.7329
   26CHL1    C5 1858   2.699   4.265  10.054 -0.1502 -0.2829 -0.4564
   26CHL1    C6 1859   2.785   4.357  10.013 -0.1365  0.2239 -0.5213
   26CHL1    H6 1860   2.831   4.427  10.084  2.2320 -2.7483  1.1401
   26CHL1    C7 1861   2.810   4.388   9.874  0.1686  0.3054  0.0220
   26CHL1   H7A 1862   2.813   4.498   9.856 -2.0147  0.2775 -0.8662
   26CHL1   H7B 1863   2.911   4.346   9.856  1.2569  1.8976  2.0331
   26CHL1    C8 1864   2.715   4.324   9.774 -0.1147 -0.3589 -0.3674
   26CHL1    H8 1865   2.619   4.381   9.774 -0.0346 -0.1660 -2.1554
   26CHL1   C14 1866   2.767   4.333   9.632  0.3535 -0.0053 -0.6055
   26CHL1   H14 1867   2.861   4.273   9.636  0.1897 -0.1930  0.9356
   26CHL1   C15 1868   2.809   4.467   9.574  0.0314  0.4489 -0.5758
   26CHL1  H15A 1869   2.729   4.543   9.588  0.9089  1.5098 -1.1267
   26CHL1  H15B 1870   2.898   4.507   9.627  1.0788  0.5872 -2.3603
   26CHL1   C16 1871   2.827   4.444   9.427  0.3556  0.3213  0.1679
   26CHL1  H16A 1872   2.780   4.524   9.367 -1.8152 -1.0267 -0.0225
   26CHL1  H16B 1873   2.933   4.430   9.399  0.6935  0.4463  1.3121
   26CHL1   C17 1874   2.751   4.306   9.399  0.8225  0.0260  0.1379
   26CHL1   H17 1875   2.827   4.226   9.389 -0.1617 -0.8051 -0.8428
   26CHL1   C13 1876   2.672   4.272   9.531  0.1268  0.1028  0.1331
   26CHL1   C18 1877   2.526   4.335   9.532  0.1578 -0.2154 -0.0441
   26CHL1  H18A 1878   2.463   4.297   9.449 -0.2085  0.6040 -0.1473
   26CHL1  H18B 1879   2.477   4.313   9.630  0.7431 -0.5425  0.1785
   26CHL1  H18C 1880   2.534   4.443   9.509  1.2872 -0.6946 -2.0895
   26CHL1   C12 1881   2.662   4.119   9.572  0.7560  0.7829 -0.6289
   26CHL1  H12A 1882   2.588   4.069   9.506  0.3879  1.3078 -0.6143
   26CHL1  H12B 1883   2.760   4.067   9.561  1.3366  1.9650 -1.2105
   26CHL1   C11 1884   2.605   4.105   9.712 -0.1852 -0.4603 -0.0036
   26CHL1  H11A 1885   2.504   4.150   9.712  0.3122  0.7133 -1.1330
   26CHL1  H11B 1886   2.592   3.997   9.736 -2.0975 -0.1619  0.4494
   26CHL1    C9 1887   2.690   4.177   9.817  0.0053  0.2605  0.4740
   26CHL1    H9 1888   2.788   4.125   9.825  0.8919  1.9938  1.5672
   26CHL1   C10 1889   2.628   4.169   9.961  0.6762  0.4982 -0.4070
   26CHL1   C19 1890   2.476   4.210   9.955 -0.0912 -0.1574 -0.3173
   26CHL1  H19A 1891   2.436   4.221  10.058  1.8756  2.3231  0.2965
   26CHL1  H19B 1892   2.462   4.313   9.915  0.0166  0.1419  0.3947
   26CHL1  H19C 1893   2.413   4.138   9.899 -0.9968 -0.5016  1.0857
   26CHL1    C1 1894   2.644   4.021  10.005 -0.4199  0.0578  0.4984
   26CHL1   H1A 1895   2.594   3.954   9.933  0.0357  1.0474 -0.7690
   26CHL1   H1B 1896   2.750   3.991   9.999 -0.1367  1.2409 -1.1780
   26CHL1    C2 1897   2.597   3.996  10.152  0.2240  0.2619  0.2769
   26CHL1   H2A 1898   2.616   3.894  10.193 -1.6489  0.6221  2.1725
   26CHL1   H2B 1899   2.488   4.013  10.146 -0.1847 -2.2758 -1.9468
   26CHL1   C20 1900   2.665   4.307   9.268 -0.1597 -0.3037  0.1781
   26CHL1   H20 1901   2.591   4.390   9.270 -1.0561 -0.9921 -1.6872
   26CHL1   C21 1902   2.594   4.173   9.246 -0.5573  0.6012  0.1921
   26CHL1  H21A 1903   2.532   4.144   9.334  1.3226 -0.0137  1.3904
   26CHL1  H21B 1904   2.667   4.092   9.225 -2.0308 -0.1685 -2.4252
   26CHL1  H21C 1905   2.532   4.181   9.154 -0.5646  3.2188  0.3748
   26CHL1   C22 1906   2.760   4.326   9.138  0.4891  0.2068 -0.1123
   26CHL1  H22A 1907   2.837   4.404   9.152 -0.4501  1.2614 -0.6299
   26CHL1  H22B 1908   2.826   4.237   9.141 -1.4295 -1.3393 -0.8369
   26CHL1   C23 1909   2.694   4.359   9.002  0.5751  0.2493 -0.2188
   26CHL1  H23A 1910   2.651   4.266   8.959  0.4357  1.7258 -3.5682
   26CHL1  H23B 1911   2.602   4.421   9.009 -1.4934 -2.5533 -0.9347
   26CHL1   C24 1912   2.797   4.424   8.899  0.2450  0.2425  0.3442
   26CHL1  H24A 1913   2.759   4.432   8.795  1.0418 -0.4314 -0.0116
   26CHL1  H24B 1914   2.823   4.529   8.923 -1.5093  0.7943 -0.0089
   26CHL1   C25 1915   2.928   4.350   8.885  0.2660 -0.2120  0.3778
   26CHL1   H25 1916   2.973   4.350   8.986  1.7641 -2.7494 -0.1958
   26CHL1   C26 1917   2.894   4.207   8.838  0.0223  0.1737  0.0304
   26CHL1  H26A 1918   2.861   4.203   8.732  3.3177  0.3143 -1.1169
   26CHL1  H26B 1919   2.983   4.140   8.837 -0.2206 -0.1538 -0.0475
   26CHL1  H26C 1920   2.827   4.147   8.903 -1.3909 -0.6453 -2.0938
   26CHL1   C27 1921   3.008   4.422   8.770 -0.1296 -0.1722  0.1083
   26CHL1  H27A 1922   2.966   4.410   8.667  0.3351 -2.2862  0.1292
   26CHL1  H27B 1923   3.012   4.530   8.795 -0.1689 -0.0870 -0.2451
   26CHL1  H27C 1924   3.114   4.391   8.777  0.6363  2.3164  0.5598
   27CHL1    C3 1925   1.990   2.087  10.287  1.0421 -0.5228  0.3483
   27CHL1    H3 1926   1.946   2.189  10.286 -0.1880 -1.0003  1.8327
   27CHL1    O3 1927   1.974   2.045  10.423  0.2043 -0.0688 -0.1264
   27CHL1   H3' 1928   2.063   2.041  10.458 -0.3067 -2.3548  1.0544
   27CHL1    C4 1929   1.927   2.001  10.182 -0.0806  0.7917  0.2007
   27CHL1   H4A 1930   1.954   1.894  10.196  3.2159  1.2890 -1.3618
   27CHL1   H4B 1931   1.818   2.014  10.195 -0.0846  2.4559 -1.1291
   27CHL1    C5 1932   1.959   2.040  10.037 -0.6427 -0.6440  0.0609
   27CHL1    C6 1933   1.864   2.076   9.950  0.6393 -1.1298 -0.1464
   27CHL1    H6 1934   1.760   2.080   9.985  0.4754 -1.7270 -0.5511
   27CHL1    C7 1935   1.893   2.113   9.811  0.1020  0.2716 -0.1863
   27CHL1   H7A 1936   1.822   2.060   9.744  0.0774 -0.0262  0.0721
   27CHL1   H7B 1937   1.883   2.224   9.809 -0.2824  0.2310 -0.5515
   27CHL1    C8 1938   2.032   2.064   9.766 -1.3434  0.2246  0.4193
   27CHL1    H8 1939   2.031   1.954   9.755  2.1140  0.3158 -2.4301
   27CHL1   C14 1940   2.067   2.111   9.627 -0.5174  0.4409 -0.2194
   27CHL1   H14 1941   2.060   2.220   9.644 -2.6285  0.4309 -0.7292
   27CHL1   C15 1942   1.971   2.079   9.523  0.9222  0.3926  0.4942
   27CHL1  H15A 1943   1.942   1.972   9.532  1.8917  0.0292 -0.5423
   27CHL1  H15B 1944   1.883   2.145   9.541 -1.1196 -2.0062 -0.0957
   27CHL1   C16 1945   2.040   2.116   9.390  0.0834 -0.3062  0.2557
   27CHL1  H16A 1946   2.044   2.022   9.332  1.7801 -1.4588  2.0905
   27CHL1  H16B 1947   1.992   2.197   9.332 -0.0698  0.4160  1.3550
   27CHL1   C17 1948   2.185   2.161   9.434  0.0914  0.4393  0.0214
   27CHL1   H17 1949   2.171   2.267   9.465 -1.2898  0.4540 -0.5809
   27CHL1   C13 1950   2.205   2.094   9.573  0.1709  0.5002  0.0667
   27CHL1   C18 1951   2.235   1.942   9.555  0.4382 -0.3388 -0.4328
   27CHL1  H18A 1952   2.341   1.922   9.526  0.4082 -0.9893 -0.1044
   27CHL1  H18B 1953   2.207   1.890   9.649 -0.8995  1.8038  0.4438
   27CHL1  H18C 1954   2.176   1.904   9.469 -0.8325 -0.6384  0.5393
   27CHL1   C12 1955   2.307   2.146   9.676 -0.3392 -0.5812  0.8548
   27CHL1  H12A 1956   2.408   2.114   9.642 -0.5116  0.4358 -0.7694
   27CHL1  H12B 1957   2.299   2.257   9.667  0.2712 -0.5785  0.3025
   27CHL1   C11 1958   2.277   2.103   9.817 -0.8600  0.0095 -0.3231
   27CHL1  H11A 1959   2.306   1.996   9.830  0.5077  0.0935 -2.2798
   27CHL1  H11B 1960   2.349   2.158   9.881  0.5263 -1.0462 -0.9206
   27CHL1    C9 1961   2.129   2.110   9.869 -0.6008 -0.0470  0.2773
   27CHL1    H9 1962   2.125   2.219   9.887 -0.3890  0.3440 -1.8197
   27CHL1   C10 1963   2.107   2.047  10.005  0.5108  0.0978  0.1563
   27CHL1   C19 1964   2.142   1.904  10.016 -0.5238  0.3303 -0.2404
   27CHL1  H19A 1965   2.121   1.852  10.112 -0.6208  0.0708 -0.4006
   27CHL1  H19B 1966   2.099   1.837   9.939 -1.8627 -3.4041  3.3941
   27CHL1  H19C 1967   2.249   1.902   9.987 -0.5995 -0.7557 -0.4993
   27CHL1    C1 1968   2.182   2.128  10.113 -0.0923  0.2833 -0.4934
   27CHL1   H1A 1969   2.292   2.113  10.104  0.2557  0.8087  2.1863
   27CHL1   H1B 1970   2.168   2.238  10.108  0.8379  0.7115  3.2128
   27CHL1    C2 1971   2.144   2.086  10.259  0.0295  0.7647 -0.1030
   27CHL1   H2A 1972   2.187   2.157  10.332  0.1609  0.0327  0.5434
   27CHL1   H2B 1973   2.184   1.983  10.274 -1.2050 -0.1892 -2.6850
   27CHL1   C20 1974   2.286   2.141   9.323 -0.0766  0.0903 -0.4074
   27CHL1   H20 1975   2.290   2.034   9.293  2.3526 -0.7712  2.4856
   27CHL1   C21 1976   2.423   2.201   9.365  0.7343  0.0664  0.3833
   27CHL1  H21A 1977   2.462   2.153   9.458  1.4408 -1.9102 -0.8761
   27CHL1  H21B 1978   2.414   2.308   9.394  0.5639  0.1647 -0.0349
   27CHL1  H21C 1979   2.509   2.205   9.295 -0.5337  1.8946 -1.1424
   27CHL1   C22 1980   2.251   2.217   9.187  0.1493 -0.0430 -0.0198
   27CHL1  H22A 1981   2.150   2.180   9.161 -0.4042  1.9285 -0.8578
   27CHL1  H22B 1982   2.239   2.327   9.196 -1.4700 -0.0061 -1.9282
   27CHL1   C23 1983   2.338   2.175   9.062  0.5851 -0.0133  0.4501
   27CHL1  H23A 1984   2.437   2.227   9.067  1.9557 -2.4641  0.4887
   27CHL1  H23B 1985   2.362   2.066   9.063 -1.1178 -0.4708  3.6500
   27CHL1   C24 1986   2.261   2.210   8.927 -0.5772 -0.2305 -0.4059
   27CHL1  H24A 1987   2.164   2.157   8.922 -1.8593  2.0174 -0.8506
   27CHL1  H24B 1988   2.236   2.317   8.946 -2.2300 -0.8440  1.1903
   27CHL1   C25 1989   2.346   2.196   8.797  0.2083 -0.2033 -0.1774
   27CHL1   H25 1990   2.415   2.282   8.783 -3.0219  2.1216 -4.1045
   27CHL1   C26 1991   2.429   2.064   8.786  0.0045 -0.0222 -0.4366
   27CHL1  H26A 1992   2.362   1.976   8.782  0.4580 -0.4969  1.3217
   27CHL1  H26B 1993   2.480   2.067   8.687 -3.0497  0.4621 -2.1202
   27CHL1  H26C 1994   2.503   2.049   8.868  0.7755 -1.3829 -1.3423
   27CHL1   C27 1995   2.248   2.213   8.675  0.8019  0.2256  0.0594
   27CHL1  H27A 1996   2.167   2.139   8.688  0.5779  0.8751  3.1727
   27CHL1  H27B 1997   2.199   2.313   8.680 -0.2507 -0.3231  1.1434
   27CHL1  H27C 1998   2.303   2.199   8.580  0.3050 -0.8863 -0.0767
   28CHL1    C3 1999   5.318   0.063   9.970  0.0265  0.2476 -0.1913
   28CHL1    H3 2000   5.238   0.140   9.964  0.4262  0.7514  0.6724
   28CHL1    O3 2001   5.322   0.021  10.109 -0.0111 -0.2261  0.7554
   28CHL1   H3' 2002   5.339  -0.074  10.104 -0.5626 -0.3535  1.1505
   28CHL1    C4 2003   5.271  -0.056   9.883 -0.0058 -0.0423  0.1248
   28CHL1   H4A 2004   5.328  -0.150   9.903 -1.9403 -1.1150  0.8439
   28CHL1   H4B 2005   5.172  -0.092   9.917 -0.0270 -0.1498 -0.0469
   28CHL1    C5 2006   5.281  -0.013   9.737  0.0223 -0.3772  0.7874
   28CHL1    C6 2007   5.167  -0.024   9.659 -1.4530 -0.0310  0.0818
   28CHL1    H6 2008   5.078  -0.072   9.699 -1.3792  0.2790  0.6241
   28CHL1    C7 2009   5.161   0.025   9.507 -0.4727 -0.0840  0.1594
   28CHL1   H7A 2010   5.100  -0.049   9.451 -0.5700  0.4051 -0.3877
   28CHL1   H7B 2011   5.115   0.126   9.511  0.1652  0.2512 -0.6137
   28CHL1    C8 2012   5.311   0.027   9.450 -0.5954  0.1933  0.3864
   28CHL1    H8 2013   5.350  -0.077   9.442  2.3976  1.2012  0.7203
   28CHL1   C14 2014   5.305   0.078   9.310 -0.0569  0.5993 -0.8719
   28CHL1   H14 2015   5.254   0.177   9.313 -0.2882  0.4860 -1.0312
   28CHL1   C15 2016   5.225   0.006   9.209 -0.3874  0.2773  0.1645
   28CHL1  H15A 2017   5.256  -0.101   9.203 -1.8759 -0.2134  0.8226
   28CHL1  H15B 2018   5.114   0.003   9.213 -0.4732  1.9095 -0.3602
   28CHL1   C16 2019   5.275   0.069   9.075  0.1443 -0.0731  0.3413
   28CHL1  H16A 2020   5.311  -0.015   9.012  0.2698 -0.4523  0.9122
   28CHL1  H16B 2021   5.181   0.115   9.037 -0.0830  1.4691  2.5960
   28CHL1   C17 2022   5.390   0.160   9.111 -0.0464 -0.1632  0.0239
   28CHL1   H17 2023   5.340   0.257   9.128  1.5406  1.1377 -2.2105
   28CHL1   C13 2024   5.444   0.115   9.249 -0.3028 -0.1536  0.2344
   28CHL1   C18 2025   5.532  -0.008   9.224 -0.4463  0.3825  0.1525
   28CHL1  H18A 2026   5.626   0.025   9.176 -0.1907 -2.6794 -1.7405
   28CHL1  H18B 2027   5.544  -0.062   9.321 -2.0908 -0.2198  0.0509
   28CHL1  H18C 2028   5.475  -0.078   9.160 -0.3975 -0.1105  0.6346
   28CHL1   C12 2029   5.514   0.218   9.344 -0.5657 -0.1658  0.0184
   28CHL1  H12A 2030   5.614   0.242   9.301 -1.5092  0.1301 -2.1770
   28CHL1  H12B 2031   5.458   0.314   9.341  0.2761  0.3309 -0.2905
   28CHL1   C11 2032   5.532   0.163   9.486  0.2371  0.5426  1.3084
   28CHL1  H11A 2033   5.606   0.081   9.468  0.5221  1.4194 -2.3921
   28CHL1  H11B 2034   5.573   0.237   9.558  0.0690  1.1428  0.7963
   28CHL1    C9 2035   5.399   0.113   9.546  0.1174 -0.0888  0.0815
   28CHL1    H9 2036   5.342   0.204   9.574  0.7054 -0.0570  1.2606
   28CHL1   C10 2037   5.417   0.052   9.684 -0.2957 -0.1211 -0.5919
   28CHL1   C19 2038   5.526  -0.056   9.680 -0.1628  0.2508 -0.2804
   28CHL1  H19A 2039   5.549  -0.099   9.780  0.7912  0.5178 -0.3766
   28CHL1  H19B 2040   5.489  -0.135   9.612 -2.9525  1.0752  0.1588
   28CHL1  H19C 2041   5.627  -0.015   9.658  0.6021  1.2588  4.1491
   28CHL1    C1 2042   5.466   0.164   9.791 -0.3144 -0.9667  0.2636
   28CHL1   H1A 2043   5.569   0.199   9.769 -0.7852  2.4873  2.6951
   28CHL1   H1B 2044   5.400   0.252   9.776 -1.1153 -1.4179  1.0276
   28CHL1    C2 2045   5.454   0.117   9.935 -0.2894 -0.5738  0.1921
   28CHL1   H2A 2046   5.467   0.213   9.989 -0.6296  1.2121 -2.7051
   28CHL1   H2B 2047   5.539   0.048   9.958 -1.3215 -2.1534 -0.5319
   28CHL1   C20 2048   5.487   0.187   9.002  0.2865  0.9422  0.1702
   28CHL1   H20 2049   5.553   0.098   8.991  0.3870  1.1635 -1.1799
   28CHL1   C21 2050   5.567   0.306   9.028  0.9108 -0.5176 -1.0094
   28CHL1  H21A 2051   5.501   0.393   9.051  3.1461  1.1087 -0.4782
   28CHL1  H21B 2052   5.627   0.337   8.940  1.4290 -0.4679 -0.6404
   28CHL1  H21C 2053   5.625   0.293   9.121 -0.1528 -0.6853 -0.3567
   28CHL1   C22 2054   5.420   0.211   8.863 -0.2928  0.1379 -0.1724
   28CHL1  H22A 2055   5.501   0.228   8.790 -2.4555  1.7450 -2.3870
   28CHL1  H22B 2056   5.368   0.120   8.826  1.0754 -1.8082  2.3600
   28CHL1   C23 2057   5.320   0.332   8.853  0.0365 -0.2271 -0.1846
   28CHL1  H23A 2058   5.233   0.308   8.919 -1.0592 -2.6162 -2.3552
   28CHL1  H23B 2059   5.357   0.430   8.890 -0.5147 -0.4904  1.1410
   28CHL1   C24 2060   5.277   0.340   8.708 -0.5381  0.2384  0.1388
   28CHL1  H24A 2061   5.367   0.371   8.652 -0.5520  0.0249 -0.0015
   28CHL1  H24B 2062   5.245   0.242   8.665  0.4781  1.2648 -3.2757
   28CHL1   C25 2063   5.162   0.430   8.670  0.0192  0.3613  0.1015
   28CHL1   H25 2064   5.190   0.535   8.689 -0.2643  0.3239  0.7759
   28CHL1   C26 2065   5.131   0.420   8.514 -0.0113  0.0635  0.1242
   28CHL1  H26A 2066   5.060   0.500   8.487  0.5137  0.5096  0.0383
   28CHL1  H26B 2067   5.225   0.450   8.462  0.0815  3.4034  1.9683
   28CHL1  H26C 2068   5.086   0.322   8.488 -0.6480  0.1197  0.9821
   28CHL1   C27 2069   5.032   0.399   8.750 -0.2801 -0.0473  0.5520
   28CHL1  H27A 2070   5.041   0.425   8.858 -0.7012  1.8463  0.1557
   28CHL1  H27B 2071   4.957   0.471   8.712  0.3955 -0.1469 -1.0217
   28CHL1  H27C 2072   4.992   0.296   8.732 -0.1573  0.3282 -2.3707
   29CHL1    C3 2073   6.381   0.714   6.648  0.1724 -0.3598  0.1680
   29CHL1    H3 2074   6.365   0.607   6.672  1.6299 -0.4360  0.8865
   29CHL1    O3 2075   6.377   0.739   6.507  0.7013 -0.0183 -0.6869
   29CHL1   H3' 2076   6.331   0.824   6.504  0.4734 -0.1654 -2.2735
   29CHL1    C4 2077   6.275   0.808   6.713  0.3383  0.0994 -0.0850
   29CHL1   H4A 2078   6.289   0.913   6.681 -3.4535  0.1906 -1.9152
   29CHL1   H4B 2079   6.178   0.775   6.670 -0.4916 -0.0204  1.8042
   29CHL1    C5 2080   6.287   0.786   6.865  0.1194  0.0621 -0.2991
   29CHL1    C6 2081   6.196   0.716   6.937 -0.2031 -0.5522  0.4811
   29CHL1    H6 2082   6.107   0.677   6.884 -1.1171  1.3957  0.5098
   29CHL1    C7 2083   6.208   0.688   7.081  0.2061 -0.0048  0.1757
   29CHL1   H7A 2084   6.111   0.706   7.132  0.4633 -2.4408  1.6630
   29CHL1   H7B 2085   6.232   0.581   7.095 -0.8100 -0.4954 -1.5713
   29CHL1    C8 2086   6.316   0.785   7.145 -0.4323 -0.4308  0.0498
   29CHL1    H8 2087   6.262   0.882   7.138 -1.1448 -0.5855  2.5351
   29CHL1   C14 2088   6.343   0.746   7.288  0.0451 -0.5935 -0.6391
   29CHL1   H14 2089   6.386   0.644   7.282 -1.9854 -1.4422 -1.5783
   29CHL1   C15 2090   6.223   0.715   7.378 -0.1006 -0.7164 -0.7684
   29CHL1  H15A 2091   6.148   0.797   7.374  0.6834 -0.0400 -3.1237
   29CHL1  H15B 2092   6.164   0.623   7.360  0.0629 -0.9199 -0.2765
   29CHL1   C16 2093   6.281   0.716   7.518 -0.9272 -0.4553 -0.0413
   29CHL1  H16A 2094   6.226   0.782   7.588  0.2199 -1.7883  2.1980
   29CHL1  H16B 2095   6.290   0.609   7.548 -2.5228 -0.3955  0.7686
   29CHL1   C17 2096   6.431   0.773   7.510  0.6958  0.5936  0.4406
   29CHL1   H17 2097   6.497   0.684   7.503 -0.8207 -0.5257 -0.2386
   29CHL1   C13 2098   6.435   0.843   7.368 -0.7920  0.8689 -0.9426
   29CHL1   C18 2099   6.372   0.981   7.381  0.2367  0.0393 -0.3622
   29CHL1  H18A 2100   6.371   1.034   7.284  0.9361  0.2071 -0.2890
   29CHL1  H18B 2101   6.263   0.979   7.402  0.3195  0.9931  0.2313
   29CHL1  H18C 2102   6.429   1.045   7.452 -0.7273  0.2736  0.2160
   29CHL1   C12 2103   6.574   0.849   7.300 -0.1431  0.0706  0.1531
   29CHL1  H12A 2104   6.642   0.925   7.346  1.0694 -1.1997  0.5044
   29CHL1  H12B 2105   6.629   0.755   7.317  2.0710  1.1186 -0.7624
   29CHL1   C11 2106   6.560   0.879   7.149  0.2121 -0.4707  0.4197
   29CHL1  H11A 2107   6.554   0.990   7.139  1.9013 -0.5007 -1.3975
   29CHL1  H11B 2108   6.651   0.855   7.091 -1.0616 -1.5442 -1.2442
   29CHL1    C9 2109   6.445   0.804   7.072  0.5591  0.5353  0.4412
   29CHL1    H9 2110   6.491   0.703   7.073 -0.2391  0.0298 -2.4893
   29CHL1   C10 2111   6.416   0.838   6.924  0.4243 -1.3107  0.4320
   29CHL1   C19 2112   6.423   0.997   6.900  0.4121 -0.4424  0.3762
   29CHL1  H19A 2113   6.349   1.058   6.954  0.8453  0.6217 -0.2059
   29CHL1  H19B 2114   6.521   1.037   6.931  0.6804  0.1521 -1.1238
   29CHL1  H19C 2115   6.413   1.019   6.791  1.7989 -2.0256 -0.1146
   29CHL1    C1 2116   6.535   0.774   6.845 -0.4456  0.8063  0.0256
   29CHL1   H1A 2117   6.632   0.817   6.879 -0.1067 -0.2845  0.4713
   29CHL1   H1B 2118   6.556   0.670   6.877  2.2830  0.5375 -2.2718
   29CHL1    C2 2119   6.524   0.766   6.691 -0.0812 -0.4951 -0.0118
   29CHL1   H2A 2120   6.595   0.699   6.638  0.6695 -0.7810  1.3203
   29CHL1   H2B 2121   6.534   0.860   6.632  1.3685 -1.2829 -1.0996
   29CHL1   C20 2122   6.470   0.846   7.634 -0.3495 -0.3214  0.1161
   29CHL1   H20 2123   6.415   0.941   7.654 -0.1871 -0.2829  0.3870
   29CHL1   C21 2124   6.613   0.875   7.629 -0.2092 -1.3341  0.7875
   29CHL1  H21A 2125   6.647   0.912   7.728 -1.3524 -0.1654  0.7652
   29CHL1  H21B 2126   6.637   0.948   7.549 -1.0502 -3.8061 -1.8929
   29CHL1  H21C 2127   6.665   0.778   7.611 -1.2966 -1.7928  0.0032
   29CHL1   C22 2128   6.453   0.757   7.760  0.6594 -0.0403 -0.4929
   29CHL1  H22A 2129   6.346   0.736   7.777  0.7583 -0.0090  0.2173
   29CHL1  H22B 2130   6.516   0.666   7.752 -0.5099 -0.8129 -0.9918
   29CHL1   C23 2131   6.492   0.823   7.902  0.0104  0.4605  0.3635
   29CHL1  H23A 2132   6.602   0.817   7.916 -0.1521  0.6513  1.8514
   29CHL1  H23B 2133   6.455   0.928   7.896 -2.1049 -0.3104 -0.9732
   29CHL1   C24 2134   6.430   0.753   8.024 -0.1640  0.5303  0.6500
   29CHL1  H24A 2135   6.330   0.801   8.026  0.5964  2.2966 -0.6982
   29CHL1  H24B 2136   6.420   0.647   7.994  0.9524  1.0191 -1.7372
   29CHL1   C25 2137   6.499   0.757   8.162 -0.1692  0.1259 -0.2963
   29CHL1   H25 2138   6.419   0.723   8.231  1.5547 -1.7843  0.8744
   29CHL1   C26 2139   6.614   0.660   8.174 -0.6627 -0.1270  0.5354
   29CHL1  H26A 2140   6.702   0.703   8.123 -2.9616  2.1601 -1.8182
   29CHL1  H26B 2141   6.645   0.657   8.281  1.3789  3.2920  0.1678
   29CHL1  H26C 2142   6.595   0.558   8.135  1.2090 -0.5516  0.6677
   29CHL1   C27 2143   6.541   0.894   8.207  0.2532 -1.0842  0.0807
   29CHL1  H27A 2144   6.457   0.963   8.187  0.1649 -1.4006 -0.6969
   29CHL1  H27B 2145   6.561   0.896   8.316 -2.4198  0.0342  0.6203
   29CHL1  H27C 2146   6.627   0.939   8.153  1.0676 -1.3390  1.1454
   30CHL1    C3 2147   4.873   4.074   7.152 -0.2288 -0.0242 -0.3541
   30CHL1    H3 2148   4.983   4.076   7.158 -0.2241 -0.6959 -0.1488
   30CHL1    O3 2149   4.837   4.060   7.019  0.1800  0.7367 -0.0153
   30CHL1   H3' 2150   4.742   4.071   7.012 -0.1604 -1.4544  0.3910
   30CHL1    C4 2151   4.798   3.974   7.243 -0.4092  0.1917 -0.2971
   30CHL1   H4A 2152   4.690   3.961   7.221 -0.1881 -0.7736 -0.8700
   30CHL1   H4B 2153   4.830   3.871   7.214 -3.8182 -0.7026 -1.3357
   30CHL1    C5 2154   4.833   4.004   7.383  0.5451  0.4436  0.0664
   30CHL1    C6 2155   4.897   3.913   7.463 -0.2985 -0.1197 -0.3808
   30CHL1    H6 2156   4.938   3.821   7.418  0.8127  0.7487 -1.2175
   30CHL1    C7 2157   4.911   3.930   7.611 -0.4667 -0.2252 -0.3612
   30CHL1   H7A 2158   4.889   3.837   7.667  1.8424 -1.6334 -1.6107
   30CHL1   H7B 2159   5.019   3.950   7.626 -0.2629 -0.8136 -0.9562
   30CHL1    C8 2160   4.819   4.039   7.672  0.5222  0.2625 -0.5732
   30CHL1    H8 2161   4.719   3.992   7.683 -0.2966  2.1571  0.5697
   30CHL1   C14 2162   4.877   4.082   7.807  0.6170  0.4968  0.4345
   30CHL1   H14 2163   4.975   4.127   7.781  0.6704 -0.7907 -1.8496
   30CHL1   C15 2164   4.904   3.967   7.906 -0.3962 -0.2575 -0.8750
   30CHL1  H15A 2165   4.819   3.898   7.886 -0.4235 -0.9604  1.4251
   30CHL1  H15B 2166   5.008   3.926   7.897  0.5470  1.6132  0.7669
   30CHL1   C16 2167   4.906   4.040   8.042  0.1342  0.3372  0.2671
   30CHL1  H16A 2168   4.832   3.989   8.107 -0.4326 -2.8324 -2.5835
   30CHL1  H16B 2169   5.008   4.031   8.085  0.7728  0.1834 -1.2223
   30CHL1   C17 2170   4.881   4.192   8.010  0.0005 -0.3946  0.9130
   30CHL1   H17 2171   4.980   4.227   7.974 -0.0929  0.2825  1.2749
   30CHL1   C13 2172   4.796   4.190   7.883  0.8753 -0.8295 -0.0317
   30CHL1   C18 2173   4.653   4.137   7.914  0.1502 -0.0273  0.3405
   30CHL1  H18A 2174   4.603   4.219   7.970  0.3545  0.1457  0.2722
   30CHL1  H18B 2175   4.598   4.105   7.823  2.7117 -1.3600 -0.8403
   30CHL1  H18C 2176   4.661   4.048   7.979 -2.8555 -0.6038  0.0525
   30CHL1   C12 2177   4.793   4.319   7.801  0.1356 -0.3835  0.1432
   30CHL1  H12A 2178   4.716   4.392   7.834 -1.1745 -1.3836 -0.6149
   30CHL1  H12B 2179   4.893   4.368   7.810  0.6933 -1.5099  0.2201
   30CHL1   C11 2180   4.753   4.288   7.656  0.1730 -0.5652 -0.4659
   30CHL1  H11A 2181   4.646   4.262   7.667  0.3737 -0.8338  1.0764
   30CHL1  H11B 2182   4.746   4.373   7.585 -0.6462 -1.5149 -1.5593
   30CHL1    C9 2183   4.811   4.167   7.582 -0.3362  0.5224 -0.6062
   30CHL1    H9 2184   4.917   4.200   7.572  0.1755 -0.4524  1.0842
   30CHL1   C10 2185   4.777   4.139   7.432 -0.4560 -0.0061 -0.1864
   30CHL1   C19 2186   4.625   4.147   7.418 -0.2659  0.6951 -0.1497
   30CHL1  H19A 2187   4.588   4.131   7.314 -0.6942 -1.9049  0.3357
   30CHL1  H19B 2188   4.569   4.083   7.489 -0.6577  0.4439 -0.6812
   30CHL1  H19C 2189   4.604   4.252   7.449 -1.2250  0.6229 -0.5168
   30CHL1    C1 2190   4.845   4.236   7.338  0.1330 -0.6389  0.3420
   30CHL1   H1A 2191   4.803   4.337   7.360  2.0527  0.1301  0.6199
   30CHL1   H1B 2192   4.953   4.250   7.360 -0.1506  0.5043  1.0592
   30CHL1    C2 2193   4.836   4.211   7.184  0.2068  0.1159  0.4512
   30CHL1   H2A 2194   4.916   4.270   7.135 -1.1934  0.4653 -1.5320
   30CHL1   H2B 2195   4.739   4.254   7.150  0.3038 -0.5308 -0.6815
   30CHL1   C20 2196   4.841   4.263   8.140  0.4132 -0.2167  0.1198
   30CHL1   H20 2197   4.738   4.229   8.162 -0.3062  1.3347 -0.6809
   30CHL1   C21 2198   4.847   4.416   8.116  0.0266  0.5921  0.3726
   30CHL1  H21A 2199   4.813   4.474   8.204  0.5913  0.4536  0.6879
   30CHL1  H21B 2200   4.761   4.444   8.051 -0.3166  1.4991  1.1892
   30CHL1  H21C 2201   4.947   4.459   8.095 -0.3940  1.7749  0.7051
   30CHL1   C22 2202   4.932   4.238   8.266 -0.3197 -0.8940 -0.1304
   30CHL1  H22A 2203   4.953   4.129   8.278  0.7207 -0.8342 -1.1883
   30CHL1  H22B 2204   5.024   4.293   8.237 -0.7208 -1.2453 -2.2586
   30CHL1   C23 2205   4.886   4.299   8.400 -0.0495  0.2003 -0.2708
   30CHL1  H23A 2206   4.860   4.406   8.388 -1.5144  0.3313  3.0293
   30CHL1  H23B 2207   4.793   4.245   8.428  0.2667 -0.6824 -0.8633
   30CHL1   C24 2208   4.992   4.277   8.514 -0.0566 -0.2289 -0.2354
   30CHL1  H24A 2209   5.019   4.170   8.521 -2.0154 -0.7300  0.2968
   30CHL1  H24B 2210   5.084   4.329   8.479 -1.5122  1.8935 -1.1750
   30CHL1   C25 2211   4.950   4.333   8.652  0.5673 -0.1065  0.4002
   30CHL1   H25 2212   5.038   4.317   8.717  1.1653 -0.9414 -0.5838
   30CHL1   C26 2213   4.920   4.488   8.648 -0.3369  0.2815  0.2927
   30CHL1  H26A 2214   5.009   4.549   8.626  0.4156 -0.1079  2.1044
   30CHL1  H26B 2215   4.845   4.504   8.567  2.2069 -1.3728 -2.6324
   30CHL1  H26C 2216   4.880   4.529   8.742 -2.6710  2.0479 -1.3546
   30CHL1   C27 2217   4.831   4.258   8.715  0.0375  1.0536  0.3478
   30CHL1  H27A 2218   4.730   4.255   8.668  0.0742 -0.6096  0.2979
   30CHL1  H27B 2219   4.858   4.151   8.733 -0.5742  1.0749  1.4795
   30CHL1  H27C 2220   4.799   4.301   8.813 -0.7865  1.1409  0.0471
   31CHL1    C3 2221   2.729   5.572   6.740  0.1407 -0.3750 -0.0719
   31CHL1    H3 2222   2.640   5.613   6.791  0.5721  0.0828  0.3313
   31CHL1    O3 2223   2.750   5.649   6.622 -0.0422 -0.2385 -0.3191
   31CHL1   H3' 2224   2.816   5.599   6.575  0.2750  0.5655 -0.7552
   31CHL1    C4 2225   2.850   5.588   6.829 -0.4357  0.5987 -0.2185
   31CHL1   H4A 2226   2.937   5.544   6.777 -0.1999 -0.3665  0.9334
   31CHL1   H4B 2227   2.862   5.696   6.854  0.0257  0.2419  1.2015
   31CHL1    C5 2228   2.832   5.515   6.956  0.0445 -0.2372 -0.5478
   31CHL1    C6 2229   2.838   5.580   7.075  0.3649  0.1502 -0.6044
   31CHL1    H6 2230   2.859   5.688   7.081  3.6139 -0.3528 -0.9662
   31CHL1    C7 2231   2.833   5.524   7.211  0.8581 -0.1125  0.4745
   31CHL1   H7A 2232   2.921   5.558   7.268  0.1862 -0.4034  1.7435
   31CHL1   H7B 2233   2.744   5.553   7.271 -0.1765 -0.4249 -0.8484
   31CHL1    C8 2234   2.842   5.361   7.196 -0.2702 -0.2416  0.5145
   31CHL1    H8 2235   2.946   5.332   7.173 -0.3281 -0.9927  1.1783
   31CHL1   C14 2236   2.799   5.286   7.318 -0.8104  0.8874  0.2995
   31CHL1   H14 2237   2.690   5.297   7.335 -1.1234  0.4242 -1.2668
   31CHL1   C15 2238   2.865   5.337   7.445 -0.1052  0.1032 -0.5038
   31CHL1  H15A 2239   2.974   5.350   7.427 -0.2610 -0.3477 -1.8698
   31CHL1  H15B 2240   2.835   5.437   7.483  1.8802  0.5486  0.0050
   31CHL1   C16 2241   2.848   5.224   7.550 -0.5844  0.0356  0.4049
   31CHL1  H16A 2242   2.943   5.207   7.605 -0.1428  1.6732  0.2046
   31CHL1  H16B 2243   2.782   5.260   7.631  1.8219  4.2266  0.7979
   31CHL1   C17 2244   2.790   5.104   7.471 -0.0893  0.2607 -0.2764
   31CHL1   H17 2245   2.680   5.114   7.481 -0.2256 -0.0844 -1.2999
   31CHL1   C13 2246   2.824   5.140   7.324 -0.2727  0.3308  0.4962
   31CHL1   C18 2247   2.978   5.110   7.288  0.9272 -0.5643 -0.9388
   31CHL1  H18A 2248   3.044   5.186   7.334 -2.1791  0.4499  2.2671
   31CHL1  H18B 2249   3.012   5.010   7.321  0.6647 -1.2768 -2.7282
   31CHL1  H18C 2250   2.981   5.117   7.177 -2.1224 -3.0256 -1.3109
   31CHL1   C12 2251   2.737   5.076   7.212  0.0818 -0.6570  0.2150
   31CHL1  H12A 2252   2.757   4.967   7.204 -2.6473 -1.3390  1.6478
   31CHL1  H12B 2253   2.629   5.087   7.232  0.0296 -0.3243 -0.2350
   31CHL1   C11 2254   2.756   5.142   7.076 -0.4082 -0.3505  0.3457
   31CHL1  H11A 2255   2.853   5.094   7.049  0.2103  0.5129  0.9528
   31CHL1  H11B 2256   2.675   5.117   7.005 -2.4593  0.0843  2.4158
   31CHL1    C9 2257   2.762   5.302   7.076  0.5225  0.0705  0.2601
   31CHL1    H9 2258   2.658   5.329   7.105  1.3551  3.0744  0.7984
   31CHL1   C10 2259   2.796   5.361   6.937 -0.0736 -0.7262 -0.4324
   31CHL1   C19 2260   2.921   5.291   6.887  0.2381 -0.2838  0.6725
   31CHL1  H19A 2261   2.943   5.318   6.782  0.8097  0.4605  0.9795
   31CHL1  H19B 2262   3.007   5.319   6.951  2.5256  0.8577 -2.6618
   31CHL1  H19C 2263   2.906   5.181   6.881  0.7901 -0.3110 -0.6069
   31CHL1    C1 2264   2.674   5.349   6.837  0.3252  0.0093 -0.2545
   31CHL1   H1A 2265   2.666   5.241   6.812 -1.1199  0.2144 -0.7513
   31CHL1   H1B 2266   2.581   5.389   6.881  0.4682 -0.0499  0.1007
   31CHL1    C2 2267   2.703   5.419   6.702  0.7676 -0.2822 -0.1430
   31CHL1   H2A 2268   2.621   5.424   6.628  0.8361  0.7923 -0.1594
   31CHL1   H2B 2269   2.790   5.369   6.653 -0.2423 -1.4027 -0.8532
   31CHL1   C20 2270   2.836   4.965   7.534 -0.4597 -0.1638  0.3720
   31CHL1   H20 2271   2.946   4.952   7.537 -0.6485 -2.1976 -0.1882
   31CHL1   C21 2272   2.777   4.847   7.459  1.0462 -0.1314  0.0652
   31CHL1  H21A 2273   2.756   4.755   7.518  0.7907  0.3649  0.7578
   31CHL1  H21B 2274   2.852   4.830   7.379  0.2006  1.2869 -1.0756
   31CHL1  H21C 2275   2.682   4.878   7.411 -1.5662 -2.5951  3.1088
   31CHL1   C22 2276   2.780   4.957   7.672 -0.0511  0.2016 -0.2830
   31CHL1  H22A 2277   2.797   5.043   7.740 -0.3330  0.2282 -0.2441
   31CHL1  H22B 2278   2.670   4.946   7.655  0.2150  0.1118 -2.1997
   31CHL1   C23 2279   2.829   4.838   7.768  0.7019 -0.6307  0.5028
   31CHL1  H23A 2280   2.760   4.753   7.749  0.2999  0.1712 -1.9280
   31CHL1  H23B 2281   2.932   4.805   7.742  2.0081  1.8609  2.1170
   31CHL1   C24 2282   2.803   4.869   7.922 -0.6335  0.4391  0.9098
   31CHL1  H24A 2283   2.852   4.967   7.939  0.1549  0.7780 -2.4627
   31CHL1  H24B 2284   2.693   4.885   7.924 -0.7517  0.4562 -1.8278
   31CHL1   C25 2285   2.852   4.761   8.015  0.0373  0.1108  0.4117
   31CHL1   H25 2286   2.962   4.756   8.005  0.1537  0.5542  1.3086
   31CHL1   C26 2287   2.809   4.797   8.163  0.3981  0.0805  0.2978
   31CHL1  H26A 2288   2.840   4.899   8.195 -0.3924  0.7088 -0.8637
   31CHL1  H26B 2289   2.698   4.795   8.173  0.3209 -2.0276 -0.5263
   31CHL1  H26C 2290   2.849   4.720   8.233 -1.7180  0.9336  2.6252
   31CHL1   C27 2291   2.781   4.628   7.993  0.0068 -0.0859  0.2180
   31CHL1  H27A 2292   2.671   4.638   7.999 -0.2348 -0.4880 -2.5204
   31CHL1  H27B 2293   2.821   4.548   8.060  0.5056  1.0951  1.3703
   31CHL1  H27C 2294   2.812   4.589   7.893 -1.6061 -0.1620 -0.2742
   32CHL1    C3 2295   6.754   4.581   6.690  0.3446 -1.2402  0.1598
   32CHL1    H3 2296   6.764   4.691   6.698  0.7923 -1.3142  0.6747
   32CHL1    O3 2297   6.729   4.528   6.562  0.1201 -0.4727 -0.0853
   32CHL1   H3' 2298   6.815   4.536   6.519 -0.4961  1.0925 -1.1304
   32CHL1    C4 2299   6.880   4.518   6.743 -0.1367 -0.1547  0.0770
   32CHL1   H4A 2300   6.871   4.408   6.732 -1.4913 -0.0065 -0.4930
   32CHL1   H4B 2301   6.970   4.544   6.683  1.0167 -0.6163  1.5393
   32CHL1    C5 2302   6.911   4.559   6.888  0.4714 -0.3599 -0.2362
   32CHL1    C6 2303   7.027   4.601   6.934  0.0652  0.1615 -0.2386
   32CHL1    H6 2304   7.109   4.608   6.862  1.0175  1.6562  0.9273
   32CHL1    C7 2305   7.067   4.638   7.079 -0.7890 -0.2979  0.6651
   32CHL1   H7A 2306   7.166   4.594   7.104 -0.3365  0.0144 -0.4951
   32CHL1   H7B 2307   7.068   4.749   7.084 -0.2800 -0.3643  2.4531
   32CHL1    C8 2308   6.957   4.598   7.171 -0.6705  0.8111  0.7729
   32CHL1    H8 2309   6.970   4.492   7.199 -3.4412 -0.0563 -0.8983
   32CHL1   C14 2310   6.978   4.678   7.297 -0.9334  0.3888 -0.5452
   32CHL1   H14 2311   6.967   4.787   7.275 -1.2661  0.0279 -2.3633
   32CHL1   C15 2312   7.123   4.673   7.354  0.0231  0.0401 -0.5123
   32CHL1  H15A 2313   7.155   4.566   7.347  0.3489  0.0654  0.4105
   32CHL1  H15B 2314   7.191   4.742   7.300  0.2221  0.6002  0.4378
   32CHL1   C16 2315   7.109   4.709   7.500  0.5651 -0.4183 -0.4796
   32CHL1  H16A 2316   7.139   4.626   7.567 -1.4231 -0.4924  0.3990
   32CHL1  H16B 2317   7.172   4.797   7.526 -2.6559  1.6979  0.8049
   32CHL1   C17 2318   6.957   4.734   7.529 -0.3983  0.8988 -0.0293
   32CHL1   H17 2319   6.924   4.837   7.507 -3.6162  0.0032  0.1882
   32CHL1   C13 2320   6.884   4.657   7.410 -0.3151 -0.0642  0.0535
   32CHL1   C18 2321   6.874   4.506   7.449 -0.1358 -0.2821  0.6831
   32CHL1  H18A 2322   6.830   4.436   7.375 -2.7957  1.0551  0.8906
   32CHL1  H18B 2323   6.967   4.459   7.486  0.1852 -0.6933 -0.5890
   32CHL1  H18C 2324   6.803   4.502   7.534  2.0886 -1.2486  2.6273
   32CHL1   C12 2325   6.749   4.704   7.368  0.5866  0.2658  0.4882
   32CHL1  H12A 2326   6.672   4.678   7.444  0.6877  0.1729  0.5579
   32CHL1  H12B 2327   6.749   4.814   7.353  1.3782  0.2284  0.1815
   32CHL1   C11 2328   6.709   4.634   7.242 -0.2518  0.3254 -0.4951
   32CHL1  H11A 2329   6.689   4.525   7.247 -1.0877  0.5183  0.7180
   32CHL1  H11B 2330   6.613   4.672   7.201  1.2874  2.1478 -2.6805
   32CHL1    C9 2331   6.817   4.634   7.121  0.6488  0.2097  0.9486
   32CHL1    H9 2332   6.819   4.743   7.096 -1.6354 -0.0104 -0.4666
   32CHL1   C10 2333   6.789   4.553   6.984  0.2769 -0.3308 -0.2718
   32CHL1   C19 2334   6.775   4.410   7.025 -0.4025  0.6539  0.6663
   32CHL1  H19A 2335   6.762   4.341   6.938 -0.2076  1.8153 -0.3070
   32CHL1  H19B 2336   6.873   4.379   7.067  0.6886 -0.0252 -2.1352
   32CHL1  H19C 2337   6.694   4.379   7.094 -1.4245  0.8629 -0.3949
   32CHL1    C1 2338   6.660   4.612   6.921 -0.3048  0.0817  0.0822
   32CHL1   H1A 2339   6.572   4.573   6.977 -0.5644  0.1620 -0.2736
   32CHL1   H1B 2340   6.670   4.722   6.932 -3.3164  0.6192 -1.6029
   32CHL1    C2 2341   6.632   4.561   6.783  0.0196 -0.2363  0.2970
   32CHL1   H2A 2342   6.550   4.626   6.745  1.4382  1.6149  0.2748
   32CHL1   H2B 2343   6.604   4.454   6.788  0.5448 -0.3253  1.4252
   32CHL1   C20 2344   6.918   4.712   7.677 -0.3424  0.1975 -0.3820
   32CHL1   H20 2345   6.959   4.613   7.705  0.0141  0.1015 -1.2037
   32CHL1   C21 2346   6.768   4.729   7.701  0.1671  0.2414 -0.3548
   32CHL1  H21A 2347   6.710   4.646   7.655 -1.9404  2.7924 -2.5642
   32CHL1  H21B 2348   6.744   4.827   7.654 -1.2199  1.2420  2.2425
   32CHL1  H21C 2349   6.738   4.737   7.808 -0.7265  0.3854 -0.6149
   32CHL1   C22 2350   6.989   4.809   7.771  0.2399 -0.1463  1.0004
   32CHL1  H22A 2351   7.091   4.841   7.743 -0.2018  0.3151 -0.1344
   32CHL1  H22B 2352   6.933   4.903   7.791  1.9373  0.8079  1.4462
   32CHL1   C23 2353   7.010   4.742   7.907 -0.8493  0.0150 -0.2872
   32CHL1  H23A 2354   6.920   4.695   7.953  0.2798 -0.6558  1.3084
   32CHL1  H23B 2355   7.074   4.653   7.890  0.2417  0.9098 -1.0005
   32CHL1   C24 2356   7.062   4.828   8.023  0.3730  0.3239  0.3335
   32CHL1  H24A 2357   6.968   4.878   8.055 -0.6587 -2.7124  2.5275
   32CHL1  H24B 2358   7.077   4.773   8.119 -0.4981  1.9763  1.4752
   32CHL1   C25 2359   7.173   4.934   7.989 -0.7694 -0.1082  0.7623
   32CHL1   H25 2360   7.162   4.981   7.889  1.0475 -0.5681  0.3088
   32CHL1   C26 2361   7.167   5.051   8.086 -0.9168  0.1085  0.0672
   32CHL1  H26A 2362   7.069   5.101   8.072 -0.3050  1.6631  1.1097
   32CHL1  H26B 2363   7.154   5.009   8.188  0.4952  0.3187  0.3614
   32CHL1  H26C 2364   7.250   5.124   8.082 -2.6679  2.1571 -3.4688
   32CHL1   C27 2365   7.313   4.873   8.000 -1.2168  0.1651 -0.6935
   32CHL1  H27A 2366   7.327   4.782   7.937  0.1246 -0.9417  1.0983
   32CHL1  H27B 2367   7.399   4.942   7.990 -0.4984 -0.8169 -1.5241
   32CHL1  H27C 2368   7.329   4.848   8.107 -2.9087 -0.4351 -0.5587
   33CHL1    C3 2369   0.652   5.015   6.800  0.5039  0.2747  0.4096
   33CHL1    H3 2370   0.724   5.098   6.782 -0.7070  1.3463  0.3408
   33CHL1    O3 2371   0.614   4.964   6.678 -0.4561 -0.1594  0.2834
   33CHL1   H3' 2372   0.581   5.041   6.631  2.1663  1.3834  0.8269
   33CHL1    C4 2373   0.735   4.909   6.872 -0.0923  0.1430 -0.0914
   33CHL1   H4A 2374   0.687   4.809   6.877 -1.9264  1.0234  1.9824
   33CHL1   H4B 2375   0.831   4.898   6.818  1.0990  1.2362  1.6555
   33CHL1    C5 2376   0.770   4.949   7.015  0.5829 -0.6138  0.8428
   33CHL1    C6 2377   0.895   4.940   7.060 -0.1107  0.4255 -0.6435
   33CHL1    H6 2378   0.974   4.889   7.003  1.1629 -1.0712  2.2491
   33CHL1    C7 2379   0.920   4.986   7.202 -0.7968 -0.9394  0.3671
   33CHL1   H7A 2380   1.013   4.944   7.247  0.2918  1.4726  0.5019
   33CHL1   H7B 2381   0.938   5.093   7.177 -1.2263 -1.2230 -1.3146
   33CHL1    C8 2382   0.804   4.975   7.300 -0.0016  0.1031 -0.6668
   33CHL1    H8 2383   0.773   4.871   7.320  0.0018  0.0909 -0.7235
   33CHL1   C14 2384   0.838   5.034   7.435 -0.1324  0.1872 -0.0311
   33CHL1   H14 2385   0.859   5.138   7.404 -1.6714  0.1438 -1.3581
   33CHL1   C15 2386   0.957   4.975   7.512  0.5016 -0.2112 -0.1346
   33CHL1  H15A 2387   0.931   4.867   7.518  1.3585 -0.4633 -0.6929
   33CHL1  H15B 2388   1.062   4.977   7.475  0.4057 -2.2594 -0.6726
   33CHL1   C16 2389   0.942   5.037   7.653 -0.4884  0.4867 -0.2242
   33CHL1  H16A 2390   0.951   4.963   7.736  1.4721  0.3121 -0.5565
   33CHL1  H16B 2391   1.013   5.121   7.665 -2.5032  2.3309 -0.6311
   33CHL1   C17 2392   0.805   5.108   7.657 -0.4662  0.2336  0.9578
   33CHL1   H17 2393   0.823   5.214   7.628 -0.3355  0.4754  1.8995
   33CHL1   C13 2394   0.722   5.035   7.542 -0.2412  0.0372 -0.2466
   33CHL1   C18 2395   0.669   4.897   7.598  0.1187 -1.1735 -0.0243
   33CHL1  H18A 2396   0.747   4.836   7.649 -1.1459 -1.3623  1.8109
   33CHL1  H18B 2397   0.582   4.915   7.666  1.5930  2.4944  1.1547
   33CHL1  H18C 2398   0.637   4.845   7.505  1.1764  1.5739 -2.0519
   33CHL1   C12 2399   0.610   5.121   7.478 -0.3179  0.2052 -0.6367
   33CHL1  H12A 2400   0.536   5.106   7.559  2.7846  1.4470  2.6854
   33CHL1  H12B 2401   0.641   5.227   7.476  3.2745 -0.7122 -2.3456
   33CHL1   C11 2402   0.564   5.057   7.345 -0.4663  0.0501 -0.2007
   33CHL1  H11A 2403   0.531   4.953   7.367  0.8376  0.0032  1.7090
   33CHL1  H11B 2404   0.477   5.115   7.307 -1.0221 -0.2918  0.5035
   33CHL1    C9 2405   0.681   5.046   7.241 -0.3006  0.4400  0.3607
   33CHL1    H9 2406   0.701   5.154   7.224  1.6722 -0.1307 -1.3753
   33CHL1   C10 2407   0.651   4.995   7.095  0.8450 -0.0625  0.1492
   33CHL1   C19 2408   0.556   4.875   7.123  0.4987  0.0557 -0.3581
   33CHL1  H19A 2409   0.456   4.911   7.156  0.0031  1.4236 -3.0993
   33CHL1  H19B 2410   0.533   4.823   7.027  2.0717  2.9401 -2.4568
   33CHL1  H19C 2411   0.600   4.796   7.187  1.6193  1.5815  0.8637
   33CHL1    C1 2412   0.570   5.103   7.020  0.8043 -0.2586  0.6501
   33CHL1   H1A 2413   0.478   5.138   7.072 -1.7149 -1.3127 -2.6945
   33CHL1   H1B 2414   0.641   5.187   7.008  0.3129 -0.0812 -1.6186
   33CHL1    C2 2415   0.533   5.060   6.874  0.1306  0.3489  0.2015
   33CHL1   H2A 2416   0.482   5.140   6.817  0.7804  1.2231  0.8155
   33CHL1   H2B 2417   0.459   4.980   6.891  1.1041 -1.1332 -2.0436
   33CHL1   C20 2418   0.746   5.124   7.799 -0.0255 -0.8518 -0.3592
   33CHL1   H20 2419   0.738   5.027   7.852 -0.4743 -0.7338 -0.2067
   33CHL1   C21 2420   0.603   5.194   7.794 -0.4814 -0.0530 -0.3940
   33CHL1  H21A 2421   0.562   5.210   7.896  0.4145 -2.0000  0.3323
   33CHL1  H21B 2422   0.522   5.142   7.740 -2.0342  2.6642 -0.8511
   33CHL1  H21C 2423   0.623   5.291   7.744 -1.3238  0.9546  1.1547
   33CHL1   C22 2424   0.840   5.201   7.883 -0.1895  0.2506 -0.4791
   33CHL1  H22A 2425   0.939   5.151   7.895 -1.0776 -1.0350  2.0936
   33CHL1  H22B 2426   0.865   5.305   7.852 -0.2657  0.0770 -1.1338
   33CHL1   C23 2427   0.784   5.222   8.027 -0.0190  0.5525  0.0957
   33CHL1  H23A 2428   0.693   5.286   8.024  0.3405  1.3092  2.7372
   33CHL1  H23B 2429   0.746   5.120   8.049 -0.9634  0.1579 -2.9366
   33CHL1   C24 2430   0.887   5.278   8.129  0.4494 -1.1473  0.3715
   33CHL1  H24A 2431   0.944   5.198   8.179  2.4920 -0.0267 -0.0583
   33CHL1  H24B 2432   0.960   5.339   8.071 -0.1559  0.3326  1.0952
   33CHL1   C25 2433   0.814   5.372   8.238 -0.3165  0.1813  0.2623
   33CHL1   H25 2434   0.747   5.440   8.181  0.3521 -0.8002 -1.7773
   33CHL1   C26 2435   0.735   5.286   8.336  0.6249 -0.1731 -0.0826
   33CHL1  H26A 2436   0.662   5.223   8.281  0.7548  0.6585 -1.2245
   33CHL1  H26B 2437   0.799   5.222   8.401 -0.6122 -1.6793 -0.2830
   33CHL1  H26C 2438   0.682   5.359   8.400  0.6267 -1.0830  0.9972
   33CHL1   C27 2439   0.927   5.451   8.319  0.2813  0.3047  1.0610
   33CHL1  H27A 2440   0.998   5.382   8.369 -0.2640  0.8648  2.6699
   33CHL1  H27B 2441   0.985   5.512   8.246 -0.3576 -0.0875  0.1977
   33CHL1  H27C 2442   0.886   5.526   8.390 -0.4481 -0.1934  1.1778
   34CHL1    C3 2443   0.897   3.442   7.007  0.4262  0.9723 -0.0066
   34CHL1    H3 2444   0.889   3.548   6.974 -0.3431  1.2073  0.8680
   34CHL1    O3 2445   0.932   3.367   6.891 -0.3881  0.4907  0.0773
   34CHL1   H3' 2446   1.017   3.400   6.863 -0.1919  0.0084  0.1097
   34CHL1    C4 2447   1.010   3.429   7.107  0.3972 -0.7179 -0.1247
   34CHL1   H4A 2448   1.050   3.326   7.112  0.4308 -0.7175 -0.3666
   34CHL1   H4B 2449   1.091   3.493   7.064  0.2385 -0.4913 -0.0842
   34CHL1    C5 2450   0.971   3.472   7.253  0.6410 -0.4968  0.0054
   34CHL1    C6 2451   1.041   3.563   7.321  0.1496 -0.1636 -0.3542
   34CHL1    H6 2452   1.134   3.604   7.280  1.7138 -1.7927  1.3570
   34CHL1    C7 2453   1.025   3.593   7.467 -0.5315  0.7003  0.5094
   34CHL1   H7A 2454   1.123   3.616   7.515  0.0425  3.7712 -1.8330
   34CHL1   H7B 2455   0.975   3.692   7.468 -0.7988  0.5679  0.1415
   34CHL1    C8 2456   0.937   3.490   7.532  0.1383  1.0126  0.0850
   34CHL1    H8 2457   0.995   3.396   7.538  0.1708  0.9953 -0.4131
   34CHL1   C14 2458   0.899   3.528   7.672 -0.2937 -0.4543  0.2132
   34CHL1   H14 2459   0.859   3.631   7.654  1.5979 -0.2011 -3.5905
   34CHL1   C15 2460   1.022   3.554   7.768 -0.6715  0.2061  0.0772
   34CHL1  H15A 2461   1.092   3.467   7.767 -0.2328  0.4674  2.1686
   34CHL1  H15B 2462   1.069   3.652   7.746 -0.8491  0.2669 -0.0306
   34CHL1   C16 2463   0.954   3.546   7.905 -0.0701 -0.0738 -0.6834
   34CHL1  H16A 2464   1.008   3.466   7.961 -0.4459  1.0790  1.4416
   34CHL1  H16B 2465   0.967   3.632   7.974 -1.2221  0.4032 -1.0425
   34CHL1   C17 2466   0.799   3.511   7.887 -0.0717 -0.2653  1.3187
   34CHL1   H17 2467   0.758   3.612   7.863  4.2339  1.3652 -0.2133
   34CHL1   C13 2468   0.796   3.442   7.752 -0.0692  0.4390 -0.5010
   34CHL1   C18 2469   0.863   3.297   7.770  0.7324 -1.1398 -0.2171
   34CHL1  H18A 2470   0.969   3.295   7.803  0.3785 -1.4273  0.9531
   34CHL1  H18B 2471   0.806   3.226   7.835 -0.3742 -1.2753 -1.2953
   34CHL1  H18C 2472   0.875   3.255   7.668  0.4523 -0.4900 -0.5193
   34CHL1   C12 2473   0.664   3.430   7.659 -0.4238 -0.7511 -0.4038
   34CHL1  H12A 2474   0.583   3.360   7.686  0.2405 -0.8057  1.5944
   34CHL1  H12B 2475   0.629   3.535   7.643  0.4918 -0.3972 -0.1797
   34CHL1   C11 2476   0.706   3.377   7.526 -0.0519  0.6665  0.5393
   34CHL1  H11A 2477   0.737   3.272   7.545 -1.4438  0.7031  3.4644
   34CHL1  H11B 2478   0.614   3.368   7.463  0.8714 -0.0309 -0.7567
   34CHL1    C9 2479   0.810   3.456   7.449  0.0086 -0.4053  0.3279
   34CHL1    H9 2480   0.772   3.558   7.429  2.6193  1.0118  1.9954
   34CHL1   C10 2481   0.844   3.407   7.303  0.6141  0.6528 -0.9505
   34CHL1   C19 2482   0.864   3.245   7.320 -0.4574  0.4009 -0.3966
   34CHL1  H19A 2483   0.908   3.204   7.227  0.9158  0.0551  0.3877
   34CHL1  H19B 2484   0.937   3.222   7.400 -0.6148 -0.3542 -0.4694
   34CHL1  H19C 2485   0.765   3.198   7.340 -0.9360  0.6185 -2.0621
   34CHL1    C1 2486   0.722   3.431   7.204  0.3118  0.1096  0.7452
   34CHL1   H1A 2487   0.626   3.392   7.243 -1.3795  0.4898 -2.6613
   34CHL1   H1B 2488   0.710   3.542   7.198  2.3886  0.3615  0.7434
   34CHL1    C2 2489   0.764   3.384   7.063 -0.3292  0.1516 -0.2003
   34CHL1   H2A 2490   0.686   3.410   6.989 -0.8819 -1.3039 -0.1607
   34CHL1   H2B 2491   0.767   3.273   7.053 -2.9144  0.0793 -0.8701
   34CHL1   C20 2492   0.726   3.457   8.007  0.8598 -0.1420 -0.1430
   34CHL1   H20 2493   0.785   3.368   8.038 -0.9656 -1.3288  0.0563
   34CHL1   C21 2494   0.575   3.417   7.966 -0.3475  0.6929 -0.0254
   34CHL1  H21A 2495   0.508   3.393   8.050  0.5800  0.9241  0.8049
   34CHL1  H21B 2496   0.588   3.322   7.911 -0.0328 -1.3489  3.3086
   34CHL1  H21C 2497   0.532   3.494   7.898  0.3645  0.7278 -0.4511
   34CHL1   C22 2498   0.732   3.558   8.125 -0.2665 -0.5277  0.1394
   34CHL1  H22A 2499   0.841   3.568   8.145 -0.1750 -1.6311  0.2668
   34CHL1  H22B 2500   0.689   3.654   8.087  0.7571 -0.3010 -0.4723
   34CHL1   C23 2501   0.662   3.527   8.248 -0.5440 -0.2501 -0.6494
   34CHL1  H23A 2502   0.555   3.553   8.231 -0.4978  0.7581  0.4452
   34CHL1  H23B 2503   0.685   3.423   8.278 -1.3341 -0.4268 -0.6344
   34CHL1   C24 2504   0.714   3.626   8.363 -0.3388  0.5537  0.5017
   34CHL1  H24A 2505   0.821   3.632   8.337 -0.4055 -0.3846  0.0095
   34CHL1  H24B 2506   0.671   3.727   8.343 -1.5583 -0.6055 -3.7002
   34CHL1   C25 2507   0.696   3.569   8.510  0.6222 -0.4810 -0.1614
   34CHL1   H25 2508   0.751   3.472   8.514 -1.1959 -1.5167  1.1008
   34CHL1   C26 2509   0.762   3.659   8.615  0.2349 -0.5090  0.0726
   34CHL1  H26A 2510   0.737   3.767   8.618  0.2687 -0.5173  1.2359
   34CHL1  H26B 2511   0.742   3.617   8.716  0.0249  0.1597  0.3143
   34CHL1  H26C 2512   0.872   3.664   8.602  0.0593 -1.0970 -1.8182
   34CHL1   C27 2513   0.548   3.541   8.544  0.3390  0.2090  0.1438
   34CHL1  H27A 2514   0.501   3.638   8.519  1.0181  0.5647  0.2357
   34CHL1  H27B 2515   0.511   3.464   8.473  2.9637  0.7141 -1.9143
   34CHL1  H27C 2516   0.539   3.504   8.649  1.1711 -1.5757 -0.3736
   35CHL1    C3 2517   4.941   3.491   7.332  0.6430  0.0907  0.4050
   35CHL1    H3 2518   5.004   3.582   7.341  1.4224 -0.2678 -1.0918
   35CHL1    O3 2519   4.903   3.465   7.196 -0.3244 -0.6482  0.6148
   35CHL1   H3' 2520   4.986   3.479   7.149 -0.7465  0.0102  0.0566
   35CHL1    C4 2521   5.023   3.376   7.394  1.2052 -0.0567  0.2746
   35CHL1   H4A 2522   4.972   3.277   7.387 -0.8598  0.8176  1.8379
   35CHL1   H4B 2523   5.118   3.367   7.337  1.5129  2.1897  0.3373
   35CHL1    C5 2524   5.057   3.390   7.543 -0.0196  0.7054 -0.3594
   35CHL1    C6 2525   5.184   3.382   7.593  0.4678  0.0377  0.5438
   35CHL1    H6 2526   5.262   3.370   7.516 -1.1228 -2.9502 -0.7455
   35CHL1    C7 2527   5.223   3.397   7.736 -0.4997 -0.0853 -0.2167
   35CHL1   H7A 2528   5.269   3.302   7.772 -1.4852  0.0698  1.5326
   35CHL1   H7B 2529   5.298   3.479   7.743  1.1729 -1.4060 -1.5014
   35CHL1    C8 2530   5.107   3.411   7.835 -0.8840  0.2475  0.7176
   35CHL1    H8 2531   5.066   3.309   7.852 -2.1255  0.2185 -1.8840
   35CHL1   C14 2532   5.147   3.481   7.961  0.0752 -0.3878  0.3285
   35CHL1   H14 2533   5.182   3.584   7.939  0.6841 -0.5460  0.5463
   35CHL1   C15 2534   5.269   3.423   8.039  0.2742 -0.1497 -0.1696
   35CHL1  H15A 2535   5.262   3.313   8.043 -2.4701 -0.0066  1.3379
   35CHL1  H15B 2536   5.368   3.453   7.996  0.5352 -0.4541  0.2118
   35CHL1   C16 2537   5.256   3.481   8.176 -0.6561  0.7252  0.3194
   35CHL1  H16A 2538   5.253   3.404   8.256  0.5834 -0.5190 -0.7938
   35CHL1  H16B 2539   5.337   3.556   8.192 -1.1786  1.3415  0.1521
   35CHL1   C17 2540   5.116   3.551   8.180  0.1012 -0.4584  0.0529
   35CHL1   H17 2541   5.136   3.654   8.144  0.6913 -0.4475  0.3859
   35CHL1   C13 2542   5.036   3.495   8.059  0.3091  0.3091 -0.3645
   35CHL1   C18 2543   4.983   3.357   8.104 -0.3727  0.2282 -0.4509
   35CHL1  H18A 2544   5.055   3.287   8.151  1.0548 -0.2450 -3.1113
   35CHL1  H18B 2545   4.897   3.368   8.174 -1.3573  1.5854 -1.8151
   35CHL1  H18C 2546   4.941   3.299   8.019  0.1618  0.6482 -1.0155
   35CHL1   C12 2547   4.922   3.581   8.001  0.2975 -0.3561 -0.7718
   35CHL1  H12A 2548   4.837   3.579   8.073  0.2306  0.4812 -0.8173
   35CHL1  H12B 2549   4.967   3.681   7.983 -1.8486  0.9110  0.3931
   35CHL1   C11 2550   4.877   3.514   7.868 -0.0315 -0.5953  0.3367
   35CHL1  H11A 2551   4.818   3.424   7.897 -0.8015  0.6616  3.0205
   35CHL1  H11B 2552   4.811   3.588   7.818  0.5455  0.2247  0.7678
   35CHL1    C9 2553   4.987   3.489   7.765 -0.2947  0.3108  0.1261
   35CHL1    H9 2554   5.038   3.586   7.747  1.8904 -0.6695  0.6861
   35CHL1   C10 2555   4.938   3.425   7.634  0.0697  0.1674  0.1038
   35CHL1   C19 2556   4.845   3.307   7.655 -0.1983 -0.4402 -0.6454
   35CHL1  H19A 2557   4.905   3.237   7.717  0.5426 -0.0303 -0.8752
   35CHL1  H19B 2558   4.757   3.338   7.714 -0.7618  0.5385 -1.9368
   35CHL1  H19C 2559   4.805   3.263   7.561  0.6954  1.2017 -1.8603
   35CHL1    C1 2560   4.851   3.537   7.568 -0.7647 -0.3691  0.1539
   35CHL1   H1A 2561   4.753   3.545   7.620 -0.5082 -0.4508  0.6574
   35CHL1   H1B 2562   4.906   3.633   7.569  1.2408 -1.4277 -1.3628
   35CHL1    C2 2563   4.816   3.514   7.421 -0.0296 -0.0829  0.2341
   35CHL1   H2A 2564   4.744   3.594   7.394 -1.6397 -0.4449  3.0960
   35CHL1   H2B 2565   4.770   3.412   7.414 -0.4046  0.1930 -2.6132
   35CHL1   C20 2566   5.049   3.556   8.323  0.8013  0.3670 -0.0912
   35CHL1   H20 2567   4.991   3.462   8.336  2.8700 -1.4074 -2.5505
   35CHL1   C21 2568   4.952   3.674   8.324 -0.6794 -0.1293 -0.5558
   35CHL1  H21A 2569   4.898   3.701   8.417 -3.8952 -2.3319 -1.6392
   35CHL1  H21B 2570   4.868   3.653   8.254 -1.1950 -0.3638  0.1275
   35CHL1  H21C 2571   5.005   3.768   8.296 -0.9115  0.2634  0.2990
   35CHL1   C22 2572   5.142   3.563   8.446 -0.4327 -0.0615  0.5008
   35CHL1  H22A 2573   5.203   3.471   8.440 -0.3509 -0.3365  3.9573
   35CHL1  H22B 2574   5.214   3.647   8.447 -3.0360  2.3465 -0.2697
   35CHL1   C23 2575   5.066   3.551   8.580 -0.2490  0.3993  0.7375
   35CHL1  H23A 2576   4.996   3.637   8.583 -0.0069  0.5772  1.8941
   35CHL1  H23B 2577   5.002   3.460   8.578 -0.2876  0.4043 -2.2464
   35CHL1   C24 2578   5.156   3.560   8.705 -0.2790 -0.2019 -0.5555
   35CHL1  H24A 2579   5.219   3.651   8.693  0.8234 -0.6185  1.5240
   35CHL1  H24B 2580   5.085   3.584   8.786 -1.0469 -1.3570 -0.8637
   35CHL1   C25 2581   5.231   3.431   8.723  0.0485 -0.0321  0.1904
   35CHL1   H25 2582   5.286   3.397   8.632  0.4761 -0.1288  0.4846
   35CHL1   C26 2583   5.338   3.455   8.835  0.0438 -0.6460  0.7412
   35CHL1  H26A 2584   5.292   3.508   8.921 -1.3446 -0.3424 -0.1554
   35CHL1  H26B 2585   5.403   3.368   8.854  1.8409  0.0010 -1.8503
   35CHL1  H26C 2586   5.408   3.530   8.791  0.8527 -2.4268 -1.1504
   35CHL1   C27 2587   5.130   3.310   8.757  0.4552  0.1569 -0.1329
   35CHL1  H27A 2588   5.070   3.286   8.668  0.9657  0.2629 -0.5115
   35CHL1  H27B 2589   5.071   3.334   8.849 -0.2480 -0.7035 -0.3528
   35CHL1  H27C 2590   5.193   3.220   8.770  0.3798 -0.2498 -2.2825
   36CHL1    C3 2591   5.347   3.821   7.078  0.0620  0.0284  0.1721
   36CHL1    H3 2592   5.365   3.929   7.059 -0.1706 -0.4338 -3.3802
   36CHL1    O3 2593   5.325   3.758   6.949  0.2802 -0.0660  0.0105
   36CHL1   H3' 2594   5.235   3.786   6.931  0.0295 -1.4881 -1.1904
   36CHL1    C4 2595   5.474   3.752   7.139  0.7432 -0.0115  0.2053
   36CHL1   H4A 2596   5.446   3.644   7.135  0.2705  0.1499 -1.9646
   36CHL1   H4B 2597   5.555   3.781   7.068  0.5233  1.8976  0.7022
   36CHL1    C5 2598   5.513   3.788   7.283  0.1917  0.8873 -0.0362
   36CHL1    C6 2599   5.634   3.833   7.319 -0.1449 -0.2976 -0.4642
   36CHL1    H6 2600   5.714   3.834   7.243  0.0910  1.4320 -0.2291
   36CHL1    C7 2601   5.670   3.883   7.458 -0.0840  0.4625 -0.5296
   36CHL1   H7A 2602   5.770   3.844   7.485 -1.7864 -2.3009  2.5633
   36CHL1   H7B 2603   5.691   3.991   7.451  0.1488  0.4902  0.4219
   36CHL1    C8 2604   5.568   3.837   7.558 -0.3200 -0.0733 -0.5333
   36CHL1    H8 2605   5.587   3.728   7.573  0.8725  0.0346 -1.1853
   36CHL1   C14 2606   5.579   3.906   7.699  0.1980 -0.1548  0.7107
   36CHL1   H14 2607   5.557   4.012   7.675 -0.6349 -0.1997  1.2315
   36CHL1   C15 2608   5.713   3.904   7.773  0.2574 -0.0151 -0.0207
   36CHL1  H15A 2609   5.757   3.816   7.723  2.1184 -0.3380  2.0629
   36CHL1  H15B 2610   5.788   3.985   7.756  0.2835 -0.1392 -0.5110
   36CHL1   C16 2611   5.682   3.891   7.923  0.2273 -0.0815 -0.2503
   36CHL1  H16A 2612   5.716   3.788   7.949  3.1099  0.1244 -2.7045
   36CHL1  H16B 2613   5.742   3.963   7.981 -0.5339  0.9845 -0.7617
   36CHL1   C17 2614   5.530   3.906   7.938  0.0881 -0.7282 -0.4520
   36CHL1   H17 2615   5.513   4.016   7.936  0.6451 -0.5777  1.4329
   36CHL1   C13 2616   5.477   3.851   7.801  0.0126 -0.6438  0.0697
   36CHL1   C18 2617   5.487   3.703   7.820 -0.5397  0.3983 -0.3276
   36CHL1  H18A 2618   5.459   3.651   7.726  0.4640  0.9092 -0.9196
   36CHL1  H18B 2619   5.589   3.668   7.847 -0.5178 -0.8635 -1.9151
   36CHL1  H18C 2620   5.422   3.666   7.903  0.9953  2.1667  1.7659
   36CHL1   C12 2621   5.338   3.896   7.764  0.4118 -0.1135 -0.4849
   36CHL1  H12A 2622   5.267   3.851   7.837  2.5961 -3.0952  0.0077
   36CHL1  H12B 2623   5.333   4.006   7.753 -3.4565 -0.3283 -2.6158
   36CHL1   C11 2624   5.311   3.834   7.626 -0.0605 -0.2202  0.7180
   36CHL1  H11A 2625   5.267   3.732   7.633 -2.8255  0.6248 -2.2040
   36CHL1  H11B 2626   5.230   3.896   7.583  2.4175  2.4630 -0.4239
   36CHL1    C9 2627   5.421   3.854   7.513 -0.3047  0.0031 -0.8649
   36CHL1    H9 2628   5.419   3.963   7.492  1.1748  0.1855 -0.2377
   36CHL1   C10 2629   5.384   3.790   7.375  0.1113  0.1760  0.3559
   36CHL1   C19 2630   5.341   3.641   7.400  0.0449 -0.3151 -0.4774
   36CHL1  H19A 2631   5.417   3.598   7.467 -0.2879 -1.3568 -0.7565
   36CHL1  H19B 2632   5.241   3.640   7.450 -1.3996 -2.3386 -3.1232
   36CHL1  H19C 2633   5.340   3.573   7.312  0.4037 -1.0412  0.0734
   36CHL1    C1 2634   5.271   3.868   7.302  0.1191 -0.6185 -0.5377
   36CHL1   H1A 2635   5.183   3.864   7.369 -0.7567 -1.0768 -1.6733
   36CHL1   H1B 2636   5.300   3.974   7.288 -0.1347 -0.8458 -3.5402
   36CHL1    C2 2637   5.229   3.818   7.164  0.5571  0.6549  0.1277
   36CHL1   H2A 2638   5.142   3.875   7.124  2.1231  0.8696 -3.3289
   36CHL1   H2B 2639   5.197   3.712   7.175  0.9929  0.0425 -3.2934
   36CHL1   C20 2640   5.484   3.852   8.076 -0.0207 -0.0177  0.5660
   36CHL1   H20 2641   5.510   3.744   8.065  0.2305  0.0430  0.5673
   36CHL1   C21 2642   5.335   3.861   8.102  0.0038 -0.0421  0.4251
   36CHL1  H21A 2643   5.280   3.800   8.027 -2.4134  2.0096  0.3938
   36CHL1  H21B 2644   5.283   3.960   8.103  0.8206  0.3960  0.5565
   36CHL1  H21C 2645   5.308   3.814   8.199 -0.2149 -0.3029  0.2386
   36CHL1   C22 2646   5.572   3.915   8.187  0.8542  0.1161 -0.2445
   36CHL1  H22A 2647   5.680   3.903   8.163  0.6807 -0.3432 -0.8265
   36CHL1  H22B 2648   5.551   4.024   8.190  3.9712  0.8018  0.1480
   36CHL1   C23 2649   5.550   3.852   8.323  0.5798 -0.4192 -0.3133
   36CHL1  H23A 2650   5.458   3.904   8.358 -0.7544 -2.6643 -0.2239
   36CHL1  H23B 2651   5.530   3.743   8.312 -0.1892 -0.2162 -1.0526
   36CHL1   C24 2652   5.668   3.876   8.424 -0.7192 -0.3091 -0.1423
   36CHL1  H24A 2653   5.755   3.813   8.395  0.2206  1.2796 -0.8847
   36CHL1  H24B 2654   5.701   3.981   8.412 -2.0498  0.0208 -1.2130
   36CHL1   C25 2655   5.636   3.849   8.571 -0.2356  0.5765 -0.1487
   36CHL1   H25 2656   5.542   3.904   8.592  0.4466  0.7407  3.0236
   36CHL1   C26 2657   5.593   3.702   8.611  0.1767  0.5585 -0.4584
   36CHL1  H26A 2658   5.576   3.694   8.720  2.5634 -0.1382 -0.0994
   36CHL1  H26B 2659   5.501   3.670   8.556 -0.2963  1.2275 -0.0730
   36CHL1  H26C 2660   5.668   3.624   8.588 -1.0685 -0.8620  0.1238
   36CHL1   C27 2661   5.731   3.910   8.677  0.2170  0.5543 -0.0095
   36CHL1  H27A 2662   5.734   4.020   8.659 -0.3415  0.6703  0.5928
   36CHL1  H27B 2663   5.691   3.890   8.779 -2.3609 -0.2755 -1.1259
   36CHL1  H27C 2664   5.830   3.860   8.663 -0.8362 -2.3774  2.0464
   37CHL1    C3 2665   1.948   0.781   6.810  0.6217 -0.2571 -0.2157
   37CHL1    H3 2666   1.892   0.685   6.801  2.2832 -1.3914  0.9697
   37CHL1    O3 2667   1.992   0.824   6.681 -0.0266 -0.1027 -0.2478
   37CHL1   H3' 2668   2.054   0.895   6.702 -1.6532  1.2227  0.2332
   37CHL1    C4 2669   1.855   0.892   6.877 -1.0266 -0.3032  0.2344
   37CHL1   H4A 2670   1.913   0.984   6.902 -0.5383 -0.7932  0.9253
   37CHL1   H4B 2671   1.774   0.927   6.809 -0.7137 -0.1548 -0.0612
   37CHL1    C5 2672   1.813   0.832   7.012  0.2621 -0.3012  0.9441
   37CHL1    C6 2673   1.685   0.804   7.034 -0.3539  0.3825 -0.6448
   37CHL1    H6 2674   1.607   0.819   6.957 -2.5227 -2.5111  0.7902
   37CHL1    C7 2675   1.639   0.749   7.168  0.8629 -0.0719  0.0795
   37CHL1   H7A 2676   1.533   0.781   7.181  0.6894 -1.0178  1.1179
   37CHL1   H7B 2677   1.633   0.639   7.163 -0.9679 -0.0083  0.0040
   37CHL1    C8 2678   1.729   0.788   7.285 -0.1758 -0.0876 -0.2909
   37CHL1    H8 2679   1.733   0.899   7.289  0.6353 -0.1338  0.6337
   37CHL1   C14 2680   1.686   0.716   7.418  0.6020 -0.3971  0.6586
   37CHL1   H14 2681   1.706   0.607   7.413 -1.0367 -0.6810 -0.4267
   37CHL1   C15 2682   1.541   0.724   7.466 -0.1308 -0.4655 -0.2749
   37CHL1  H15A 2683   1.503   0.829   7.461  2.5772  0.6813  0.7252
   37CHL1  H15B 2684   1.467   0.663   7.412  2.4830 -2.0098 -2.3841
   37CHL1   C16 2685   1.549   0.693   7.617  0.4184  0.1053 -1.1055
   37CHL1  H16A 2686   1.515   0.781   7.676  1.2436 -0.8588  0.9450
   37CHL1  H16B 2687   1.487   0.607   7.650 -2.0105  2.1467  0.0474
   37CHL1   C17 2688   1.694   0.667   7.648  0.1569  0.8465  0.4355
   37CHL1   H17 2689   1.706   0.560   7.622 -1.2377  0.7538  0.1214
   37CHL1   C13 2690   1.771   0.748   7.545 -0.3245  0.1300 -0.3840
   37CHL1   C18 2691   1.761   0.900   7.583  0.0232  0.7288  0.2695
   37CHL1  H18A 2692   1.855   0.940   7.627  0.7249  0.0609 -0.5803
   37CHL1  H18B 2693   1.761   0.945   7.481 -1.4101  0.9600  0.3510
   37CHL1  H18C 2694   1.675   0.934   7.644  0.1935  2.8258 -0.5632
   37CHL1   C12 2695   1.918   0.710   7.508  0.4085  0.0593 -0.9201
   37CHL1  H12A 2696   1.976   0.741   7.597 -0.0675 -0.4285 -0.4348
   37CHL1  H12B 2697   1.935   0.601   7.510  1.2998  0.1488  2.1734
   37CHL1   C11 2698   1.975   0.769   7.377  0.1040  0.6060  0.0709
   37CHL1  H11A 2699   2.003   0.875   7.396 -0.4722  1.4093 -3.0850
   37CHL1  H11B 2700   2.071   0.717   7.354 -0.0019  0.8487 -0.9543
   37CHL1    C9 2701   1.872   0.755   7.252  0.2162 -0.2660  0.0347
   37CHL1    H9 2702   1.865   0.647   7.228  0.0928  0.2440 -2.4804
   37CHL1   C10 2703   1.918   0.814   7.118 -0.3397  0.0034  0.0393
   37CHL1   C19 2704   1.974   0.958   7.148 -0.1286  0.4296 -0.7879
   37CHL1  H19A 2705   2.037   1.002   7.067  1.2375 -1.7927 -1.0419
   37CHL1  H19B 2706   1.896   1.031   7.176 -1.1085 -1.1010  0.6683
   37CHL1  H19C 2707   2.050   0.952   7.229 -1.3797 -0.8998  0.3550
   37CHL1    C1 2708   2.028   0.727   7.045  0.9480 -0.5477 -0.8157
   37CHL1   H1A 2709   2.123   0.714   7.101  1.5126  2.1279 -1.0528
   37CHL1   H1B 2710   1.983   0.625   7.037  0.2985 -0.2386 -1.1157
   37CHL1    C2 2711   2.070   0.766   6.902  0.5243 -0.4468  0.8882
   37CHL1   H2A 2712   2.117   0.681   6.847  0.4175 -1.4500  2.2902
   37CHL1   H2B 2713   2.130   0.859   6.900  1.5045 -1.0680  0.4615
   37CHL1   C20 2714   1.733   0.666   7.794 -0.2555  0.2870 -0.4750
   37CHL1   H20 2715   1.781   0.765   7.809  0.0083 -0.0213  0.7633
   37CHL1   C21 2716   1.847   0.572   7.814 -0.3653 -0.0751  0.3355
   37CHL1  H21A 2717   1.819   0.465   7.828  1.1210 -0.3156  1.8425
   37CHL1  H21B 2718   1.901   0.600   7.907 -1.0145  0.3276  0.5988
   37CHL1  H21C 2719   1.913   0.590   7.727 -1.2430  2.3533  0.0944
   37CHL1   C22 2720   1.625   0.641   7.909  0.6219  0.6934  0.1120
   37CHL1  H22A 2721   1.531   0.693   7.883  0.2985 -0.4229 -1.0793
   37CHL1  H22B 2722   1.601   0.533   7.895 -0.2024  1.1318 -2.1443
   37CHL1   C23 2723   1.668   0.677   8.049  0.0331 -0.4379 -0.6118
   37CHL1  H23A 2724   1.769   0.635   8.072  0.9443  1.8806 -0.1080
   37CHL1  H23B 2725   1.688   0.786   8.058  1.3749 -0.7905  1.6724
   37CHL1   C24 2726   1.568   0.630   8.150 -0.3709  0.1273 -0.5616
   37CHL1  H24A 2727   1.466   0.670   8.131 -0.7925  0.2296  1.6445
   37CHL1  H24B 2728   1.560   0.520   8.157 -0.1249  0.1462  0.0748
   37CHL1   C25 2729   1.597   0.685   8.298 -0.1459 -0.1712 -0.0355
   37CHL1   H25 2730   1.708   0.687   8.307 -0.0338  1.7481 -1.1776
   37CHL1   C26 2731   1.553   0.824   8.324  0.0114 -0.6324  0.3638
   37CHL1  H26A 2732   1.443   0.832   8.314  0.0881  1.6744  0.8328
   37CHL1  H26B 2733   1.587   0.865   8.422 -0.5487  0.0936  0.2618
   37CHL1  H26C 2734   1.604   0.883   8.244  0.8379 -3.1727 -1.0898
   37CHL1   C27 2735   1.534   0.592   8.398  0.8364  0.4365  0.3556
   37CHL1  H27A 2736   1.576   0.610   8.499 -0.2483 -0.7077  1.0405
   37CHL1  H27B 2737   1.423   0.595   8.404  0.8489  1.8797  0.2348
   37CHL1  H27C 2738   1.559   0.488   8.368  1.8135  0.8764 -0.4258
   38CHL1    C3 2739   3.213   6.114   6.639 -0.5451  0.8328 -0.0254
   38CHL1    H3 2740   3.306   6.054   6.651  0.3087  2.1177 -0.0160
   38CHL1    O3 2741   3.210   6.132   6.500  0.0957  0.6176 -0.2844
   38CHL1   H3' 2742   3.150   6.207   6.493 -0.7560  0.0604  0.7985
   38CHL1    C4 2743   3.088   6.047   6.699 -0.4506  0.5447 -0.9788
   38CHL1   H4A 2744   2.997   6.100   6.664  1.2960  1.7859 -4.0516
   38CHL1   H4B 2745   3.088   5.951   6.644  0.8355  0.2446 -0.4924
   38CHL1    C5 2746   3.110   6.029   6.852  0.0695 -0.6216  0.4138
   38CHL1    C6 2747   3.097   5.903   6.899  0.3916 -0.1641 -0.1509
   38CHL1    H6 2748   3.074   5.814   6.838  1.2308 -0.3420 -0.2206
   38CHL1    C7 2749   3.104   5.867   7.046  0.1765  0.0711  0.9875
   38CHL1   H7A 2750   3.025   5.795   7.077 -0.2329  0.0437 -0.0632
   38CHL1   H7B 2751   3.203   5.821   7.065  0.9804  0.8593 -0.9835
   38CHL1    C8 2752   3.092   5.997   7.138 -0.1918  0.5341 -1.0348
   38CHL1    H8 2753   2.986   6.027   7.146 -0.1720  0.2538  0.6484
   38CHL1   C14 2754   3.132   5.972   7.289  0.0479  0.1761  0.2827
   38CHL1   H14 2755   3.237   5.942   7.271  0.0667  0.9550 -1.1051
   38CHL1   C15 2756   3.053   5.863   7.355  0.0046  0.0077  0.3310
   38CHL1  H15A 2757   2.947   5.864   7.323 -0.0636 -2.1899  0.3367
   38CHL1  H15B 2758   3.093   5.763   7.329  3.4179  0.8843  1.7026
   38CHL1   C16 2759   3.063   5.891   7.505 -0.6190  0.1833 -0.1998
   38CHL1  H16A 2760   2.962   5.900   7.551 -1.1942 -3.8875 -0.3877
   38CHL1  H16B 2761   3.125   5.807   7.541  2.6645  1.6086 -2.1401
   38CHL1   C17 2762   3.152   6.019   7.521 -0.6557 -0.0161 -0.6211
   38CHL1   H17 2763   3.257   5.983   7.531 -1.4601 -3.2833 -2.7004
   38CHL1   C13 2764   3.133   6.092   7.383 -0.0108  0.0669  0.3257
   38CHL1   C18 2765   2.990   6.155   7.397 -0.1386  0.3899  0.4025
   38CHL1  H18A 2766   2.999   6.264   7.418  2.4318  0.9523 -2.6686
   38CHL1  H18B 2767   2.945   6.156   7.296  1.6343 -1.7032 -0.4934
   38CHL1  H18C 2768   2.921   6.096   7.461  0.7067 -0.0430  0.9333
   38CHL1   C12 2769   3.236   6.186   7.325 -0.2747  0.5723 -0.1027
   38CHL1  H12A 2770   3.250   6.284   7.376  0.5794  0.4211 -0.0319
   38CHL1  H12B 2771   3.332   6.130   7.323 -0.8561 -0.4414 -2.1196
   38CHL1   C11 2772   3.194   6.229   7.183  0.6979  0.3131  1.0771
   38CHL1  H11A 2773   3.089   6.267   7.182  0.3007 -0.6455 -1.1253
   38CHL1  H11B 2774   3.257   6.313   7.147  1.3132 -1.2096 -1.6316
   38CHL1    C9 2775   3.178   6.111   7.081  0.3342 -0.1741 -0.1641
   38CHL1    H9 2776   3.274   6.058   7.066 -0.2554 -0.7836 -2.2030
   38CHL1   C10 2777   3.138   6.162   6.936  0.1163 -0.3180  0.0808
   38CHL1   C19 2778   3.018   6.259   6.931 -0.6896 -0.7932 -0.3984
   38CHL1  H19A 2779   2.975   6.271   6.830 -0.2735 -0.8924 -0.5892
   38CHL1  H19B 2780   2.939   6.213   6.995  0.1580  0.3837  1.6185
   38CHL1  H19C 2781   3.052   6.362   6.957  0.1441 -1.2048  0.1844
   38CHL1    C1 2782   3.260   6.233   6.862 -0.0064 -0.3028  0.0579
   38CHL1   H1A 2783   3.268   6.332   6.912  0.1405  0.6439 -1.7578
   38CHL1   H1B 2784   3.347   6.171   6.893  1.5460  1.3998 -0.6874
   38CHL1    C2 2785   3.250   6.241   6.707  1.1523  0.9545 -0.0535
   38CHL1   H2A 2786   3.345   6.279   6.663  2.0328 -0.7957  0.2658
   38CHL1   H2B 2787   3.171   6.313   6.677 -0.9221 -1.4437 -0.6553
   38CHL1   C20 2788   3.134   6.092   7.651  0.0661 -0.1131 -0.5058
   38CHL1   H20 2789   3.028   6.127   7.654  0.8285  2.5231 -1.5207
   38CHL1   C21 2790   3.234   6.210   7.650 -0.3621  0.3510 -0.7186
   38CHL1  H21A 2791   3.210   6.283   7.569  1.0433 -0.8776 -2.3116
   38CHL1  H21B 2792   3.336   6.170   7.631 -1.2517 -2.6816  0.4647
   38CHL1  H21C 2793   3.247   6.264   7.746  0.7502  0.0240 -0.6662
   38CHL1   C22 2794   3.142   6.008   7.782 -0.3454  0.1961 -0.3628
   38CHL1  H22A 2795   3.053   5.941   7.782 -1.2191  1.3256 -1.1579
   38CHL1  H22B 2796   3.233   5.945   7.790  1.4068  2.8067  2.2907
   38CHL1   C23 2797   3.118   6.102   7.902 -0.0284 -0.5350 -0.3169
   38CHL1  H23A 2798   3.115   6.027   7.984 -1.2076 -0.0086  0.1388
   38CHL1  H23B 2799   3.208   6.163   7.925 -0.5790 -0.1635  0.9293
   38CHL1   C24 2800   2.985   6.173   7.901  0.5445 -1.0242 -0.1912
   38CHL1  H24A 2801   2.981   6.243   7.815  0.8120 -1.0325 -0.2101
   38CHL1  H24B 2802   2.920   6.090   7.866 -0.6535 -0.4029  0.5092
   38CHL1   C25 2803   2.937   6.239   8.028 -0.7508 -0.4055  0.4456
   38CHL1   H25 2804   2.834   6.271   8.004 -0.7542 -0.1643  0.7705
   38CHL1   C26 2805   2.927   6.146   8.146  0.3456  0.3222  0.2430
   38CHL1  H26A 2806   3.022   6.089   8.160  0.5645  0.7497  0.5461
   38CHL1  H26B 2807   2.892   6.196   8.239 -0.9922 -0.3546  0.1144
   38CHL1  H26C 2808   2.844   6.074   8.133 -1.1141  1.9829  0.0125
   38CHL1   C27 2809   3.013   6.375   8.060 -0.0829  0.4440  0.0794
   38CHL1  H27A 2810   3.122   6.360   8.071 -0.0688 -0.3826 -0.9395
   38CHL1  H27B 2811   2.993   6.443   7.975 -1.3777  1.6199  1.2755
   38CHL1  H27C 2812   2.978   6.422   8.154  0.5910  0.7579  0.1781
   39CHL1    C3 2813   5.559   5.238   6.924 -0.2421  0.1446 -0.0305
   39CHL1    H3 2814   5.469   5.179   6.954  1.7135 -2.4747  1.0531
   39CHL1    O3 2815   5.559   5.226   6.782 -0.1743 -0.1308 -0.2846
   39CHL1   H3' 2816   5.639   5.272   6.756  0.1710  0.5952  1.8229
   39CHL1    C4 2817   5.554   5.392   6.956  0.3349  0.6581  0.5173
   39CHL1   H4A 2818   5.647   5.443   6.925 -0.4176  0.8786 -1.4790
   39CHL1   H4B 2819   5.465   5.428   6.902  0.1752  0.5534  0.7071
   39CHL1    C5 2820   5.523   5.412   7.105  0.0210 -0.9604 -0.6229
   39CHL1    C6 2821   5.417   5.482   7.149  0.2480 -0.0129  1.3437
   39CHL1    H6 2822   5.343   5.521   7.077  1.0982 -1.2200 -0.2499
   39CHL1    C7 2823   5.386   5.514   7.298 -0.0978  0.5352 -0.1191
   39CHL1   H7A 2824   5.360   5.622   7.306  0.1038  0.4785  1.9588
   39CHL1   H7B 2825   5.302   5.450   7.332  1.0467 -0.3197  1.2023
   39CHL1    C8 2826   5.504   5.478   7.392  0.6113  0.8932 -0.3204
   39CHL1    H8 2827   5.573   5.565   7.392 -1.6844  2.8242  0.2549
   39CHL1   C14 2828   5.460   5.458   7.537  0.0025 -0.4832  0.5449
   39CHL1   H14 2829   5.383   5.377   7.537  0.4868 -0.9496  0.5960
   39CHL1   C15 2830   5.379   5.568   7.598  0.6361  0.3997  0.5331
   39CHL1  H15A 2831   5.427   5.666   7.579  0.3705  0.8003  1.8266
   39CHL1  H15B 2832   5.280   5.567   7.546  0.0302  1.3358  1.6160
   39CHL1   C16 2833   5.382   5.541   7.747 -0.1261  0.7958 -0.6858
   39CHL1  H16A 2834   5.405   5.640   7.790  0.9810 -0.3991  1.6306
   39CHL1  H16B 2835   5.286   5.501   7.788  0.0932  1.1832  0.2129
   39CHL1   C17 2836   5.493   5.432   7.759  0.0665  0.7203 -0.2352
   39CHL1   H17 2837   5.426   5.345   7.741  1.9886 -0.4264 -2.2334
   39CHL1   C13 2838   5.572   5.427   7.628  0.5407 -0.2278  0.0584
   39CHL1   C18 2839   5.685   5.529   7.632  0.1358 -0.8990  0.0040
   39CHL1  H18A 2840   5.764   5.490   7.699  0.5417 -1.0133 -0.5386
   39CHL1  H18B 2841   5.722   5.554   7.530 -3.0603 -2.6219 -1.7402
   39CHL1  H18C 2842   5.648   5.629   7.662  1.3857  0.2509 -2.0645
   39CHL1   C12 2843   5.621   5.288   7.587  0.1176  0.6473 -0.4388
   39CHL1  H12A 2844   5.707   5.255   7.649  0.5865  0.3842 -1.2112
   39CHL1  H12B 2845   5.533   5.221   7.597  0.7296 -0.0126  0.6717
   39CHL1   C11 2846   5.678   5.286   7.447 -1.2773  0.4653 -0.2574
   39CHL1  H11A 2847   5.780   5.332   7.447 -1.1387  0.1768  0.3347
   39CHL1  H11B 2848   5.721   5.187   7.419 -1.4362  0.7574 -1.5747
   39CHL1    C9 2849   5.575   5.346   7.345  0.1368  0.3240 -0.7391
   39CHL1    H9 2850   5.489   5.276   7.345 -1.8634  2.5699  1.5020
   39CHL1   C10 2851   5.627   5.348   7.201  0.7794  0.3506 -0.1367
   39CHL1   C19 2852   5.757   5.426   7.183  0.0149  0.4701 -0.0944
   39CHL1  H19A 2853   5.738   5.535   7.191 -0.3498  0.3523  0.8017
   39CHL1  H19B 2854   5.835   5.391   7.254 -2.4588 -1.3939  1.8747
   39CHL1  H19C 2855   5.800   5.408   7.082 -0.8945  0.6710 -0.5260
   39CHL1    C1 2856   5.640   5.202   7.151 -0.7321  0.4580 -0.1247
   39CHL1   H1A 2857   5.721   5.148   7.204 -2.3425 -1.8888  0.1097
   39CHL1   H1B 2858   5.554   5.142   7.190 -0.0501  0.7432  1.9305
   39CHL1    C2 2859   5.667   5.168   6.998  0.6529 -0.5308  0.5212
   39CHL1   H2A 2860   5.655   5.059   6.981  0.7898 -0.4439 -0.1742
   39CHL1   H2B 2861   5.767   5.201   6.964  0.0601  0.1878 -0.5797
   39CHL1   C20 2862   5.568   5.406   7.890  0.3639 -0.3195 -0.6736
   39CHL1   H20 2863   5.670   5.369   7.866  0.6603  0.6932 -1.0571
   39CHL1   C21 2864   5.485   5.286   7.965 -0.3762  0.5662  0.7370
   39CHL1  H21A 2865   5.377   5.310   7.973 -0.2283  1.2025  0.9372
   39CHL1  H21B 2866   5.535   5.257   8.060  4.8391 -0.1274 -1.8515
   39CHL1  H21C 2867   5.494   5.192   7.907  0.0222 -0.2606  2.0797
   39CHL1   C22 2868   5.588   5.540   7.967  0.0715 -0.5004 -0.2499
   39CHL1  H22A 2869   5.632   5.618   7.901  0.3911  1.1688  1.8481
   39CHL1  H22B 2870   5.491   5.573   8.010  0.4012 -2.4787  2.2582
   39CHL1   C23 2871   5.669   5.534   8.090  0.1972  0.5378 -0.0961
   39CHL1  H23A 2872   5.624   5.456   8.155  1.5437  1.4777  2.0581
   39CHL1  H23B 2873   5.771   5.501   8.063  0.1021  1.0997 -1.1885
   39CHL1   C24 2874   5.659   5.665   8.172 -0.1142 -1.4075  0.3424
   39CHL1  H24A 2875   5.706   5.749   8.117  0.9842 -1.6339  0.8969
   39CHL1  H24B 2876   5.554   5.700   8.184  0.5661  2.2896 -2.5222
   39CHL1   C25 2877   5.714   5.657   8.318  0.7059  0.4819  0.6956
   39CHL1   H25 2878   5.728   5.758   8.360  0.0083  0.6243  0.6029
   39CHL1   C26 2879   5.631   5.580   8.416  0.0728 -0.6982  0.3721
   39CHL1  H26A 2880   5.539   5.641   8.434  0.2863 -0.1141 -0.4620
   39CHL1  H26B 2881   5.611   5.480   8.373  1.0894 -0.2319 -1.2782
   39CHL1  H26C 2882   5.682   5.564   8.513  0.3887  1.1095  0.5499
   39CHL1   C27 2883   5.859   5.600   8.321 -0.6759  0.1774 -0.1827
   39CHL1  H27A 2884   5.913   5.664   8.248 -0.7999 -0.2828 -0.6831
   39CHL1  H27B 2885   5.909   5.611   8.420 -0.1865  2.9717 -0.6659
   39CHL1  H27C 2886   5.855   5.497   8.280 -1.9685 -0.3379  1.1312
   40CHL1    C3 2887   1.441   0.191   7.055  0.1185 -0.0421  1.3504
   40CHL1    H3 2888   1.361   0.115   7.041  1.5932 -1.3294 -0.5969
   40CHL1    O3 2889   1.486   0.216   6.919 -0.0028 -0.7583  0.2665
   40CHL1   H3' 2890   1.571   0.253   6.941  0.1071 -0.3401 -0.8202
   40CHL1    C4 2891   1.371   0.315   7.105 -0.5873 -0.9042 -0.5474
   40CHL1   H4A 2892   1.447   0.393   7.082  0.3038 -1.9424 -1.2171
   40CHL1   H4B 2893   1.277   0.339   7.051 -0.6005 -0.2709 -0.2502
   40CHL1    C5 2894   1.351   0.308   7.256  0.7750  0.3979  0.4603
   40CHL1    C6 2895   1.236   0.351   7.304  0.1064 -0.7259 -0.2717
   40CHL1    H6 2896   1.166   0.403   7.237  2.0472  1.1715 -0.9572
   40CHL1    C7 2897   1.188   0.346   7.451  0.4433 -0.9137  0.5016
   40CHL1   H7A 2898   1.162   0.441   7.502  2.9837  0.0876  0.0826
   40CHL1   H7B 2899   1.095   0.286   7.458 -0.5191  0.3457 -0.9428
   40CHL1    C8 2900   1.297   0.289   7.548  0.5928  0.8161  0.0360
   40CHL1    H8 2901   1.351   0.373   7.596 -0.2533 -0.1101  2.8080
   40CHL1   C14 2902   1.241   0.215   7.670 -0.2913 -0.4109  0.2412
   40CHL1   H14 2903   1.187   0.137   7.612  0.0748 -0.6357  0.1987
   40CHL1   C15 2904   1.130   0.293   7.747  0.6922  0.4074  0.0655
   40CHL1  H15A 2905   1.152   0.402   7.737 -0.7948  0.8075  0.8977
   40CHL1  H15B 2906   1.027   0.284   7.707  0.2368  2.9973  0.5073
   40CHL1   C16 2907   1.156   0.261   7.895 -0.5003  0.6216 -1.0976
   40CHL1  H16A 2908   1.203   0.346   7.948 -0.4422  0.0940 -0.2912
   40CHL1  H16B 2909   1.064   0.226   7.947 -0.1005 -0.3774 -1.0396
   40CHL1   C17 2910   1.253   0.138   7.887  0.2896 -0.8816 -0.6282
   40CHL1   H17 2911   1.192   0.052   7.852 -0.7455  0.0566 -1.1911
   40CHL1   C13 2912   1.345   0.161   7.768 -0.6311 -1.0233 -0.8271
   40CHL1   C18 2913   1.440   0.270   7.814  0.2770 -0.3557  0.4485
   40CHL1  H18A 2914   1.516   0.253   7.893  1.8006 -1.0252 -1.0826
   40CHL1  H18B 2915   1.495   0.308   7.726  1.0217 -0.4305  0.8769
   40CHL1  H18C 2916   1.386   0.357   7.856 -0.8191 -0.8000  0.0194
   40CHL1   C12 2917   1.407   0.046   7.696  0.7090  0.2706  0.3970
   40CHL1  H12A 2918   1.476  -0.013   7.760  0.4424  0.4616  0.8645
   40CHL1  H12B 2919   1.326  -0.024   7.667  0.8359 -0.4918  1.8051
   40CHL1   C11 2920   1.476   0.090   7.560  0.2992 -0.5397 -0.7434
   40CHL1  H11A 2921   1.567   0.148   7.584 -0.6215  0.9232 -0.6719
   40CHL1  H11B 2922   1.490  -0.008   7.510  0.2793 -0.6582 -0.5188
   40CHL1    C9 2923   1.387   0.185   7.477  0.3840 -0.4306  1.3451
   40CHL1    H9 2924   1.313   0.113   7.437  0.7071  0.3483 -0.7450
   40CHL1   C10 2925   1.451   0.233   7.342  0.1393 -0.7311 -0.9013
   40CHL1   C19 2926   1.553   0.345   7.379 -0.5384 -0.1935  0.7504
   40CHL1  H19A 2927   1.602   0.392   7.291  0.3692 -2.2360  0.1016
   40CHL1  H19B 2928   1.508   0.429   7.437 -0.6297  0.7524 -0.6545
   40CHL1  H19C 2929   1.631   0.300   7.445 -1.7974 -0.1522  2.3347
   40CHL1    C1 2930   1.516   0.113   7.281 -0.2729  0.3258 -0.2256
   40CHL1   H1A 2931   1.605   0.072   7.333 -0.9249 -2.4046 -1.1243
   40CHL1   H1B 2932   1.441   0.031   7.282 -1.9675  1.8131 -0.3814
   40CHL1    C2 2933   1.556   0.141   7.138  0.9558 -0.1957 -0.3255
   40CHL1   H2A 2934   1.585   0.046   7.089  1.8933 -0.2661  0.3285
   40CHL1   H2B 2935   1.643   0.210   7.129  2.1135 -1.5214  0.2495
   40CHL1   C20 2936   1.323   0.103   8.019 -0.8335 -0.1147 -0.0110
   40CHL1   H20 2937   1.374   0.195   8.053  0.3905 -0.0554 -1.8645
   40CHL1   C21 2938   1.432  -0.003   8.006  0.4325 -0.3382  0.4317
   40CHL1  H21A 2939   1.405  -0.089   7.942 -2.4497  0.3492  0.5844
   40CHL1  H21B 2940   1.457  -0.044   8.106  0.8808  0.3578  0.6132
   40CHL1  H21C 2941   1.521   0.048   7.965  1.1632 -0.2550  2.0374
   40CHL1   C22 2942   1.219   0.054   8.123 -0.1611  0.0919  0.2400
   40CHL1  H22A 2943   1.262   0.036   8.223 -1.1627 -4.2938  0.0434
   40CHL1  H22B 2944   1.143   0.135   8.134  0.0939  0.3386  0.2165
   40CHL1   C23 2945   1.152  -0.079   8.081 -0.0445  0.2130 -0.3558
   40CHL1  H23A 2946   1.081  -0.054   7.999  1.2093  3.1246 -0.6653
   40CHL1  H23B 2947   1.226  -0.155   8.048  0.7729  0.2768  1.2068
   40CHL1   C24 2948   1.066  -0.149   8.199 -0.5700 -0.5899  0.0412
   40CHL1  H24A 2949   1.138  -0.167   8.282  0.6913  0.6608 -0.7400
   40CHL1  H24B 2950   0.992  -0.071   8.227  0.0202  0.2412 -0.6601
   40CHL1   C25 2951   0.999  -0.282   8.184  0.1353  0.2547 -0.1487
   40CHL1   H25 2952   1.069  -0.347   8.127 -1.3554 -1.8148  0.2854
   40CHL1   C26 2953   0.991  -0.349   8.325  0.5654 -0.3251 -0.1402
   40CHL1  H26A 2954   0.977  -0.277   8.408  1.1179 -0.2401 -0.1161
   40CHL1  H26B 2955   0.894  -0.403   8.330  0.4389 -0.0403  0.6114
   40CHL1  H26C 2956   1.087  -0.396   8.355  0.9409  0.4290 -0.1476
   40CHL1   C27 2957   0.865  -0.271   8.123  0.0195 -0.7236  0.5891
   40CHL1  H27A 2958   0.798  -0.206   8.183 -1.7330 -1.0178 -0.9692
   40CHL1  H27B 2959   0.877  -0.227   8.021  0.5497  1.0169  1.3591
   40CHL1  H27C 2960   0.807  -0.365   8.118 -1.3272  0.1271 -1.1926
   41CHL1    C3 2961   1.397   5.792   6.956 -0.6204 -0.1989 -0.5484
   41CHL1    H3 2962   1.477   5.715   6.958 -2.0800 -1.7650 -0.9893
   41CHL1    O3 2963   1.392   5.853   6.829 -0.0431 -0.4380 -0.2148
   41CHL1   H3' 2964   1.348   5.936   6.848 -0.6594 -0.5632 -1.0562
   41CHL1    C4 2965   1.274   5.720   7.011 -0.3894  0.5162 -0.0818
   41CHL1   H4A 2966   1.180   5.766   6.973 -0.7061  0.6630  0.8572
   41CHL1   H4B 2967   1.279   5.629   6.948  1.3857 -0.2923  1.1384
   41CHL1    C5 2968   1.270   5.683   7.159  0.7913 -0.7917 -0.0550
   41CHL1    C6 2969   1.232   5.559   7.191 -0.1937 -0.7536  0.3059
   41CHL1    H6 2970   1.217   5.477   7.120 -2.0420  0.0787 -0.3293
   41CHL1    C7 2971   1.215   5.518   7.337 -0.6875 -0.0228 -0.3483
   41CHL1   H7A 2972   1.118   5.466   7.345 -0.4713 -0.6688 -1.6831
   41CHL1   H7B 2973   1.284   5.438   7.371 -1.7000  0.3391  2.9657
   41CHL1    C8 2974   1.230   5.640   7.438  0.2851 -0.1809  1.1564
   41CHL1    H8 2975   1.129   5.686   7.442  0.3637  0.2641 -0.9370
   41CHL1   C14 2976   1.273   5.594   7.576  0.2762  0.3429 -0.9326
   41CHL1   H14 2977   1.371   5.546   7.557 -0.7428 -1.8853 -0.8680
   41CHL1   C15 2978   1.191   5.477   7.643  0.2231  0.5534 -0.2434
   41CHL1  H15A 2979   1.085   5.507   7.639  0.4271  1.3672  0.2837
   41CHL1  H15B 2980   1.213   5.381   7.591  0.9330  0.5710  0.0106
   41CHL1   C16 2981   1.232   5.481   7.794 -0.1667  0.0484 -0.4597
   41CHL1  H16A 2982   1.137   5.476   7.851 -0.4735  4.1380 -0.3621
   41CHL1  H16B 2983   1.301   5.395   7.807 -1.6059 -1.9260 -4.3284
   41CHL1   C17 2984   1.314   5.610   7.814 -0.2268 -0.1655 -0.2027
   41CHL1   H17 2985   1.418   5.575   7.797 -1.0867 -3.2856  0.3408
   41CHL1   C13 2986   1.280   5.697   7.691 -0.2407 -0.5069  0.6342
   41CHL1   C18 2987   1.137   5.759   7.718 -0.3079  0.1677  0.4116
   41CHL1  H18A 2988   1.151   5.840   7.793 -1.2103  0.4582  0.2767
   41CHL1  H18B 2989   1.100   5.802   7.623 -0.8651  0.2109  0.6403
   41CHL1  H18C 2990   1.062   5.683   7.750  0.6179  0.1024  2.6378
   41CHL1   C12 2991   1.391   5.797   7.643  0.2410  0.3430  0.0941
   41CHL1  H12A 2992   1.411   5.878   7.716 -0.4483 -0.0079  0.6794
   41CHL1  H12B 2993   1.488   5.748   7.619  0.5429  0.7374  0.4863
   41CHL1   C11 2994   1.350   5.857   7.503  0.0859  0.3548 -0.4396
   41CHL1  H11A 2995   1.254   5.912   7.507  1.0614  2.1804 -0.7496
   41CHL1  H11B 2996   1.425   5.930   7.465  1.3212 -0.6186  0.0218
   41CHL1    C9 2997   1.331   5.745   7.394 -0.5062 -0.3495  0.1978
   41CHL1    H9 2998   1.427   5.688   7.397 -1.0105 -1.3498 -1.4072
   41CHL1   C10 2999   1.306   5.797   7.251 -0.3779 -0.0654 -0.3982
   41CHL1   C19 3000   1.202   5.905   7.255 -0.2030  0.4681  0.4723
   41CHL1  H19A 3001   1.233   5.993   7.314 -0.4260  1.2145 -0.4925
   41CHL1  H19B 3002   1.189   5.943   7.151  1.5404  0.3882  0.2062
   41CHL1  H19C 3003   1.110   5.854   7.290 -1.2384  1.5459 -0.5677
   41CHL1    C1 3004   1.436   5.857   7.200  0.2390  0.2116 -0.5059
   41CHL1   H1A 3005   1.469   5.935   7.272 -0.9909  0.8814 -0.6511
   41CHL1   H1B 3006   1.509   5.773   7.205 -0.8971 -0.8987 -1.8589
   41CHL1    C2 3007   1.439   5.907   7.048 -0.5387 -0.1357 -0.4233
   41CHL1   H2A 3008   1.539   5.949   7.025 -1.0788  1.2687 -0.2931
   41CHL1   H2B 3009   1.378   5.999   7.039  0.7578  0.8288  0.3619
   41CHL1   C20 3010   1.331   5.670   7.954  0.7522 -1.2457  0.0235
   41CHL1   H20 3011   1.384   5.766   7.938  2.6057 -2.0648  0.9497
   41CHL1   C21 3012   1.435   5.584   8.031  0.2911 -0.2633 -0.1607
   41CHL1  H21A 3013   1.464   5.615   8.134 -0.5411  0.1480 -0.0431
   41CHL1  H21B 3014   1.525   5.582   7.966 -0.1255 -0.5936 -0.7390
   41CHL1  H21C 3015   1.398   5.479   8.032  0.4971 -0.3943 -1.9716
   41CHL1   C22 3016   1.201   5.704   8.037  0.1462  0.5635  0.1764
   41CHL1  H22A 3017   1.134   5.757   7.967 -0.2577 -3.0294 -2.4513
   41CHL1  H22B 3018   1.141   5.614   8.061 -0.4537  1.4234  2.0173
   41CHL1   C23 3019   1.228   5.770   8.174  0.4420 -0.0314  0.6385
   41CHL1  H23A 3020   1.270   5.693   8.242 -0.5610 -0.5686  0.6812
   41CHL1  H23B 3021   1.300   5.854   8.170  1.5748 -0.9017  1.9715
   41CHL1   C24 3022   1.109   5.819   8.251 -0.4403 -0.4124 -0.2197
   41CHL1  H24A 3023   1.069   5.901   8.189  1.5903  0.9261  0.1457
   41CHL1  H24B 3024   1.033   5.738   8.261  0.3834 -1.1235  0.4040
   41CHL1   C25 3025   1.152   5.871   8.388 -0.0297  0.3178  0.5734
   41CHL1   H25 3026   1.233   5.810   8.434  0.8469  0.2438 -1.0229
   41CHL1   C26 3027   1.208   6.011   8.386 -0.1812  0.6100  0.2011
   41CHL1  H26A 3028   1.238   6.045   8.488 -1.4097  1.3368  0.3431
   41CHL1  H26B 3029   1.296   6.020   8.318 -2.4041 -0.9974 -3.1091
   41CHL1  H26C 3030   1.126   6.080   8.359 -0.7123 -0.0620  0.0883
   41CHL1   C27 3031   1.040   5.860   8.492 -0.3569  0.3185  0.1095
   41CHL1  H27A 3032   0.942   5.900   8.459  0.3616  1.0323 -1.1936
   41CHL1  H27B 3033   1.030   5.753   8.522 -0.2385 -0.2115 -1.6561
   41CHL1  H27C 3034   1.058   5.937   8.570  0.4571  2.9798 -2.5221
   42CHL1    C3 3035   3.777   1.275   6.846  0.2555  0.0072  0.4161
   42CHL1    H3 3036   3.855   1.353   6.856  1.8194 -1.0658 -2.2974
   42CHL1    O3 3037   3.796   1.245   6.709  0.7172  0.1186 -0.1902
   42CHL1   H3' 3038   3.717   1.193   6.691 -0.1076  0.8731  1.0633
   42CHL1    C4 3039   3.795   1.159   6.949  0.0689  0.1769 -0.5572
   42CHL1   H4A 3040   3.725   1.076   6.925 -0.3070  0.9271 -2.2481
   42CHL1   H4B 3041   3.895   1.118   6.925 -0.3867 -0.6748 -1.0542
   42CHL1    C5 3042   3.767   1.202   7.087 -0.1761  0.5392 -0.2032
   42CHL1    C6 3043   3.863   1.187   7.189  0.5720  0.7594  0.5809
   42CHL1    H6 3044   3.958   1.137   7.165  0.5449  0.4846  1.0245
   42CHL1    C7 3045   3.833   1.227   7.327 -0.2638 -0.4948 -0.3666
   42CHL1   H7A 3046   3.873   1.148   7.395  0.5601  0.5919  0.4671
   42CHL1   H7B 3047   3.872   1.330   7.342 -0.8952 -0.2717 -0.2280
   42CHL1    C8 3048   3.681   1.254   7.353 -0.2660 -0.1424  0.2331
   42CHL1    H8 3049   3.630   1.155   7.356  1.1755 -0.9452 -0.7912
   42CHL1   C14 3050   3.664   1.333   7.485  0.9582 -0.1800  0.2350
   42CHL1   H14 3051   3.711   1.433   7.469 -1.5430  0.9420 -0.5955
   42CHL1   C15 3052   3.733   1.279   7.605 -0.7203  0.0923  0.2698
   42CHL1  H15A 3053   3.728   1.169   7.619  3.8871 -0.0802  2.8075
   42CHL1  H15B 3054   3.844   1.286   7.604 -0.6377  0.6792  3.1951
   42CHL1   C16 3055   3.664   1.350   7.722 -0.1324 -0.0497  0.0491
   42CHL1  H16A 3056   3.618   1.276   7.791 -0.3353  1.7185  1.9076
   42CHL1  H16B 3057   3.723   1.415   7.789 -0.2398 -1.0836  1.1789
   42CHL1   C17 3058   3.536   1.431   7.669 -0.0808 -0.2403  0.8984
   42CHL1   H17 3059   3.567   1.535   7.649 -0.7924  0.0722  1.3827
   42CHL1   C13 3060   3.519   1.374   7.524  0.2943 -0.7670 -0.2405
   42CHL1   C18 3061   3.445   1.243   7.528 -0.6037  0.1659  0.1821
   42CHL1  H18A 3062   3.343   1.267   7.564 -0.7884 -0.4672  0.0960
   42CHL1  H18B 3063   3.437   1.195   7.428 -0.9661  1.0187 -0.2101
   42CHL1  H18C 3064   3.480   1.167   7.600  1.5074  2.6248  1.8905
   42CHL1   C12 3065   3.473   1.469   7.409 -0.2859 -0.5063 -0.5589
   42CHL1  H12A 3066   3.369   1.502   7.428 -0.0914 -0.7107  1.0116
   42CHL1  H12B 3067   3.534   1.562   7.421 -1.3361  0.1219  0.0678
   42CHL1   C11 3068   3.476   1.403   7.272 -0.0415  0.3775  0.1966
   42CHL1  H11A 3069   3.398   1.324   7.266 -1.1343  1.4171  0.3324
   42CHL1  H11B 3070   3.449   1.481   7.198 -3.0141  1.4676  2.2559
   42CHL1    C9 3071   3.620   1.338   7.237 -0.0420  0.5343  0.2278
   42CHL1    H9 3072   3.689   1.426   7.236 -0.7543  1.1171  0.9869
   42CHL1   C10 3073   3.621   1.267   7.098 -0.5358  0.0353 -0.1658
   42CHL1   C19 3074   3.522   1.151   7.103 -0.2881  0.1161  0.0914
   42CHL1  H19A 3075   3.421   1.197   7.106  0.5910  2.1500 -0.3697
   42CHL1  H19B 3076   3.532   1.092   7.009  0.7747  1.3033 -0.5764
   42CHL1  H19C 3077   3.532   1.085   7.192  0.8651 -0.2394 -0.2869
   42CHL1    C1 3078   3.591   1.378   6.996 -0.0765 -0.0859  1.0632
   42CHL1   H1A 3079   3.482   1.390   6.978  0.3983  0.1078 -2.3021
   42CHL1   H1B 3080   3.638   1.477   7.014  3.8311 -1.6223  0.2552
   42CHL1    C2 3081   3.633   1.321   6.859  0.1277  0.8472 -0.3062
   42CHL1   H2A 3082   3.618   1.407   6.790  0.8423  0.9709 -0.3195
   42CHL1   H2B 3083   3.560   1.240   6.842  0.6753 -0.6365  3.4769
   42CHL1   C20 3084   3.424   1.435   7.768  0.1116  0.8152  0.2238
   42CHL1   H20 3085   3.386   1.336   7.801 -0.0073  0.3403 -1.2578
   42CHL1   C21 3086   3.300   1.500   7.693 -0.0691 -0.9520 -0.8899
   42CHL1  H21A 3087   3.254   1.435   7.616 -2.0200 -1.1536  0.3658
   42CHL1  H21B 3088   3.328   1.599   7.651 -0.0289 -0.7255 -0.3372
   42CHL1  H21C 3089   3.216   1.515   7.765  2.1014  1.2510  1.3912
   42CHL1   C22 3090   3.470   1.519   7.893  0.2559  0.4659  0.2574
   42CHL1  H22A 3091   3.558   1.468   7.939 -0.3715 -1.0114 -0.1196
   42CHL1  H22B 3092   3.491   1.624   7.865 -0.3335  1.0456  1.8636
   42CHL1   C23 3093   3.367   1.532   8.012  0.1813 -0.5591 -0.8977
   42CHL1  H23A 3094   3.299   1.608   7.970 -0.0416  0.6989  1.5787
   42CHL1  H23B 3095   3.309   1.438   8.026 -1.8028  0.9179  1.4296
   42CHL1   C24 3096   3.430   1.603   8.131 -0.0767 -0.2705  0.1092
   42CHL1  H24A 3097   3.487   1.540   8.202 -0.3498  0.6404  1.1689
   42CHL1  H24B 3098   3.499   1.679   8.089 -0.1268 -0.7324 -0.8287
   42CHL1   C25 3099   3.336   1.694   8.220  0.2886  0.6309  0.5833
   42CHL1   H25 3100   3.279   1.766   8.158  1.7654 -0.2231 -1.9027
   42CHL1   C26 3101   3.238   1.602   8.296  0.4097 -0.3722  0.6969
   42CHL1  H26A 3102   3.161   1.663   8.347  0.2090 -1.2248  1.4465
   42CHL1  H26B 3103   3.173   1.530   8.240 -0.0596 -0.7915  1.7519
   42CHL1  H26C 3104   3.299   1.550   8.372  1.8527 -0.4937 -0.5094
   42CHL1   C27 3105   3.413   1.779   8.314 -0.1820 -0.3915  0.4504
   42CHL1  H27A 3106   3.365   1.871   8.354  4.5062  3.2307 -1.3339
   42CHL1  H27B 3107   3.495   1.810   8.246 -0.5434 -3.4535 -1.6179
   42CHL1  H27C 3108   3.460   1.726   8.400 -1.8250 -1.3370  0.8162
   43CHL1    C3 3109   0.151   1.743   6.712 -0.7622 -0.0983 -0.2875
   43CHL1    H3 3110   0.249   1.793   6.698 -0.8482  0.4928  1.0317
   43CHL1    O3 3111   0.074   1.733   6.594 -0.4536  0.0059 -0.1348
   43CHL1   H3' 3112  -0.014   1.768   6.609  0.5222  2.3629  0.4919
   43CHL1    C4 3113   0.197   1.605   6.761 -0.1998  0.0122 -0.3725
   43CHL1   H4A 3114   0.109   1.538   6.770 -0.2949  0.2086  0.2245
   43CHL1   H4B 3115   0.262   1.571   6.678 -0.6232  0.4643 -0.9036
   43CHL1    C5 3116   0.258   1.608   6.897  0.4061 -0.4828 -0.5028
   43CHL1    C6 3117   0.383   1.558   6.917  0.9365  0.7601  0.3591
   43CHL1    H6 3118   0.426   1.500   6.834 -3.7497 -1.6913 -0.6830
   43CHL1    C7 3119   0.456   1.560   7.052  0.0155  1.4244 -0.1071
   43CHL1   H7A 3120   0.519   1.471   7.074 -0.6631  0.8353 -0.5247
   43CHL1   H7B 3121   0.523   1.648   7.055  0.7225  0.8831  0.2606
   43CHL1    C8 3122   0.358   1.575   7.168  0.0894 -0.1208 -0.0184
   43CHL1    H8 3123   0.302   1.479   7.171  0.2157 -0.2979 -2.0263
   43CHL1   C14 3124   0.427   1.602   7.300 -0.6552  0.2843  0.0939
   43CHL1   H14 3125   0.466   1.706   7.288  1.8187 -0.3781  1.5101
   43CHL1   C15 3126   0.554   1.512   7.343  0.0751  0.1379 -0.2706
   43CHL1  H15A 3127   0.534   1.406   7.318  0.4511  0.1959 -0.8415
   43CHL1  H15B 3128   0.647   1.534   7.287  0.5352 -0.1876  0.3546
   43CHL1   C16 3129   0.577   1.539   7.495 -0.0222  0.4389 -0.6662
   43CHL1  H16A 3130   0.553   1.443   7.546  0.9137  0.6772  0.2398
   43CHL1  H16B 3131   0.668   1.589   7.531 -0.5636 -0.7948  2.7612
   43CHL1   C17 3132   0.459   1.636   7.533  0.3549 -0.3633 -0.2941
   43CHL1   H17 3133   0.501   1.739   7.526  1.0384 -0.6092  0.0537
   43CHL1   C13 3134   0.349   1.622   7.423 -0.7869  0.0558  0.4441
   43CHL1   C18 3135   0.288   1.482   7.453 -0.4235 -0.2721  0.4440
   43CHL1  H18A 3136   0.226   1.439   7.372  0.3062  0.0292 -0.2833
   43CHL1  H18B 3137   0.351   1.393   7.475 -0.9991 -0.7612  0.1310
   43CHL1  H18C 3138   0.213   1.498   7.534 -0.4761  1.5334  0.0819
   43CHL1   C12 3139   0.249   1.743   7.400  0.4602  0.9548 -0.3397
   43CHL1  H12A 3140   0.188   1.758   7.492  0.5185  0.1754 -0.1677
   43CHL1  H12B 3141   0.316   1.830   7.386  2.7797 -0.6183  0.4105
   43CHL1   C11 3142   0.166   1.720   7.271 -0.3997  0.5025  0.3286
   43CHL1  H11A 3143   0.101   1.632   7.292  0.6601 -1.0045 -2.2348
   43CHL1  H11B 3144   0.103   1.809   7.253  1.4791  1.5098 -1.8313
   43CHL1    C9 3145   0.256   1.692   7.144 -0.2940  0.0347 -0.2690
   43CHL1    H9 3146   0.320   1.780   7.125 -0.5946  0.3202  0.0345
   43CHL1   C10 3147   0.175   1.678   7.005 -0.4081  0.0889 -0.5782
   43CHL1   C19 3148   0.039   1.601   7.032 -0.0770  0.0151 -0.5480
   43CHL1  H19A 3149  -0.030   1.595   6.946 -3.3360  0.4424  1.8648
   43CHL1  H19B 3150   0.057   1.497   7.067  0.1934 -0.2733 -1.5077
   43CHL1  H19C 3151  -0.023   1.663   7.099  0.3477  0.0339 -0.1641
   43CHL1    C1 3152   0.139   1.821   6.953 -0.0437 -0.2181  0.9117
   43CHL1   H1A 3153   0.076   1.879   7.024  0.7739 -2.0950  3.3261
   43CHL1   H1B 3154   0.229   1.885   6.939 -1.0821  0.7765 -1.9876
   43CHL1    C2 3155   0.071   1.819   6.817 -0.1250  0.2765  0.7755
   43CHL1   H2A 3156   0.060   1.923   6.780 -0.0997 -0.1917 -0.5896
   43CHL1   H2B 3157  -0.029   1.772   6.826 -0.6077  1.2884  0.7463
   43CHL1   C20 3158   0.432   1.617   7.685  0.5440 -0.3533  0.2611
   43CHL1   H20 3159   0.413   1.511   7.710 -1.6756 -0.1807 -0.4919
   43CHL1   C21 3160   0.299   1.702   7.727 -0.4281 -0.3173 -0.9553
   43CHL1  H21A 3161   0.301   1.707   7.838  1.5234  0.6058 -0.9820
   43CHL1  H21B 3162   0.208   1.648   7.695 -0.1881 -0.0732 -2.0877
   43CHL1  H21C 3163   0.294   1.808   7.694 -1.1352  0.4886  1.5381
   43CHL1   C22 3164   0.549   1.664   7.783  0.2686  0.6793 -0.2690
   43CHL1  H22A 3165   0.635   1.600   7.754  0.2839 -1.9530  4.5900
   43CHL1  H22B 3166   0.574   1.771   7.768 -1.8113  1.1197 -1.0046
   43CHL1   C23 3167   0.525   1.638   7.930 -0.0095  0.5615 -0.1476
   43CHL1  H23A 3168   0.436   1.695   7.964  1.6137  3.2895 -0.2306
   43CHL1  H23B 3169   0.507   1.530   7.948  0.6552 -0.2520 -3.7508
   43CHL1   C24 3170   0.647   1.687   8.012  0.9084  0.0958 -0.2925
   43CHL1  H24A 3171   0.744   1.644   7.981  1.4127  1.8229 -1.2759
   43CHL1  H24B 3172   0.656   1.798   8.010  0.1698  0.2187  1.5124
   43CHL1   C25 3173   0.628   1.654   8.165  0.2900  0.0134 -0.2107
   43CHL1   H25 3174   0.582   1.555   8.186  1.3395 -0.0198  2.2303
   43CHL1   C26 3175   0.762   1.648   8.225 -0.0127 -0.3798  0.5267
   43CHL1  H26A 3176   0.761   1.660   8.336 -0.5875 -0.7053  0.5634
   43CHL1  H26B 3177   0.806   1.548   8.207 -0.4192 -0.2872 -1.1596
   43CHL1  H26C 3178   0.830   1.724   8.180  0.2054 -0.3679  0.8723
   43CHL1   C27 3179   0.534   1.764   8.218 -0.3710 -0.4564 -0.5116
   43CHL1  H27A 3180   0.492   1.732   8.316  0.5441  0.1340  0.0852
   43CHL1  H27B 3181   0.591   1.858   8.236 -1.1485 -0.2464  1.0345
   43CHL1  H27C 3182   0.450   1.767   8.145 -1.8671 -0.5480  1.1532
   44CHL1    C3 3183   3.818   4.483   6.705  0.5114 -0.7015 -0.7029
   44CHL1    H3 3184   3.797   4.376   6.722  0.2233 -0.8271 -1.7635
   44CHL1    O3 3185   3.819   4.507   6.563  0.3815  0.3125  0.4389
   44CHL1   H3' 3186   3.913   4.509   6.544  0.6331 -2.6525  0.9447
   44CHL1    C4 3187   3.711   4.578   6.765 -0.2886  0.7734  0.5461
   44CHL1   H4A 3188   3.755   4.674   6.730 -1.2766  1.2611  0.6042
   44CHL1   H4B 3189   3.612   4.567   6.717 -0.3643  2.4382  0.2678
   44CHL1    C5 3190   3.716   4.560   6.917 -0.7469  0.3216  0.0203
   44CHL1    C6 3191   3.607   4.514   6.977  0.4342 -0.3471  0.2618
   44CHL1    H6 3192   3.520   4.493   6.914  0.9549 -0.6146 -0.3802
   44CHL1    C7 3193   3.603   4.483   7.122 -0.0892  0.0595 -0.0225
   44CHL1   H7A 3194   3.499   4.499   7.159 -0.7521  1.2464 -2.2001
   44CHL1   H7B 3195   3.607   4.374   7.144 -2.6241  0.0085  0.5121
   44CHL1    C8 3196   3.721   4.553   7.201 -0.9275  0.6322  0.0992
   44CHL1    H8 3197   3.684   4.658   7.211 -1.7238  0.2093  2.2205
   44CHL1   C14 3198   3.733   4.497   7.339  0.6257  0.4602  0.1029
   44CHL1   H14 3199   3.746   4.387   7.326 -0.7605  0.2473  0.3633
   44CHL1   C15 3200   3.611   4.501   7.436  0.1820  1.3176  0.7717
   44CHL1  H15A 3201   3.573   4.604   7.419 -1.5137  0.6948  0.6079
   44CHL1  H15B 3202   3.543   4.426   7.390  1.2169  2.1043 -2.2923
   44CHL1   C16 3203   3.661   4.478   7.581 -0.1344  0.2101 -0.7039
   44CHL1  H16A 3204   3.619   4.554   7.651  1.0330  0.4967 -0.2914
   44CHL1  H16B 3205   3.630   4.379   7.622 -0.5890  0.7356  0.2632
   44CHL1   C17 3206   3.815   4.489   7.562  0.4916 -0.2471 -0.6290
   44CHL1   H17 3207   3.852   4.386   7.547 -2.7192 -1.8509  1.4712
   44CHL1   C13 3208   3.839   4.557   7.425  0.2474  0.2862 -0.5874
   44CHL1   C18 3209   3.820   4.714   7.454  0.1490 -0.4375 -1.1636
   44CHL1  H18A 3210   3.918   4.752   7.487 -0.4688 -0.4506  0.8349
   44CHL1  H18B 3211   3.778   4.769   7.367 -4.4613  1.2480  1.7550
   44CHL1  H18C 3212   3.743   4.729   7.532  0.3462 -0.7133 -0.9167
   44CHL1   C12 3213   3.972   4.531   7.352 -0.3888  0.1676 -0.8285
   44CHL1  H12A 3214   4.056   4.579   7.406  1.5256 -0.3881 -3.1108
   44CHL1  H12B 3215   3.987   4.421   7.352  0.1041  0.1914  1.2239
   44CHL1   C11 3216   3.972   4.594   7.215  0.3620  0.1615  0.7893
   44CHL1  H11A 3217   3.963   4.703   7.234  1.4399  0.4376 -0.2079
   44CHL1  H11B 3218   4.065   4.571   7.160 -1.8600 -4.2039 -1.6867
   44CHL1    C9 3219   3.856   4.539   7.129 -0.2012 -0.8780  0.1181
   44CHL1    H9 3220   3.869   4.429   7.119  0.5192 -0.9019  1.2152
   44CHL1   C10 3221   3.852   4.584   6.979 -0.7907 -0.9180  0.3390
   44CHL1   C19 3222   3.891   4.734   6.995 -0.2322 -0.1507 -0.7380
   44CHL1  H19A 3223   3.836   4.790   7.073 -0.0796  0.6211 -1.1824
   44CHL1  H19B 3224   4.001   4.750   6.993  0.2137 -2.4638  0.9592
   44CHL1  H19C 3225   3.860   4.779   6.898  0.3613 -0.7255 -1.2097
   44CHL1    C1 3226   3.960   4.502   6.910 -0.5338  0.8667  0.1531
   44CHL1   H1A 3227   4.060   4.516   6.955 -1.1976 -0.2103  2.0980
   44CHL1   H1B 3228   3.946   4.393   6.928 -0.7871  1.0592  1.2068
   44CHL1    C2 3229   3.957   4.513   6.761  0.2894  0.0833  0.9563
   44CHL1   H2A 3230   4.031   4.451   6.706 -0.2206 -1.3528  1.8168
   44CHL1   H2B 3231   3.979   4.618   6.733  1.7991 -0.1871  1.0488
   44CHL1   C20 3232   3.878   4.545   7.689 -0.2049 -1.1354  0.2130
   44CHL1   H20 3233   3.847   4.650   7.708  0.8721 -0.6175 -0.8004
   44CHL1   C21 3234   4.031   4.548   7.677 -0.8051 -0.3336 -0.2610
   44CHL1  H21A 3235   4.063   4.605   7.587  0.0468 -0.8009 -0.2707
   44CHL1  H21B 3236   4.062   4.441   7.674  0.5568  0.0471 -0.4537
   44CHL1  H21C 3237   4.087   4.585   7.766  0.9506 -1.9366 -0.6317
   44CHL1   C22 3238   3.832   4.463   7.817  1.0724  0.0981 -0.5283
   44CHL1  H22A 3239   3.722   4.468   7.832  0.9827 -0.5593 -0.9361
   44CHL1  H22B 3240   3.865   4.360   7.793  1.5377 -0.5710  2.5899
   44CHL1   C23 3241   3.891   4.495   7.962 -0.3612  0.0792 -0.1289
   44CHL1  H23A 3242   3.995   4.455   7.959 -0.5912 -0.7087  1.4767
   44CHL1  H23B 3243   3.886   4.606   7.973  0.3982  0.1656 -0.5967
   44CHL1   C24 3244   3.807   4.432   8.078  0.1621 -0.1971  0.1052
   44CHL1  H24A 3245   3.701   4.464   8.069 -0.2824 -1.8643 -1.1684
   44CHL1  H24B 3246   3.800   4.322   8.064  2.3390 -0.1610 -1.7084
   44CHL1   C25 3247   3.851   4.468   8.220 -0.5143  0.0640  0.2116
   44CHL1   H25 3248   3.841   4.578   8.233 -2.5644  0.2712 -2.3197
   44CHL1   C26 3249   3.768   4.406   8.332  0.1493  0.9226 -0.0273
   44CHL1  H26A 3250   3.816   4.434   8.428 -0.4580 -1.7244  1.1474
   44CHL1  H26B 3251   3.670   4.459   8.339 -0.1326  0.6659 -1.6777
   44CHL1  H26C 3252   3.765   4.295   8.329 -1.3934  0.9095  0.6566
   44CHL1   C27 3253   3.998   4.444   8.253 -0.2971  0.7072 -0.4047
   44CHL1  H27A 3254   4.028   4.337   8.253  0.5609  0.9396 -1.4884
   44CHL1  H27B 3255   4.071   4.508   8.200  1.8937 -0.8712  0.5280
   44CHL1  H27C 3256   4.023   4.476   8.357  1.9347 -0.0844 -0.6422
   45CHL1    C3 3257   3.574   2.540   6.659  0.0711 -0.2166  0.1940
   45CHL1    H3 3258   3.518   2.626   6.700  0.0426  0.1111 -0.5163
   45CHL1    O3 3259   3.562   2.545   6.515 -0.3656 -0.3683  0.1127
   45CHL1   H3' 3260   3.586   2.458   6.482 -1.5424 -0.5334 -0.3759
   45CHL1    C4 3261   3.727   2.558   6.705 -0.1116 -0.3035  0.1529
   45CHL1   H4A 3262   3.783   2.475   6.658  1.5798  0.4999  0.6559
   45CHL1   H4B 3263   3.763   2.657   6.669 -2.7128  1.0446  0.9475
   45CHL1    C5 3264   3.735   2.558   6.857  0.2513 -0.3991  1.2309
   45CHL1    C6 3265   3.796   2.654   6.921  0.3380 -0.5066 -0.9094
   45CHL1    H6 3266   3.839   2.741   6.867  0.2581  1.0517  1.4019
   45CHL1    C7 3267   3.822   2.653   7.070  0.8884  0.2857 -0.3565
   45CHL1   H7A 3268   3.930   2.681   7.080  0.8536  0.0331  1.0114
   45CHL1   H7B 3269   3.762   2.736   7.112  0.7349 -1.0639  2.3613
   45CHL1    C8 3270   3.792   2.509   7.135  0.2754  0.2892 -0.0048
   45CHL1    H8 3271   3.878   2.441   7.114 -0.0243  0.2656 -1.2168
   45CHL1   C14 3272   3.778   2.532   7.284  0.1645  0.0350 -0.2199
   45CHL1   H14 3273   3.695   2.600   7.311 -0.7695 -1.7580  1.7478
   45CHL1   C15 3274   3.910   2.590   7.347  0.4031  0.1438  0.0138
   45CHL1  H15A 3275   4.002   2.536   7.314 -0.7091 -1.2808 -0.8700
   45CHL1  H15B 3276   3.913   2.698   7.323 -2.6648 -0.0599 -1.8254
   45CHL1   C16 3277   3.896   2.540   7.499 -0.4193 -0.2523  0.3487
   45CHL1  H16A 3278   3.982   2.481   7.537  0.2106  2.9121  4.4420
   45CHL1  H16B 3279   3.878   2.629   7.562  0.2481 -0.8780  1.4472
   45CHL1   C17 3280   3.767   2.453   7.500  0.8169 -0.0360 -0.5602
   45CHL1   H17 3281   3.681   2.521   7.517 -0.6625 -2.1727  1.0267
   45CHL1   C13 3282   3.738   2.400   7.356  0.3368  0.0472  0.5373
   45CHL1   C18 3283   3.839   2.282   7.335  0.9365 -0.2675  0.5121
   45CHL1  H18A 3284   3.889   2.282   7.236 -2.1817 -2.3883 -1.2118
   45CHL1  H18B 3285   3.918   2.296   7.412  0.5429 -0.4440  0.9485
   45CHL1  H18C 3286   3.800   2.181   7.360  0.3889 -0.5494 -1.3487
   45CHL1   C12 3287   3.599   2.360   7.313 -0.3435 -0.3178 -0.2731
   45CHL1  H12A 3288   3.569   2.262   7.357 -1.2337  0.9210  1.9904
   45CHL1  H12B 3289   3.525   2.436   7.346  0.6021  0.4512  0.1123
   45CHL1   C11 3290   3.594   2.342   7.155  0.5647  0.6454 -0.4489
   45CHL1  H11A 3291   3.635   2.240   7.138 -3.3437 -1.6443  2.2403
   45CHL1  H11B 3292   3.484   2.338   7.140  0.6867 -1.8622 -1.2116
   45CHL1    C9 3293   3.661   2.462   7.082  0.4762  0.2528  0.3068
   45CHL1    H9 3294   3.593   2.547   7.100 -1.3942 -1.1832  0.3430
   45CHL1   C10 3295   3.666   2.440   6.929 -0.3288  0.2816 -0.5220
   45CHL1   C19 3296   3.761   2.317   6.898  0.3788 -0.2622  0.3987
   45CHL1  H19A 3297   3.715   2.221   6.929  0.1278 -0.2138  0.1788
   45CHL1  H19B 3298   3.785   2.300   6.790  2.7503  0.0941  0.8129
   45CHL1  H19C 3299   3.859   2.334   6.948  1.7156  0.4753 -2.2382
   45CHL1    C1 3300   3.523   2.419   6.877 -0.7568  0.1862  0.6778
   45CHL1   H1A 3301   3.487   2.323   6.918  1.6144 -1.7434 -1.3944
   45CHL1   H1B 3302   3.456   2.500   6.913 -0.6526  0.1753  0.8964
   45CHL1    C2 3303   3.515   2.414   6.722  0.4419 -0.4692  1.1558
   45CHL1   H2A 3304   3.408   2.403   6.692  0.6033 -1.6273  0.9486
   45CHL1   H2B 3305   3.568   2.326   6.677  1.7262 -0.3837  2.4485
   45CHL1   C20 3306   3.761   2.357   7.614 -0.2771  0.7296 -0.2020
   45CHL1   H20 3307   3.844   2.282   7.617 -2.0324 -1.2689  1.9676
   45CHL1   C21 3308   3.633   2.270   7.623 -0.2859  0.5148 -0.1769
   45CHL1  H21A 3309   3.643   2.230   7.726  0.2693 -1.6422 -1.0231
   45CHL1  H21B 3310   3.647   2.182   7.557 -4.1787 -0.9846  0.7626
   45CHL1  H21C 3311   3.542   2.329   7.600 -1.6552 -1.2980  0.3533
   45CHL1   C22 3312   3.788   2.421   7.749 -0.5009 -0.2966  0.1781
   45CHL1  H22A 3313   3.797   2.338   7.823 -3.1633 -1.3648 -0.5967
   45CHL1  H22B 3314   3.882   2.480   7.757 -0.9400  0.2111  2.5891
   45CHL1   C23 3315   3.687   2.526   7.797 -0.2391  0.8986  0.1089
   45CHL1  H23A 3316   3.710   2.625   7.754  1.0187  1.7346  2.5200
   45CHL1  H23B 3317   3.583   2.490   7.781 -0.3064  0.6904  0.9649
   45CHL1   C24 3318   3.693   2.559   7.944 -0.1357 -0.3967  0.1315
   45CHL1  H24A 3319   3.678   2.461   7.995 -2.0768  0.0989  0.5746
   45CHL1  H24B 3320   3.796   2.599   7.961  0.3369 -0.9471 -1.2661
   45CHL1   C25 3321   3.586   2.666   7.987 -0.2833  0.6931 -0.7455
   45CHL1   H25 3322   3.491   2.609   7.972  0.5186 -1.8204  2.4237
   45CHL1   C26 3323   3.598   2.691   8.138  0.3254  0.7537  0.2113
   45CHL1  H26A 3324   3.589   2.594   8.193 -2.5542  0.2690 -0.9107
   45CHL1  H26B 3325   3.695   2.732   8.173  0.9191 -1.2107  1.0095
   45CHL1  H26C 3326   3.515   2.762   8.157 -0.8266 -0.4757 -0.0257
   45CHL1   C27 3327   3.589   2.790   7.903 -0.7500  0.0076 -0.5284
   45CHL1  H27A 3328   3.696   2.818   7.900 -0.3246 -1.0938  1.9631
   45CHL1  H27B 3329   3.546   2.777   7.802  0.2893 -2.5378 -0.7186
   45CHL1  H27C 3330   3.533   2.876   7.945 -0.4809 -0.0395 -0.0660
   46CHL1    C3 3331   3.802   4.121   7.002 -0.3709 -0.5492  0.0515
   46CHL1    H3 3332   3.819   4.227   7.030  0.5239 -0.7987  0.4993
   46CHL1    O3 3333   3.758   4.106   6.865  0.0976 -0.4321  0.2588
   46CHL1   H3' 3334   3.837   4.066   6.828  1.7596  1.6106  1.3835
   46CHL1    C4 3335   3.930   4.042   7.013 -0.0873  0.2921  0.4291
   46CHL1   H4A 3336   3.922   3.931   7.007  4.2513 -0.1774  0.3994
   46CHL1   H4B 3337   4.006   4.081   6.942  0.8791  0.5538  1.5757
   46CHL1    C5 3338   3.977   4.069   7.158 -0.0410 -0.1712  0.6638
   46CHL1    C6 3339   4.091   4.134   7.176 -0.1557 -0.4325  0.4133
   46CHL1    H6 3340   4.152   4.167   7.091 -0.4791  1.6090  0.9075
   46CHL1    C7 3341   4.150   4.168   7.311  0.7275 -0.8393  0.1411
   46CHL1   H7A 3342   4.258   4.143   7.306  0.5574 -3.2012  4.0220
   46CHL1   H7B 3343   4.150   4.278   7.327 -1.0900 -0.4598 -2.0221
   46CHL1    C8 3344   4.087   4.080   7.421  0.2435  0.2758 -0.5028
   46CHL1    H8 3345   4.135   3.980   7.413 -1.2786 -0.6723  1.5239
   46CHL1   C14 3346   4.121   4.137   7.553 -0.8002  0.6365  0.4158
   46CHL1   H14 3347   4.060   4.230   7.565  0.1189  1.1227  1.5517
   46CHL1   C15 3348   4.265   4.173   7.568  0.9694  0.3257 -0.4228
   46CHL1  H15A 3349   4.337   4.098   7.528  0.1889 -1.0307  0.6428
   46CHL1  H15B 3350   4.289   4.275   7.533  0.2284  0.5758 -0.2209
   46CHL1   C16 3351   4.292   4.180   7.722  0.0939 -0.1157  0.2580
   46CHL1  H16A 3352   4.371   4.112   7.761  0.5447  0.1559 -0.1736
   46CHL1  H16B 3353   4.324   4.282   7.750  0.8230 -0.8427  2.2673
   46CHL1   C17 3354   4.147   4.152   7.785 -0.4859  0.3940  0.2941
   46CHL1   H17 3355   4.095   4.250   7.796 -0.4193  0.6676 -1.4693
   46CHL1   C13 3356   4.071   4.065   7.680 -0.0656 -0.1307 -0.0310
   46CHL1   C18 3357   4.128   3.916   7.674 -0.1451 -0.1543 -0.2578
   46CHL1  H18A 3358   4.104   3.861   7.581 -1.9084 -1.3767  0.8740
   46CHL1  H18B 3359   4.237   3.913   7.694 -0.3542  0.6329  1.1215
   46CHL1  H18C 3360   4.086   3.867   7.764 -0.0922  1.8747  0.9482
   46CHL1   C12 3361   3.919   4.069   7.667 -1.1602  0.2787 -0.2750
   46CHL1  H12A 3362   3.876   4.011   7.752  0.9877  0.0578  0.7385
   46CHL1  H12B 3363   3.876   4.170   7.680  0.4880  0.9378  0.3498
   46CHL1   C11 3364   3.873   4.004   7.534  0.2870  0.4566 -0.3467
   46CHL1  H11A 3365   3.912   3.900   7.533  0.8389  0.6396  0.7939
   46CHL1  H11B 3366   3.762   4.000   7.542  0.3704  0.0199  0.8733
   46CHL1    C9 3367   3.932   4.071   7.411  0.3066 -0.1591 -0.3091
   46CHL1    H9 3368   3.901   4.178   7.421  1.1744  0.1864 -1.0832
   46CHL1   C10 3369   3.887   4.020   7.271  0.8531 -0.2442 -0.1883
   46CHL1   C19 3370   3.880   3.866   7.278 -0.0846  0.4580  0.2331
   46CHL1  H19A 3371   3.791   3.833   7.337  0.3531 -1.0594  0.0872
   46CHL1  H19B 3372   3.851   3.829   7.177 -0.9481 -1.5190  1.1411
   46CHL1  H19C 3373   3.970   3.809   7.307 -0.5578  0.2226  1.2917
   46CHL1    C1 3374   3.741   4.069   7.237 -0.1355 -0.2828  0.5692
   46CHL1   H1A 3375   3.660   4.030   7.303  0.9968 -0.2669  2.0276
   46CHL1   H1B 3376   3.748   4.178   7.261  0.9527 -0.6157  1.9171
   46CHL1    C2 3377   3.697   4.062   7.094  0.9139 -0.0164  0.8200
   46CHL1   H2A 3378   3.599   4.114   7.086  1.8593  1.6971 -0.2539
   46CHL1   H2B 3379   3.680   3.958   7.060 -1.9889  0.4406  0.6384
   46CHL1   C20 3380   4.171   4.116   7.934  0.6544 -0.1110  0.0913
   46CHL1   H20 3381   4.230   4.021   7.935 -0.8759 -1.0938  1.5575
   46CHL1   C21 3382   4.034   4.079   8.001  0.2175  0.1381  0.0257
   46CHL1  H21A 3383   4.047   4.069   8.111 -0.5094  0.7330  0.1711
   46CHL1  H21B 3384   3.986   3.985   7.967 -1.4658  0.3643  1.6279
   46CHL1  H21C 3385   3.959   4.155   7.972  1.5281  1.3645 -0.2958
   46CHL1   C22 3386   4.228   4.235   8.006  0.1417  0.1325 -0.2729
   46CHL1  H22A 3387   4.305   4.289   7.947 -1.2285  1.5277 -0.8533
   46CHL1  H22B 3388   4.141   4.299   8.033  0.0443 -0.0588 -0.1350
   46CHL1   C23 3389   4.302   4.205   8.137 -0.3428  0.5590 -0.1687
   46CHL1  H23A 3390   4.230   4.157   8.207 -1.4059  0.9466 -0.9643
   46CHL1  H23B 3391   4.381   4.132   8.109 -0.5745  0.9808 -2.0942
   46CHL1   C24 3392   4.371   4.324   8.198  0.0254  0.0728 -0.1177
   46CHL1  H24A 3393   4.440   4.366   8.121 -0.9830  1.7950 -0.1220
   46CHL1  H24B 3394   4.290   4.395   8.225 -0.9641 -1.7407  2.0418
   46CHL1   C25 3395   4.453   4.295   8.324 -0.2661  0.1078 -0.2851
   46CHL1   H25 3396   4.545   4.238   8.299 -0.7331 -0.4410 -0.7947
   46CHL1   C26 3397   4.505   4.421   8.384  0.0446  0.5505 -0.8881
   46CHL1  H26A 3398   4.591   4.399   8.451 -0.6117  0.7554  0.0290
   46CHL1  H26B 3399   4.545   4.484   8.301  1.1084 -1.3006 -1.8452
   46CHL1  H26C 3400   4.428   4.475   8.443  1.1625  1.1639  0.0595
   46CHL1   C27 3401   4.369   4.219   8.427  0.2751  0.2195  0.0016
   46CHL1  H27A 3402   4.336   4.120   8.389  2.5381 -1.2583  1.6385
   46CHL1  H27B 3403   4.430   4.192   8.516  3.2527 -0.6527 -2.1472
   46CHL1  H27C 3404   4.281   4.281   8.456  0.8845  0.9665  0.2839
   47CHL1    C3 3405   3.343   3.007   6.657  0.8351  0.3014  0.5499
   47CHL1    H3 3406   3.232   3.014   6.656  0.8867  1.3552  0.9828
   47CHL1    O3 3407   3.389   2.978   6.531 -0.4004  0.3576 -0.0095
   47CHL1   H3' 3408   3.477   2.942   6.539 -0.5007  0.2851  0.8703
   47CHL1    C4 3409   3.411   3.129   6.704  0.7000 -1.0469 -0.0824
   47CHL1   H4A 3410   3.518   3.111   6.677  0.2507 -0.8721 -2.1075
   47CHL1   H4B 3411   3.379   3.217   6.645 -0.4993 -0.3813  1.4916
   47CHL1    C5 3412   3.402   3.155   6.851  0.2953 -0.0382  0.9407
   47CHL1    C6 3413   3.354   3.274   6.891 -0.0519 -0.2182 -0.3374
   47CHL1    H6 3414   3.327   3.359   6.828 -0.0854 -0.8759 -1.2352
   47CHL1    C7 3415   3.325   3.303   7.030 -0.1536 -0.7377 -0.7405
   47CHL1   H7A 3416   3.349   3.409   7.052  2.0578 -1.2070 -0.7112
   47CHL1   H7B 3417   3.216   3.289   7.045 -0.1637 -0.7746 -0.8449
   47CHL1    C8 3418   3.390   3.201   7.135 -1.1458 -1.0137  0.4165
   47CHL1    H8 3419   3.497   3.231   7.140 -1.1907 -1.0105  1.9483
   47CHL1   C14 3420   3.326   3.208   7.272 -0.3917  0.1396  0.5689
   47CHL1   H14 3421   3.221   3.174   7.261  0.3349 -1.5439 -1.8233
   47CHL1   C15 3422   3.312   3.347   7.338 -0.7615  0.0164  0.8973
   47CHL1  H15A 3423   3.400   3.412   7.323 -1.7132  1.0517 -0.4463
   47CHL1  H15B 3424   3.230   3.401   7.286  0.5201  1.3168  0.1856
   47CHL1   C16 3425   3.283   3.312   7.483  0.4570  0.2349 -0.3035
   47CHL1  H16A 3426   3.344   3.386   7.539 -0.6913 -0.4218  1.9226
   47CHL1  H16B 3427   3.177   3.335   7.508  1.2499  1.9545  1.8256
   47CHL1   C17 3428   3.301   3.160   7.499 -0.4364  0.2156  0.4138
   47CHL1   H17 3429   3.203   3.110   7.482 -1.3769  1.0818  2.9051
   47CHL1   C13 3430   3.383   3.122   7.380  0.0303 -0.2705 -0.3325
   47CHL1   C18 3431   3.528   3.155   7.411 -0.0617 -0.7056  0.0597
   47CHL1  H18A 3432   3.579   3.080   7.475  3.0205  0.6039 -0.7229
   47CHL1  H18B 3433   3.594   3.181   7.326 -0.9613  2.7895  0.2932
   47CHL1  H18C 3434   3.527   3.240   7.482 -1.9708 -2.3146  2.1456
   47CHL1   C12 3435   3.366   2.974   7.341 -0.5802  0.0017  0.3723
   47CHL1  H12A 3436   3.428   2.904   7.400  1.6036  0.7910 -0.8784
   47CHL1  H12B 3437   3.261   2.942   7.321 -0.8514  1.2819 -0.3732
   47CHL1   C11 3438   3.424   2.960   7.201 -0.3723  0.6997 -0.2140
   47CHL1  H11A 3439   3.534   2.965   7.219 -0.1597 -1.3829 -0.6815
   47CHL1  H11B 3440   3.415   2.853   7.174 -1.2968  0.3681  1.3020
   47CHL1    C9 3441   3.372   3.060   7.096  0.4021  0.3518 -0.0545
   47CHL1    H9 3442   3.262   3.045   7.088  0.5330 -1.8307  1.6172
   47CHL1   C10 3443   3.423   3.032   6.951  0.9517  0.0985 -0.2121
   47CHL1   C19 3444   3.571   3.017   6.955  0.0219 -0.7165 -0.2827
   47CHL1  H19A 3445   3.621   3.098   7.013 -0.9774 -0.6693  0.5343
   47CHL1  H19B 3446   3.590   2.916   6.997  1.5678 -0.5047 -0.4065
   47CHL1  H19C 3447   3.627   3.018   6.859  2.5189 -0.1209  1.0905
   47CHL1    C1 3448   3.356   2.904   6.886  0.0987 -0.9022  0.1997
   47CHL1   H1A 3449   3.392   2.812   6.936  0.6766 -1.4999 -1.2570
   47CHL1   H1B 3450   3.247   2.906   6.905  0.4838 -0.8888  2.7243
   47CHL1    C2 3451   3.381   2.884   6.736 -0.1591 -0.1706 -0.0926
   47CHL1   H2A 3452   3.326   2.794   6.701 -0.6770  0.1723 -0.1892
   47CHL1   H2B 3453   3.489   2.865   6.722  0.0124 -0.5298  1.5209
   47CHL1   C20 3454   3.342   3.120   7.644  0.7211 -0.5250  0.0565
   47CHL1   H20 3455   3.447   3.149   7.663  0.7170 -0.2244 -0.3887
   47CHL1   C21 3456   3.331   2.968   7.673  0.3719  0.1417  0.0528
   47CHL1  H21A 3457   3.383   2.947   7.769  0.3071 -0.2006  0.0138
   47CHL1  H21B 3458   3.391   2.912   7.597  1.8649  1.8410 -0.0781
   47CHL1  H21C 3459   3.225   2.933   7.675  0.5738 -0.6191 -1.2204
   47CHL1   C22 3460   3.261   3.200   7.759 -0.0597  0.0225 -0.1077
   47CHL1  H22A 3461   3.300   3.304   7.760 -3.4794  1.4378  2.4621
   47CHL1  H22B 3462   3.158   3.212   7.719 -0.0526  1.0597  0.1460
   47CHL1   C23 3463   3.256   3.139   7.900  0.1248  0.1268 -0.4462
   47CHL1  H23A 3464   3.218   3.036   7.882 -0.3091  0.1846  0.1048
   47CHL1  H23B 3465   3.358   3.134   7.944  0.3534  0.3789 -0.9400
   47CHL1   C24 3466   3.159   3.204   8.000  0.0419  0.5164 -0.8682
   47CHL1  H24A 3467   3.203   3.304   8.018  1.1847 -0.2386  0.7643
   47CHL1  H24B 3468   3.059   3.215   7.953 -0.9293  1.1417  1.2369
   47CHL1   C25 3469   3.142   3.126   8.135  0.3670 -0.0909 -0.4833
   47CHL1   H25 3470   3.114   3.023   8.104  2.5522 -0.9954  0.3710
   47CHL1   C26 3471   3.263   3.127   8.231 -0.5138  0.3323 -0.0341
   47CHL1  H26A 3472   3.355   3.074   8.200 -1.4813 -0.8736 -0.9111
   47CHL1  H26B 3473   3.283   3.236   8.239 -0.5989  0.3388  0.1005
   47CHL1  H26C 3474   3.236   3.096   8.335  0.4889 -0.8957 -0.1138
   47CHL1   C27 3475   3.022   3.188   8.218 -0.2429 -0.0575  0.3207
   47CHL1  H27A 3476   2.936   3.214   8.154  0.4151  1.8354  0.1489
   47CHL1  H27B 3477   2.979   3.127   8.300  0.8822  0.6730  1.5040
   47CHL1  H27C 3478   3.054   3.286   8.257 -0.2378  0.0785 -0.0245
   48CHL1    C3 3479   6.534   5.536   6.482  0.1897 -0.0336 -0.3886
   48CHL1    H3 3480   6.426   5.562   6.481  0.2960  0.4326 -1.4651
   48CHL1    O3 3481   6.573   5.539   6.343 -0.4158 -0.2568  0.0420
   48CHL1   H3' 3482   6.554   5.627   6.310 -0.1283 -0.7449 -1.5161
   48CHL1    C4 3483   6.613   5.638   6.558  0.5279  0.7226  0.4643
   48CHL1   H4A 3484   6.723   5.643   6.551  0.5310  0.5500  0.3843
   48CHL1   H4B 3485   6.578   5.737   6.522  0.9411  0.3896 -0.8858
   48CHL1    C5 3486   6.577   5.629   6.705  0.0212 -1.0552 -0.0372
   48CHL1    C6 3487   6.525   5.736   6.767 -0.7533  0.3628  0.0279
   48CHL1    H6 3488   6.504   5.828   6.712  0.1079  0.4343 -0.1952
   48CHL1    C7 3489   6.500   5.742   6.915  0.1381  0.1196 -0.2163
   48CHL1   H7A 3490   6.514   5.844   6.957 -3.3142  0.2898  0.8371
   48CHL1   H7B 3491   6.394   5.729   6.945  0.1421 -0.8255 -0.5671
   48CHL1    C8 3492   6.581   5.632   6.989 -0.3120 -0.0567  0.5296
   48CHL1    H8 3493   6.687   5.667   6.987 -0.5826  0.7808 -0.8941
   48CHL1   C14 3494   6.535   5.631   7.133  1.1718  0.8826 -0.2696
   48CHL1   H14 3495   6.427   5.602   7.127  0.9584  1.5501  0.1842
   48CHL1   C15 3496   6.539   5.759   7.211 -0.3584 -0.3820 -0.0513
   48CHL1  H15A 3497   6.638   5.809   7.204 -1.2075  1.4509  0.3135
   48CHL1  H15B 3498   6.478   5.848   7.183 -0.4892 -0.6691 -0.6810
   48CHL1   C16 3499   6.506   5.725   7.349 -0.3920 -0.6409 -0.2656
   48CHL1  H16A 3500   6.581   5.783   7.408 -1.3936  2.2365 -1.6341
   48CHL1  H16B 3501   6.404   5.763   7.370 -0.7691 -1.8503  0.1971
   48CHL1   C17 3502   6.511   5.569   7.361  0.8145  0.1207  0.1461
   48CHL1   H17 3503   6.411   5.526   7.341  1.5123 -1.2161 -0.5818
   48CHL1   C13 3504   6.593   5.531   7.232  0.7274  0.7146  0.8768
   48CHL1   C18 3505   6.746   5.550   7.251  0.3857 -0.3438  0.4598
   48CHL1  H18A 3506   6.789   5.490   7.334  0.5359  1.1341  1.4989
   48CHL1  H18B 3507   6.803   5.509   7.166 -1.7782  0.5792 -1.5736
   48CHL1  H18C 3508   6.767   5.654   7.283 -0.4582  0.0693 -0.2707
   48CHL1   C12 3509   6.566   5.393   7.162  0.0683  0.1492 -0.4367
   48CHL1  H12A 3510   6.615   5.311   7.219  0.7609  2.0802  1.9448
   48CHL1  H12B 3511   6.457   5.374   7.158  0.1524 -0.5611  0.3735
   48CHL1   C11 3512   6.629   5.390   7.019  0.6839 -0.7078  0.3213
   48CHL1  H11A 3513   6.740   5.386   7.025  0.6628 -1.8676  0.1072
   48CHL1  H11B 3514   6.608   5.289   6.978  0.4916 -0.8017  0.6481
   48CHL1    C9 3515   6.562   5.497   6.930 -0.0665  0.1288  0.0097
   48CHL1    H9 3516   6.453   5.474   6.936 -0.0950  0.5747  1.7735
   48CHL1   C10 3517   6.602   5.496   6.780  0.1148 -0.3578  0.6099
   48CHL1   C19 3518   6.756   5.462   6.778  0.2031  0.4260  0.6350
   48CHL1  H19A 3519   6.818   5.535   6.835  0.3240  0.2028  0.7890
   48CHL1  H19B 3520   6.776   5.354   6.792 -0.5689  0.1673 -0.1374
   48CHL1  H19C 3521   6.792   5.461   6.673  3.4614  0.6720  1.6374
   48CHL1    C1 3522   6.535   5.383   6.693  0.3046 -0.3697  0.4331
   48CHL1   H1A 3523   6.567   5.287   6.740  1.8406 -0.6283 -1.0438
   48CHL1   H1B 3524   6.425   5.389   6.706  0.2718 -0.1079  0.0299
   48CHL1    C2 3525   6.556   5.398   6.537  0.1392  0.1195  1.8554
   48CHL1   H2A 3526   6.494   5.322   6.485 -0.7291  1.3481  1.0239
   48CHL1   H2B 3527   6.661   5.378   6.509  0.8999  2.8591  2.5110
   48CHL1   C20 3528   6.560   5.520   7.493 -0.2010  0.2759 -0.6342
   48CHL1   H20 3529   6.666   5.552   7.506 -0.7144  1.4076  1.0735
   48CHL1   C21 3530   6.559   5.366   7.497  0.4955  0.2326  0.3516
   48CHL1  H21A 3531   6.452   5.339   7.493  0.2517  1.2303 -0.3375
   48CHL1  H21B 3532   6.591   5.342   7.601 -1.2114 -1.3529  0.5542
   48CHL1  H21C 3533   6.622   5.308   7.426  0.4902 -1.5482  1.7272
   48CHL1   C22 3534   6.484   5.574   7.621 -0.0189  0.6151 -0.0872
   48CHL1  H22A 3535   6.453   5.679   7.600 -2.7047 -0.1085 -0.0668
   48CHL1  H22B 3536   6.399   5.510   7.651  0.2621  0.3855  0.2358
   48CHL1   C23 3537   6.577   5.588   7.739 -0.7200  0.3058  0.5368
   48CHL1  H23A 3538   6.607   5.488   7.777  1.1376 -0.0181 -1.5271
   48CHL1  H23B 3539   6.669   5.639   7.703  0.2809 -0.3662  2.0594
   48CHL1   C24 3540   6.525   5.671   7.852 -0.0195  0.0556 -0.4307
   48CHL1  H24A 3541   6.549   5.771   7.812  0.0030 -0.0058 -0.5707
   48CHL1  H24B 3542   6.419   5.644   7.873  0.1167  0.2586  0.5757
   48CHL1   C25 3543   6.607   5.647   7.988 -0.1060  0.0601 -0.7911
   48CHL1   H25 3544   6.578   5.545   8.021  1.2782  0.3818  1.6521
   48CHL1   C26 3545   6.757   5.663   7.963  0.0674  0.3456 -0.3404
   48CHL1  H26A 3546   6.781   5.571   7.906  0.8428 -1.0316  2.0506
   48CHL1  H26B 3547   6.775   5.757   7.908  0.2986  1.9797  2.3753
   48CHL1  H26C 3548   6.818   5.664   8.056 -2.5163 -0.8531  1.5119
   48CHL1   C27 3549   6.576   5.749   8.096 -0.3436  0.4332 -0.2405
   48CHL1  H27A 3550   6.613   5.705   8.191 -0.3715  0.9002 -0.0130
   48CHL1  H27B 3551   6.622   5.846   8.066 -3.3306  1.8272 -0.6297
   48CHL1  H27C 3552   6.465   5.755   8.096 -0.4957 -1.6334  0.2726
   49CHL1    C3 3553   3.196   6.638   6.689  0.2460  0.0654 -0.1623
   49CHL1    H3 3554   3.186   6.528   6.696 -0.2212  0.0974 -0.2970
   49CHL1    O3 3555   3.188   6.686   6.550 -0.0550 -0.6687 -0.7069
   49CHL1   H3' 3556   3.208   6.778   6.569 -0.0427 -0.7149 -0.4867
   49CHL1    C4 3557   3.091   6.720   6.774 -0.1033  0.8216  0.3871
   49CHL1   H4A 3558   3.106   6.822   6.734  0.3922  0.0802 -1.3763
   49CHL1   H4B 3559   2.989   6.691   6.741 -0.4046  3.0491 -0.8507
   49CHL1    C5 3560   3.116   6.693   6.919  0.3727  0.8971  0.2072
   49CHL1    C6 3561   3.026   6.639   6.994 -0.1307 -0.2152  0.2150
   49CHL1    H6 3562   2.928   6.612   6.951  0.2853  1.1045 -1.6783
   49CHL1    C7 3563   3.053   6.602   7.139  0.1567 -1.0024  0.3455
   49CHL1   H7A 3564   2.961   6.608   7.200 -0.1757 -1.5695 -0.0962
   49CHL1   H7B 3565   3.096   6.500   7.135  0.2840 -1.0061  1.4711
   49CHL1    C8 3566   3.166   6.691   7.206 -0.2780 -0.2068  0.3649
   49CHL1    H8 3567   3.136   6.798   7.200  1.1402  0.2985  1.7853
   49CHL1   C14 3568   3.196   6.656   7.350  0.0276 -0.7848  0.0689
   49CHL1   H14 3569   3.229   6.550   7.348 -0.1409 -0.8273 -1.4491
   49CHL1   C15 3570   3.077   6.659   7.453  0.1592  0.2180 -0.0871
   49CHL1  H15A 3571   3.042   6.765   7.464  0.9195  0.3278  1.6237
   49CHL1  H15B 3572   2.989   6.597   7.424  0.7021 -1.8768  2.3763
   49CHL1   C16 3573   3.143   6.637   7.585 -0.3131 -0.5699 -0.3374
   49CHL1  H16A 3574   3.109   6.711   7.661 -0.7718 -0.0215 -1.0651
   49CHL1  H16B 3575   3.124   6.543   7.641 -1.1391  0.1686  0.6677
   49CHL1   C17 3576   3.297   6.655   7.560 -0.0202  0.5043  0.3763
   49CHL1   H17 3577   3.337   6.553   7.546 -0.9559  0.0909  0.6065
   49CHL1   C13 3578   3.313   6.723   7.417  0.9018 -0.2608 -0.4592
   49CHL1   C18 3579   3.275   6.874   7.422  0.1270 -0.5624 -0.2173
   49CHL1  H18A 3580   3.255   6.915   7.321  0.0437 -0.8587 -0.3250
   49CHL1  H18B 3581   3.188   6.903   7.485  1.3945  2.5811  0.2432
   49CHL1  H18C 3582   3.362   6.927   7.466  0.2114 -1.9395  1.3598
   49CHL1   C12 3583   3.439   6.690   7.329 -0.8560  0.1289 -0.6221
   49CHL1  H12A 3584   3.535   6.730   7.370  0.1425 -1.7581 -0.9986
   49CHL1  H12B 3585   3.462   6.582   7.340 -0.8758  0.1363 -0.5002
   49CHL1   C11 3586   3.426   6.715   7.177 -0.4761  0.5624  0.5206
   49CHL1  H11A 3587   3.418   6.826   7.176  1.4599  0.7382 -1.1765
   49CHL1  H11B 3588   3.507   6.684   7.109 -0.0461  2.6695 -0.0126
   49CHL1    C9 3589   3.287   6.671   7.117 -0.4344  0.6973  0.2283
   49CHL1    H9 3590   3.292   6.560   7.110  1.2578  0.7522  0.0970
   49CHL1   C10 3591   3.265   6.719   6.971  0.0399 -0.4264  0.4899
   49CHL1   C19 3592   3.293   6.872   6.963  0.1765  0.3158  0.3615
   49CHL1  H19A 3593   3.260   6.906   6.863  1.0330 -1.1679 -0.4683
   49CHL1  H19B 3594   3.242   6.938   7.037 -1.8299  0.3679 -0.9849
   49CHL1  H19C 3595   3.403   6.886   6.956 -0.3217  5.7645 -1.5035
   49CHL1    C1 3596   3.366   6.649   6.873  0.4073 -0.5993 -0.3710
   49CHL1   H1A 3597   3.474   6.670   6.890  0.5142 -1.4828  0.0838
   49CHL1   H1B 3598   3.346   6.540   6.886 -2.7507 -0.1348 -0.4582
   49CHL1    C2 3599   3.341   6.675   6.726 -0.1649 -0.4764 -0.1113
   49CHL1   H2A 3600   3.411   6.624   6.657  0.7038  0.7028 -0.1320
   49CHL1   H2B 3601   3.353   6.785   6.714 -2.2768 -0.3965 -2.1873
   49CHL1   C20 3602   3.365   6.716   7.674 -1.0669 -0.5905  0.4028
   49CHL1   H20 3603   3.327   6.813   7.713 -1.9039 -0.8092  0.1640
   49CHL1   C21 3604   3.511   6.758   7.642 -0.2904 -0.1335  0.3119
   49CHL1  H21A 3605   3.571   6.775   7.733 -0.3357  1.4766  0.0648
   49CHL1  H21B 3606   3.514   6.841   7.568  1.7031 -0.4962 -0.0572
   49CHL1  H21C 3607   3.561   6.675   7.587 -0.3342  1.6794 -2.7115
   49CHL1   C22 3608   3.374   6.606   7.789 -0.3586  0.2477 -0.0122
   49CHL1  H22A 3609   3.290   6.533   7.789 -1.3561  1.3706  0.1625
   49CHL1  H22B 3610   3.455   6.536   7.760  1.1194 -0.3762  4.8790
   49CHL1   C23 3611   3.395   6.663   7.935 -0.2364 -0.6291  0.1717
   49CHL1  H23A 3612   3.384   6.569   7.993 -0.8007 -0.0159  1.0879
   49CHL1  H23B 3613   3.494   6.710   7.952 -0.0276 -1.3479  0.9934
   49CHL1   C24 3614   3.286   6.752   7.987  0.0535 -0.1207  0.0414
   49CHL1  H24A 3615   3.292   6.856   7.948  0.7635 -0.5181 -0.9669
   49CHL1  H24B 3616   3.188   6.707   7.960 -1.2750  1.4254  2.0449
   49CHL1   C25 3617   3.290   6.756   8.147  0.4472  0.6034  0.5676
   49CHL1   H25 3618   3.303   6.653   8.185  1.2507  0.5360  0.1404
   49CHL1   C26 3619   3.408   6.833   8.210 -0.2446  0.2697 -0.6360
   49CHL1  H26A 3620   3.399   6.939   8.179 -1.9703  1.0164  2.1248
   49CHL1  H26B 3621   3.413   6.819   8.320 -0.1529 -3.2280 -0.9613
   49CHL1  H26C 3622   3.502   6.793   8.165 -0.0185  0.8795 -0.7101
   49CHL1   C27 3623   3.158   6.808   8.210 -0.1025 -0.9612 -0.3014
   49CHL1  H27A 3624   3.069   6.758   8.166 -0.8740 -0.1223  0.2844
   49CHL1  H27B 3625   3.157   6.787   8.319 -0.6499 -1.8257 -0.4590
   49CHL1  H27C 3626   3.150   6.916   8.186  0.6995 -0.8695 -0.1939
   50CHL1    C3 3627   0.298   3.447   7.018  0.3978  0.0444 -0.0295
   50CHL1    H3 3628   0.240   3.353   7.009  1.2878 -0.5153 -0.1431
   50CHL1    O3 3629   0.386   3.485   6.909 -0.0698 -0.0145 -0.6682
   50CHL1   H3' 3630   0.421   3.401   6.877  3.2973  0.5171  1.1161
   50CHL1    C4 3631   0.204   3.569   7.022 -0.0992  0.2143 -0.0513
   50CHL1   H4A 3632   0.266   3.660   7.035  0.7482 -0.3415 -0.1429
   50CHL1   H4B 3633   0.137   3.594   6.937 -1.9467  2.3266  1.8845
   50CHL1    C5 3634   0.116   3.556   7.147 -0.0002 -0.0477  0.3923
   50CHL1    C6 3635  -0.021   3.536   7.149 -0.1862 -0.2874  0.7248
   50CHL1    H6 3636  -0.070   3.539   7.050  2.2170  1.6798 -0.5198
   50CHL1    C7 3637  -0.104   3.519   7.271  0.1958 -0.3006 -0.0545
   50CHL1   H7A 3638  -0.208   3.557   7.263  0.2715  0.0051  0.3761
   50CHL1   H7B 3639  -0.112   3.412   7.300  2.3486 -0.4300  0.2447
   50CHL1    C8 3640  -0.031   3.580   7.399  0.3059 -0.1531 -0.5018
   50CHL1    H8 3641  -0.035   3.690   7.386  0.2548 -0.3774 -2.6576
   50CHL1   C14 3642  -0.118   3.540   7.522 -0.1254  0.1545 -0.1090
   50CHL1   H14 3643  -0.120   3.430   7.533  0.0344  0.3366  2.4558
   50CHL1   C15 3644  -0.267   3.574   7.531 -0.1711 -0.2535 -0.0614
   50CHL1  H15A 3645  -0.273   3.680   7.497  6.1981 -0.1480 -2.1162
   50CHL1  H15B 3646  -0.321   3.506   7.462  2.8738 -3.0405  0.0461
   50CHL1   C16 3647  -0.295   3.558   7.680  0.7209 -0.7293  0.5111
   50CHL1  H16A 3648  -0.348   3.648   7.716 -0.4317 -1.1392 -0.1070
   50CHL1  H16B 3649  -0.365   3.475   7.705 -0.1917 -0.1675 -0.1264
   50CHL1   C17 3650  -0.164   3.532   7.759  0.8201 -0.7122 -0.3623
   50CHL1   H17 3651  -0.151   3.421   7.762  4.1660 -0.4104  0.9537
   50CHL1   C13 3652  -0.053   3.574   7.656 -0.2586 -0.2023  0.3128
   50CHL1   C18 3653  -0.035   3.725   7.669  0.5356  0.0057  0.1125
   50CHL1  H18A 3654  -0.130   3.783   7.659  0.6091 -0.0238 -0.7668
   50CHL1  H18B 3655   0.007   3.757   7.767 -2.0917  1.5256  0.8383
   50CHL1  H18C 3656   0.031   3.759   7.587  1.5275 -0.8376  0.5395
   50CHL1   C12 3657   0.081   3.511   7.676  0.2748  0.7404 -0.1491
   50CHL1  H12A 3658   0.130   3.543   7.770  0.4738  1.6067 -0.5358
   50CHL1  H12B 3659   0.068   3.402   7.690  0.2883  0.6103 -1.0737
   50CHL1   C11 3660   0.177   3.538   7.555  0.5530 -0.4483 -0.4381
   50CHL1  H11A 3661   0.217   3.642   7.558 -3.8946  1.5261 -1.2706
   50CHL1  H11B 3662   0.259   3.467   7.578  0.4795  0.2864  2.5526
   50CHL1    C9 3663   0.106   3.521   7.412  0.6202  0.3336 -0.5701
   50CHL1    H9 3664   0.082   3.413   7.405  0.1972  0.4497 -0.9158
   50CHL1   C10 3665   0.191   3.548   7.284 -0.3087 -0.2931  0.3385
   50CHL1   C19 3666   0.264   3.680   7.305 -0.1864  0.2246 -0.1890
   50CHL1  H19A 3667   0.188   3.756   7.334  0.2764 -0.3403  2.7971
   50CHL1  H19B 3668   0.331   3.683   7.393 -1.2942  0.2443  0.6710
   50CHL1  H19C 3669   0.321   3.715   7.216 -1.4205 -0.1803 -1.1721
   50CHL1    C1 3670   0.292   3.423   7.271 -0.6087 -0.2559 -0.6165
   50CHL1   H1A 3671   0.356   3.425   7.361 -1.2558 -0.0272 -0.1558
   50CHL1   H1B 3672   0.232   3.330   7.273  0.1460 -0.7959  3.3025
   50CHL1    C2 3673   0.380   3.433   7.144 -0.0956 -0.1717  0.0868
   50CHL1   H2A 3674   0.440   3.340   7.133  1.5478  0.9171 -0.4757
   50CHL1   H2B 3675   0.467   3.501   7.155  1.0819 -1.3431 -1.5350
   50CHL1   C20 3676  -0.160   3.566   7.909 -0.6456 -0.1983  0.3081
   50CHL1   H20 3677  -0.055   3.585   7.941 -0.1617 -2.4201  0.1649
   50CHL1   C21 3678  -0.213   3.447   7.994 -0.0301 -0.0934  0.5599
   50CHL1  H21A 3679  -0.155   3.353   7.983 -1.3785 -0.9863  0.8648
   50CHL1  H21B 3680  -0.319   3.422   7.971 -0.3498 -0.9805  2.7333
   50CHL1  H21C 3681  -0.199   3.468   8.102  0.1649 -2.6815  1.0997
   50CHL1   C22 3682  -0.238   3.695   7.942 -1.0357 -0.3268 -0.0164
   50CHL1  H22A 3683  -0.204   3.781   7.879  0.1268 -1.4485 -0.9742
   50CHL1  H22B 3684  -0.348   3.689   7.936 -0.9754 -0.5646 -1.0212
   50CHL1   C23 3685  -0.194   3.748   8.081 -0.4897  0.0866  0.4919
   50CHL1  H23A 3686  -0.206   3.660   8.148  2.1071 -0.8212 -0.1327
   50CHL1  H23B 3687  -0.084   3.750   8.065 -0.3749  0.4143  1.3057
   50CHL1   C24 3688  -0.276   3.874   8.122  0.3896 -0.0778  1.1474
   50CHL1  H24A 3689  -0.253   3.946   8.040 -1.5847  0.9438  1.4485
   50CHL1  H24B 3690  -0.386   3.860   8.115  0.3081  1.1340 -0.7398
   50CHL1   C25 3691  -0.237   3.924   8.261  0.2061 -0.4851  0.8473
   50CHL1   H25 3692  -0.126   3.929   8.260  0.1633  2.9280  0.2799
   50CHL1   C26 3693  -0.279   4.069   8.283 -0.1004 -0.0325 -0.2205
   50CHL1  H26A 3694  -0.266   4.130   8.191 -0.0649  3.0079  1.6542
   50CHL1  H26B 3695  -0.385   4.087   8.311 -0.9122 -2.4289 -1.5283
   50CHL1  H26C 3696  -0.213   4.123   8.355 -2.6222  0.2171  2.0713
   50CHL1   C27 3697  -0.289   3.837   8.380  0.4201 -0.5697  0.3740
   50CHL1  H27A 3698  -0.244   3.879   8.472 -2.0284  0.8750  1.0062
   50CHL1  H27B 3699  -0.400   3.850   8.379  0.3099 -1.4083 -0.6425
   50CHL1  H27C 3700  -0.270   3.730   8.359 -1.0093 -0.9474  0.9226
   51CHL1    C3 3701   4.086   6.254   6.764 -0.2228  0.7824 -0.6266
   51CHL1    H3 3702   4.006   6.324   6.797 -0.3040  1.5097 -2.2831
   51CHL1    O3 3703   4.123   6.271   6.629 -0.9180 -0.2174 -0.5464
   51CHL1   H3' 3704   4.216   6.253   6.640 -1.3601 -2.4720 -0.1429
   51CHL1    C4 3705   4.203   6.284   6.855 -0.6046  0.0408  0.1587
   51CHL1   H4A 3706   4.279   6.211   6.820 -1.6216 -0.2628 -1.5056
   51CHL1   H4B 3707   4.224   6.391   6.836  0.0313  0.0655  0.9276
   51CHL1    C5 3708   4.177   6.249   6.998  0.1652  0.3026  0.1626
   51CHL1    C6 3709   4.194   6.348   7.086  0.5772  0.9026  0.0383
   51CHL1    H6 3710   4.226   6.448   7.055  1.4859  0.1111 -1.7158
   51CHL1    C7 3711   4.174   6.328   7.233 -0.4407  0.0644  0.1993
   51CHL1   H7A 3712   4.250   6.384   7.293 -2.2153  0.2588  2.4180
   51CHL1   H7B 3713   4.077   6.376   7.257 -0.5196 -0.1123  0.2319
   51CHL1    C8 3714   4.173   6.184   7.286 -0.2534 -0.5025 -0.2401
   51CHL1    H8 3715   4.278   6.146   7.294 -0.2149 -0.0320  2.3522
   51CHL1   C14 3716   4.110   6.165   7.426 -0.6371  0.4231  0.1486
   51CHL1   H14 3717   4.007   6.208   7.422 -0.3155  1.2173  0.2036
   51CHL1   C15 3718   4.175   6.246   7.544  0.0546 -0.2822 -0.0076
   51CHL1  H15A 3719   4.284   6.228   7.540  0.0118 -1.1614  1.7502
   51CHL1  H15B 3720   4.146   6.354   7.540  0.0555 -0.2654  0.3852
   51CHL1   C16 3721   4.123   6.167   7.664 -0.3702  0.1597  0.9611
   51CHL1  H16A 3722   4.205   6.120   7.723  0.6323  0.0268 -0.4986
   51CHL1  H16B 3723   4.063   6.233   7.732 -3.3424 -1.6956  0.3425
   51CHL1   C17 3724   4.033   6.052   7.615  0.3715 -0.1571 -0.8421
   51CHL1   H17 3725   3.933   6.096   7.597  0.2335 -0.3803 -0.6277
   51CHL1   C13 3726   4.092   6.024   7.479  0.2959 -0.3097  0.0431
   51CHL1   C18 3727   4.225   5.945   7.503  0.1299  0.0736 -0.0386
   51CHL1  H18A 3728   4.289   5.943   7.413  2.3248  3.4009  1.2938
   51CHL1  H18B 3729   4.288   5.989   7.582 -1.2565 -0.3422  1.3584
   51CHL1  H18C 3730   4.199   5.838   7.520 -1.4218  0.4631  0.2592
   51CHL1   C12 3731   4.004   5.948   7.379  0.3532  0.9645  0.4997
   51CHL1  H12A 3732   3.997   5.842   7.410 -1.3614  0.5318 -1.1882
   51CHL1  H12B 3733   3.898   5.980   7.374  0.5170  1.5841  0.9299
   51CHL1   C11 3734   4.063   5.951   7.232  0.0150 -0.0917 -1.2783
   51CHL1  H11A 3735   4.162   5.900   7.234  0.5365  0.8900  1.7124
   51CHL1  H11B 3736   3.997   5.894   7.163 -0.2136  0.6522 -1.6830
   51CHL1    C9 3737   4.089   6.098   7.186  0.0557  0.3322 -0.0173
   51CHL1    H9 3738   3.988   6.143   7.192 -1.2062 -2.2872 -0.2911
   51CHL1   C10 3739   4.130   6.110   7.032  0.3896  0.2387  0.2133
   51CHL1   C19 3740   4.239   6.001   7.002 -0.2397 -0.2560  0.0316
   51CHL1  H19A 3741   4.332   6.012   7.063 -1.2002  1.7372  1.2108
   51CHL1  H19B 3742   4.214   5.893   6.994 -0.0406 -0.4173  1.3511
   51CHL1  H19C 3743   4.260   6.028   6.896  1.9674 -0.0926  0.4533
   51CHL1    C1 3744   4.004   6.094   6.940 -0.4384 -0.0465  0.0015
   51CHL1   H1A 3745   3.963   5.991   6.945  0.5005 -0.5210 -1.3616
   51CHL1   H1B 3746   3.927   6.164   6.976 -0.0610  0.2228  0.2928
   51CHL1    C2 3747   4.024   6.118   6.792 -0.9161  0.2454  0.2543
   51CHL1   H2A 3748   3.921   6.122   6.750 -0.4519  0.3083 -0.9011
   51CHL1   H2B 3749   4.073   6.030   6.744 -1.3743  0.7237 -1.1378
   51CHL1   C20 3750   4.020   5.949   7.724 -0.6328 -0.6691  0.7845
   51CHL1   H20 3751   4.120   5.907   7.746 -0.8892 -0.9154  1.5393
   51CHL1   C21 3752   3.940   5.833   7.665  0.3812  0.1512  0.0829
   51CHL1  H21A 3753   3.888   5.780   7.748  0.9874 -2.5741 -1.1720
   51CHL1  H21B 3754   4.000   5.751   7.619  0.3726  0.8701 -1.2607
   51CHL1  H21C 3755   3.865   5.873   7.594 -0.3470 -1.7047 -0.2471
   51CHL1   C22 3756   3.981   6.000   7.862  0.2757  0.7829  0.1083
   51CHL1  H22A 3757   4.040   6.086   7.898  0.1709  0.2015  1.7487
   51CHL1  H22B 3758   3.877   6.040   7.863 -0.9088 -2.0493  0.4216
   51CHL1   C23 3759   3.986   5.891   7.968 -0.5860  0.1597 -0.0158
   51CHL1  H23A 3760   3.944   5.790   7.951 -0.2940 -0.3979  2.3282
   51CHL1  H23B 3761   4.095   5.871   7.980 -0.4404  0.4589 -0.7576
   51CHL1   C24 3762   3.929   5.942   8.097  0.0117  0.0875  0.1794
   51CHL1  H24A 3763   3.991   6.028   8.131  4.0332 -2.1849 -0.7469
   51CHL1  H24B 3764   3.824   5.978   8.091 -0.1798 -0.1095  1.7850
   51CHL1   C25 3765   3.921   5.835   8.212  0.4734  0.1987 -0.1531
   51CHL1   H25 3766   3.870   5.751   8.159 -0.2137  1.4507 -1.5519
   51CHL1   C26 3767   4.063   5.800   8.261 -0.4216  0.2539  0.2131
   51CHL1  H26A 3768   4.103   5.888   8.316  0.7391  0.3967 -0.8277
   51CHL1  H26B 3769   4.068   5.723   8.341 -1.3645  1.3255  1.3352
   51CHL1  H26C 3770   4.134   5.779   8.178  0.6619 -1.1340  1.4097
   51CHL1   C27 3771   3.825   5.882   8.319  0.3987 -0.4417 -0.2701
   51CHL1  H27A 3772   3.874   5.976   8.351 -0.1380 -1.0335  2.5349
   51CHL1  H27B 3773   3.723   5.894   8.276  0.1203 -0.0200  0.4877
   51CHL1  H27C 3774   3.827   5.814   8.407  0.6760 -0.3853 -0.2303
   52CHL1    C3 3775   0.289   0.742   6.861  0.2390  0.6740 -0.2815
   52CHL1    H3 3776   0.319   0.849   6.863  0.6770  0.5447  1.2780
   52CHL1    O3 3777   0.284   0.715   6.719  0.2719 -0.0603  0.0822
   52CHL1   H3' 3778   0.213   0.651   6.713  0.7218 -0.8102  2.0104
   52CHL1    C4 3779   0.383   0.637   6.926  0.0415  0.3571  0.9888
   52CHL1   H4A 3780   0.356   0.531   6.905  1.6360  0.0398  0.3818
   52CHL1   H4B 3781   0.479   0.658   6.875  0.5750 -1.9175  0.9594
   52CHL1    C5 3782   0.388   0.645   7.075  0.1094 -0.2597  0.0868
   52CHL1    C6 3783   0.506   0.658   7.139  0.2699 -0.5599 -0.4860
   52CHL1    H6 3784   0.599   0.660   7.080  1.0511  0.7345  0.7085
   52CHL1    C7 3785   0.510   0.675   7.294 -0.0456  0.3551  0.3193
   52CHL1   H7A 3786   0.597   0.610   7.319  0.0558  1.1407  2.1370
   52CHL1   H7B 3787   0.533   0.776   7.334 -1.1292  1.6439 -2.0857
   52CHL1    C8 3788   0.383   0.621   7.359  0.0816 -0.6916  1.2016
   52CHL1    H8 3789   0.388   0.510   7.365  2.2415 -0.5584  3.3275
   52CHL1   C14 3790   0.373   0.671   7.501  0.2884  0.0548 -0.1797
   52CHL1   H14 3791   0.354   0.780   7.490 -0.9364 -0.1390 -0.0978
   52CHL1   C15 3792   0.501   0.658   7.587 -0.5302  0.0256  0.7630
   52CHL1  H15A 3793   0.552   0.567   7.549 -0.5218  1.3114 -2.7484
   52CHL1  H15B 3794   0.581   0.734   7.573  0.5945 -1.1040  0.8941
   52CHL1   C16 3795   0.450   0.666   7.731 -0.0737  0.2496  0.6004
   52CHL1  H16A 3796   0.463   0.569   7.783 -1.2305  1.4012  3.2823
   52CHL1  H16B 3797   0.486   0.758   7.783  1.9674  1.1229 -2.1248
   52CHL1   C17 3798   0.292   0.677   7.731 -0.5939 -0.2298  0.8129
   52CHL1   H17 3799   0.268   0.785   7.725  0.5645 -0.0389 -1.1029
   52CHL1   C13 3800   0.256   0.627   7.589  0.0838 -0.7616 -0.6791
   52CHL1   C18 3801   0.252   0.472   7.594 -0.3061 -0.7293  0.0141
   52CHL1  H18A 3802   0.157   0.442   7.645 -0.7267 -2.3710 -1.6573
   52CHL1  H18B 3803   0.239   0.432   7.492  1.9421  2.2401 -1.6068
   52CHL1  H18C 3804   0.341   0.424   7.638 -0.8340 -0.5717  1.3354
   52CHL1   C12 3805   0.128   0.679   7.528 -0.4063  0.4002 -0.3173
   52CHL1  H12A 3806   0.046   0.626   7.581  1.8553 -0.0845  3.0414
   52CHL1  H12B 3807   0.112   0.787   7.545  1.1974  0.7878 -1.0777
   52CHL1   C11 3808   0.128   0.645   7.377 -0.0431  0.8055  0.2090
   52CHL1  H11A 3809   0.108   0.536   7.371 -0.8614  0.9437  0.2602
   52CHL1  H11B 3810   0.043   0.690   7.321 -0.0890 -1.5716 -1.7934
   52CHL1    C9 3811   0.254   0.672   7.295 -0.3127 -0.3520  1.5970
   52CHL1    H9 3812   0.260   0.783   7.298 -0.7197 -0.3394  2.0361
   52CHL1   C10 3813   0.251   0.634   7.141 -0.2032  0.3959 -0.8400
   52CHL1   C19 3814   0.198   0.489   7.127  0.4670 -0.3713 -0.0871
   52CHL1  H19A 3815   0.200   0.476   7.017 -1.3762  2.8431 -0.6309
   52CHL1  H19B 3816   0.258   0.407   7.172  3.2628  0.0574 -2.7102
   52CHL1  H19C 3817   0.096   0.480   7.169  1.1545  1.7758  2.2966
   52CHL1    C1 3818   0.160   0.731   7.077 -0.7074 -0.4560 -0.8448
   52CHL1   H1A 3819   0.057   0.710   7.113 -0.0631 -1.6807  0.3781
   52CHL1   H1B 3820   0.192   0.836   7.091 -0.9351 -0.2855 -1.5729
   52CHL1    C2 3821   0.150   0.725   6.923 -1.1551  0.3304 -0.2643
   52CHL1   H2A 3822   0.097   0.812   6.879 -0.0523  0.3937 -1.5287
   52CHL1   H2B 3823   0.099   0.632   6.887 -0.1912  0.7039 -2.8328
   52CHL1   C20 3824   0.240   0.620   7.861 -0.4290  0.6740 -0.2568
   52CHL1   H20 3825   0.256   0.510   7.872  2.9488  1.0353 -0.4809
   52CHL1   C21 3826   0.081   0.643   7.870 -0.3543 -0.2291 -0.5162
   52CHL1  H21A 3827   0.068   0.750   7.897  1.1978 -0.3606  0.8718
   52CHL1  H21B 3828   0.041   0.575   7.949 -1.2589 -2.6252 -2.9080
   52CHL1  H21C 3829   0.024   0.624   7.777 -0.9047 -2.7747  0.2466
   52CHL1   C22 3830   0.311   0.666   7.990 -0.0151 -0.4825 -0.9816
   52CHL1  H22A 3831   0.267   0.628   8.085  2.7565  2.1443  1.5815
   52CHL1  H22B 3832   0.419   0.640   7.989 -0.1476 -1.3040  1.0885
   52CHL1   C23 3833   0.305   0.818   8.019  0.1292 -0.8161 -0.5051
   52CHL1  H23A 3834   0.379   0.869   7.955 -0.0200  3.2093  2.1598
   52CHL1  H23B 3835   0.201   0.853   8.001  0.6222  0.2676 -1.3245
   52CHL1   C24 3836   0.333   0.846   8.173  0.4034 -0.0417  0.2376
   52CHL1  H24A 3837   0.269   0.771   8.226  0.1132 -0.9505 -1.3366
   52CHL1  H24B 3838   0.436   0.817   8.203  0.3549 -2.4983 -1.6113
   52CHL1   C25 3839   0.295   0.985   8.219 -0.0525  0.3536  0.5192
   52CHL1   H25 3840   0.335   1.050   8.139  2.1233 -0.6744  0.6975
   52CHL1   C26 3841   0.141   0.993   8.245 -0.9639  0.1137 -0.6605
   52CHL1  H26A 3842   0.106   0.910   8.310 -1.9351  0.6300 -0.5083
   52CHL1  H26B 3843   0.102   1.086   8.292 -1.9864  0.0347 -1.3346
   52CHL1  H26C 3844   0.095   0.982   8.145  1.6193 -1.9676 -1.7607
   52CHL1   C27 3845   0.375   1.005   8.347 -0.2051 -0.0977 -0.4265
   52CHL1  H27A 3846   0.483   1.005   8.321  0.2076 -1.1993  1.1607
   52CHL1  H27B 3847   0.344   1.105   8.385  0.7097  1.6804 -3.8794
   52CHL1  H27C 3848   0.361   0.917   8.412 -1.6770  1.1112  0.9751
   53CHL1    C3 3849   2.507   0.572   7.035  0.4198 -1.4150 -0.1684
   53CHL1    H3 3850   2.525   0.675   7.072 -4.5075 -0.2163 -0.4328
   53CHL1    O3 3851   2.524   0.549   6.894  0.6124  0.1767 -0.7396
   53CHL1   H3' 3852   2.544   0.456   6.896 -0.2242 -0.0105  1.1160
   53CHL1    C4 3853   2.595   0.478   7.112 -0.5620 -0.8627 -0.0428
   53CHL1   H4A 3854   2.569   0.375   7.081  2.8443 -1.9105  0.1872
   53CHL1   H4B 3855   2.700   0.495   7.081 -0.7891 -1.5164 -1.2143
   53CHL1    C5 3856   2.588   0.481   7.264  0.4098  0.5355 -0.6928
   53CHL1    C6 3857   2.690   0.506   7.352 -0.0237  0.3470  0.7291
   53CHL1    H6 3858   2.792   0.520   7.312 -0.3651 -0.7633 -0.5991
   53CHL1    C7 3859   2.688   0.528   7.506  0.6267 -0.6130 -0.6843
   53CHL1   H7A 3860   2.776   0.478   7.551 -0.0645 -0.1351  1.3011
   53CHL1   H7B 3861   2.694   0.636   7.529 -0.0935 -0.7336  0.1169
   53CHL1    C8 3862   2.554   0.468   7.563  0.7990 -0.2870 -0.0555
   53CHL1    H8 3863   2.555   0.357   7.565 -1.3500 -0.3708 -1.2617
   53CHL1   C14 3864   2.535   0.523   7.710  0.0159 -0.0142  0.6070
   53CHL1   H14 3865   2.546   0.634   7.710 -0.9088  0.0932  1.2995
   53CHL1   C15 3866   2.645   0.501   7.819 -0.1842 -1.1333  0.5274
   53CHL1  H15A 3867   2.672   0.393   7.823 -1.6347 -1.5859 -0.9861
   53CHL1  H15B 3868   2.745   0.546   7.796 -1.6513  1.2251 -1.8791
   53CHL1   C16 3869   2.574   0.535   7.949  0.0597  0.0175  0.4004
   53CHL1  H16A 3870   2.585   0.469   8.038  1.6277  1.0287  1.0068
   53CHL1  H16B 3871   2.583   0.641   7.981 -1.7333  0.4679 -0.4625
   53CHL1   C17 3872   2.419   0.552   7.907  0.3581 -0.2020 -0.4624
   53CHL1   H17 3873   2.405   0.661   7.889  1.1091 -0.2742 -1.6011
   53CHL1   C13 3874   2.399   0.482   7.774 -0.0034  0.0655  0.5049
   53CHL1   C18 3875   2.409   0.325   7.794 -0.1820 -0.5955  0.3349
   53CHL1  H18A 3876   2.323   0.282   7.851 -0.1708  1.2520  1.8624
   53CHL1  H18B 3877   2.412   0.267   7.700  2.2513 -0.0300  0.0046
   53CHL1  H18C 3878   2.495   0.299   7.859  0.1282 -0.8721 -0.1853
   53CHL1   C12 3879   2.290   0.533   7.688  0.5822 -0.2106  0.0277
   53CHL1  H12A 3880   2.187   0.517   7.726  0.1521  0.8195 -0.6356
   53CHL1  H12B 3881   2.311   0.642   7.685  3.4036 -0.6917 -0.8088
   53CHL1   C11 3882   2.296   0.486   7.540 -0.3642  0.1108  0.4636
   53CHL1  H11A 3883   2.279   0.376   7.532 -0.0172  0.1365 -0.8816
   53CHL1  H11B 3884   2.219   0.539   7.481  0.0496 -1.1185 -1.2532
   53CHL1    C9 3885   2.436   0.512   7.469  1.0944  0.2347  0.5151
   53CHL1    H9 3886   2.449   0.621   7.454  0.0515  0.3577  0.4511
   53CHL1   C10 3887   2.446   0.467   7.320  0.5997 -0.4187 -0.0403
   53CHL1   C19 3888   2.416   0.314   7.306  0.1205 -0.3475  0.2634
   53CHL1  H19A 3889   2.314   0.282   7.336 -0.1374 -0.8727 -1.0799
   53CHL1  H19B 3890   2.420   0.291   7.197 -0.8484 -1.9069  0.5241
   53CHL1  H19C 3891   2.482   0.250   7.369 -0.1249 -0.5982  0.2699
   53CHL1    C1 3892   2.346   0.549   7.236 -0.5462 -0.1941  0.1645
   53CHL1   H1A 3893   2.239   0.537   7.263 -0.4514 -0.2058  0.5524
   53CHL1   H1B 3894   2.364   0.655   7.265  0.6692 -0.5692  0.8467
   53CHL1    C2 3895   2.367   0.542   7.086  0.0494 -0.1814  0.1018
   53CHL1   H2A 3896   2.298   0.605   7.026  1.0387  0.5560 -0.2722
   53CHL1   H2B 3897   2.360   0.433   7.062 -1.4284 -0.4619  1.5971
   53CHL1   C20 3898   2.328   0.514   8.029  0.7393  0.7870  0.5007
   53CHL1   H20 3899   2.356   0.414   8.067  1.5754  1.5550  2.0035
   53CHL1   C21 3900   2.183   0.523   7.995 -0.1604  0.0431 -0.3343
   53CHL1  H21A 3901   2.160   0.624   7.954  0.8326  0.5678  0.3561
   53CHL1  H21B 3902   2.116   0.478   8.071 -0.2518 -1.3883 -1.2177
   53CHL1  H21C 3903   2.170   0.454   7.909 -0.5810  1.2631 -1.2714
   53CHL1   C22 3904   2.364   0.611   8.144 -0.1599  0.2646 -0.5591
   53CHL1  H22A 3905   2.462   0.591   8.190 -0.1066 -0.0272 -0.7922
   53CHL1  H22B 3906   2.354   0.714   8.102 -0.3130  1.4434  2.1631
   53CHL1   C23 3907   2.277   0.601   8.270  0.4720 -0.1105 -0.1737
   53CHL1  H23A 3908   2.171   0.631   8.255 -0.3558 -2.2981  0.8332
   53CHL1  H23B 3909   2.265   0.495   8.301 -2.3194  0.0340 -0.4975
   53CHL1   C24 3910   2.326   0.687   8.385  0.0853 -0.5430 -0.1502
   53CHL1  H24A 3911   2.419   0.642   8.428  1.2988 -0.4021 -2.4915
   53CHL1  H24B 3912   2.342   0.790   8.348  1.7903 -1.4297 -2.1210
   53CHL1   C25 3913   2.225   0.704   8.505 -0.2393  0.8246  0.2229
   53CHL1   H25 3914   2.132   0.719   8.447 -0.8770 -0.2870  0.9177
   53CHL1   C26 3915   2.220   0.575   8.590  0.6505  0.1630 -0.0486
   53CHL1  H26A 3916   2.137   0.575   8.664 -0.0765 -0.0349 -0.8423
   53CHL1  H26B 3917   2.199   0.498   8.512  0.2320  0.6392 -0.4102
   53CHL1  H26C 3918   2.310   0.538   8.644 -0.3837  0.4669  1.9998
   53CHL1   C27 3919   2.249   0.825   8.597 -0.4391 -0.2659 -0.2838
   53CHL1  H27A 3920   2.164   0.830   8.668 -3.6465 -0.3177 -3.8123
   53CHL1  H27B 3921   2.350   0.809   8.642 -0.6499  0.6970  0.5548
   53CHL1  H27C 3922   2.261   0.917   8.536  1.8454 -0.7461 -0.6367
   54CHL1    C3 3923   3.836   1.681   6.839 -0.6806 -0.0534 -0.7221
   54CHL1    H3 3924   3.760   1.613   6.883 -0.9937  1.5560  1.3868
   54CHL1    O3 3925   3.821   1.697   6.700 -0.4695  0.6760  0.4248
   54CHL1   H3' 3926   3.872   1.775   6.680  0.9964 -0.1507  0.7839
   54CHL1    C4 3927   3.834   1.819   6.905  0.2004  0.0345 -0.2539
   54CHL1   H4A 3928   3.920   1.870   6.857  0.4226 -2.5546 -2.8507
   54CHL1   H4B 3929   3.742   1.868   6.866  0.1769 -0.2311 -0.5287
   54CHL1    C5 3930   3.839   1.802   7.057  0.1883  0.4510 -0.5873
   54CHL1    C6 3931   3.736   1.831   7.133 -0.2590 -0.5290 -0.3905
   54CHL1    H6 3932   3.650   1.883   7.090 -1.0027 -1.5802 -0.1999
   54CHL1    C7 3933   3.738   1.820   7.283 -0.2864 -0.1908 -0.0724
   54CHL1   H7A 3934   3.706   1.919   7.321  2.9616  1.8257 -2.0856
   54CHL1   H7B 3935   3.663   1.742   7.311 -0.9035  0.8836  1.4051
   54CHL1    C8 3936   3.875   1.791   7.340  0.0383 -1.0194 -0.0535
   54CHL1    H8 3937   3.934   1.884   7.331 -0.8172 -0.2506  1.7804
   54CHL1   C14 3938   3.862   1.747   7.486 -0.1836 -0.0131  0.2033
   54CHL1   H14 3939   3.814   1.647   7.482  0.5433 -0.3370 -1.1002
   54CHL1   C15 3940   3.784   1.840   7.586 -0.4054 -0.2395  0.2818
   54CHL1  H15A 3941   3.816   1.945   7.576 -2.6130  0.4236 -0.5509
   54CHL1  H15B 3942   3.675   1.837   7.564 -0.4292  0.0418  0.3609
   54CHL1   C16 3943   3.820   1.781   7.724  0.4819  0.0853  0.1202
   54CHL1  H16A 3944   3.832   1.860   7.801 -0.8047 -3.1248  4.0062
   54CHL1  H16B 3945   3.740   1.709   7.753  1.1376 -1.3090 -1.4038
   54CHL1   C17 3946   3.943   1.691   7.700  0.6021  0.5618  0.4800
   54CHL1   H17 3947   3.907   1.586   7.701  2.2859 -0.0620  1.9080
   54CHL1   C13 3948   3.993   1.719   7.552  0.4246 -0.3933 -0.2258
   54CHL1   C18 3949   4.078   1.849   7.554 -0.2457 -0.7303  0.1735
   54CHL1  H18A 3950   4.184   1.832   7.584  0.1794  3.2182  1.4090
   54CHL1  H18B 3951   4.095   1.886   7.450 -1.0549 -0.3394  0.1810
   54CHL1  H18C 3952   4.039   1.932   7.615 -0.8548  0.7734 -2.1440
   54CHL1   C12 3953   4.062   1.609   7.474 -0.5248 -0.0624  0.3360
   54CHL1  H12A 3954   4.163   1.576   7.508  0.5043  1.9819 -0.5438
   54CHL1  H12B 3955   3.996   1.520   7.487  0.9184 -1.3726 -0.8860
   54CHL1   C11 3956   4.080   1.643   7.334 -0.4865  0.6082  0.1509
   54CHL1  H11A 3957   4.153   1.727   7.327  0.8324 -0.3168  1.8610
   54CHL1  H11B 3958   4.132   1.558   7.284  0.7866 -0.5865  3.2377
   54CHL1    C9 3959   3.950   1.689   7.254  0.1272  0.1359 -0.6719
   54CHL1    H9 3960   3.881   1.602   7.263 -0.4001  0.3862 -2.0874
   54CHL1   C10 3961   3.967   1.730   7.106 -0.9583  0.5257 -0.3603
   54CHL1   C19 3962   4.091   1.813   7.082  0.1499 -0.1838 -0.1156
   54CHL1  H19A 3963   4.102   1.859   6.981 -0.4767  0.1258 -0.0478
   54CHL1  H19B 3964   4.087   1.909   7.140 -1.1622 -0.3699  0.1358
   54CHL1  H19C 3965   4.190   1.767   7.104  1.6864  3.1080  0.5870
   54CHL1    C1 3966   3.987   1.594   7.027  0.0212  0.8765 -0.0573
   54CHL1   H1A 3967   4.085   1.542   7.039 -0.0519  0.7028 -0.2112
   54CHL1   H1B 3968   3.906   1.524   7.054 -2.3333  2.5150 -2.3159
   54CHL1    C2 3969   3.964   1.613   6.877  0.0354  0.0578  0.3710
   54CHL1   H2A 3970   3.989   1.519   6.822  2.2179  1.9564 -2.1820
   54CHL1   H2B 3971   4.054   1.670   6.846  0.5899  0.8770  3.2877
   54CHL1   C20 3972   4.052   1.698   7.812  0.3787 -0.4104  0.7193
   54CHL1   H20 3973   4.071   1.807   7.807 -1.2561 -0.1198  0.2152
   54CHL1   C21 3974   4.174   1.620   7.779 -0.4315  0.1652 -0.2048
   54CHL1  H21A 3975   4.147   1.513   7.765 -0.2969  0.0968  0.0547
   54CHL1  H21B 3976   4.244   1.620   7.865  0.5921 -0.8858 -0.9979
   54CHL1  H21C 3977   4.219   1.662   7.687 -2.1926 -1.6641 -2.0159
   54CHL1   C22 3978   4.002   1.663   7.958  0.9598 -0.3453  0.0175
   54CHL1  H22A 3979   4.066   1.718   8.030 -0.5875  1.2189  0.2915
   54CHL1  H22B 3980   3.901   1.709   7.970  1.3538  0.2134  1.3544
   54CHL1   C23 3981   3.980   1.511   7.993  0.0630 -0.0079  0.0627
   54CHL1  H23A 3982   3.913   1.474   7.912  1.0938 -1.9475  0.0419
   54CHL1  H23B 3983   4.078   1.464   7.974  0.0927  0.1721 -0.2250
   54CHL1   C24 3984   3.944   1.460   8.131  0.5450  0.0204 -0.2448
   54CHL1  H24A 3985   4.020   1.495   8.204  0.5510  0.5720 -0.5102
   54CHL1  H24B 3986   3.845   1.500   8.165  0.2180  1.1607 -2.3293
   54CHL1   C25 3987   3.936   1.302   8.135  0.2267  0.2506 -1.1707
   54CHL1   H25 3988   4.040   1.266   8.118  0.1671 -0.8507  0.5606
   54CHL1   C26 3989   3.888   1.253   8.269 -0.0540 -0.0828 -0.7881
   54CHL1  H26A 3990   3.922   1.150   8.291  2.6353  0.8712  0.0258
   54CHL1  H26B 3991   3.930   1.302   8.360 -0.2910 -1.1745 -0.0687
   54CHL1  H26C 3992   3.779   1.271   8.274  0.1691  1.1505  3.1273
   54CHL1   C27 3993   3.840   1.246   8.029 -0.0968  0.4065  0.6469
   54CHL1  H27A 3994   3.832   1.135   8.025 -1.6173  0.5083 -2.1694
   54CHL1  H27B 3995   3.735   1.282   8.039 -1.0521 -0.6428 -3.4420
   54CHL1  H27C 3996   3.880   1.283   7.932 -1.1708  2.5702  0.9601
   55CHL1    C3 3997   4.217   3.314   7.207  0.0209 -0.2549  0.6654
   55CHL1    H3 3998   4.113   3.284   7.232  0.6397 -2.5555  0.6582
   55CHL1    O3 3999   4.216   3.374   7.075  0.2601  0.0639 -0.1152
   55CHL1   H3' 4000   4.285   3.442   7.078  2.2271 -1.8658  1.3752
   55CHL1    C4 4001   4.265   3.424   7.303 -0.6124 -0.3032 -0.2035
   55CHL1   H4A 4002   4.368   3.448   7.269 -0.6174 -1.7663 -1.3618
   55CHL1   H4B 4003   4.193   3.509   7.296  0.7800  0.8863 -0.5168
   55CHL1    C5 4004   4.270   3.364   7.445 -0.2855 -0.2299 -0.3163
   55CHL1    C6 4005   4.194   3.417   7.544 -0.2508  0.0354 -0.1857
   55CHL1    H6 4006   4.129   3.501   7.518 -0.2443  0.0596 -0.1250
   55CHL1    C7 4007   4.190   3.377   7.689 -0.5984  0.5818  0.0845
   55CHL1   H7A 4008   4.189   3.472   7.746  0.1327  0.6793 -0.0513
   55CHL1   H7B 4009   4.096   3.321   7.708 -0.5758  0.3693 -0.4244
   55CHL1    C8 4010   4.313   3.284   7.713  0.4998 -0.2944  0.4509
   55CHL1    H8 4011   4.407   3.343   7.710  0.1844  0.3150  1.9429
   55CHL1   C14 4012   4.306   3.231   7.857  0.6184  0.4704 -0.1365
   55CHL1   H14 4013   4.208   3.178   7.850  0.6646  0.5812 -2.2557
   55CHL1   C15 4014   4.286   3.326   7.984 -0.2503  0.4671  0.1414
   55CHL1  H15A 4015   4.369   3.400   7.981  0.9836 -0.9033 -0.4303
   55CHL1  H15B 4016   4.187   3.377   7.986 -1.5441 -1.9242  0.4327
   55CHL1   C16 4017   4.322   3.231   8.102  0.1856 -0.0841  0.1002
   55CHL1  H16A 4018   4.395   3.286   8.166  2.1872 -0.9705 -1.3473
   55CHL1  H16B 4019   4.230   3.202   8.157 -0.2712 -1.2952 -1.2389
   55CHL1   C17 4020   4.369   3.097   8.040  0.3042  0.1863 -0.1885
   55CHL1   H17 4021   4.278   3.035   8.023 -1.1745  1.2815  2.8528
   55CHL1   C13 4022   4.408   3.138   7.901 -0.3398 -0.6298 -0.4298
   55CHL1   C18 4023   4.543   3.215   7.913  1.0253  0.3233 -0.4748
   55CHL1  H18A 4024   4.574   3.267   7.819 -0.0445  1.5373 -0.1900
   55CHL1  H18B 4025   4.550   3.288   7.997  1.5114  1.1554 -1.2124
   55CHL1  H18C 4026   4.619   3.135   7.925  1.5399  0.8365 -0.1987
   55CHL1   C12 4027   4.419   3.017   7.797  0.3019 -0.1520  0.7013
   55CHL1  H12A 4028   4.502   2.949   7.825  1.3446  0.5783 -0.4992
   55CHL1  H12B 4029   4.315   2.978   7.790  0.4563 -0.3334 -0.9825
   55CHL1   C11 4030   4.447   3.073   7.654 -0.2766 -0.2852  1.0702
   55CHL1  H11A 4031   4.546   3.124   7.658  0.1363 -1.0156  0.4969
   55CHL1  H11B 4032   4.460   2.993   7.578  0.6316  0.3637  0.5176
   55CHL1    C9 4033   4.335   3.170   7.613 -0.2794 -0.5904 -0.4441
   55CHL1    H9 4034   4.243   3.109   7.602 -1.3121  0.5000  1.6162
   55CHL1   C10 4035   4.347   3.233   7.465  0.1873 -0.2032  0.1584
   55CHL1   C19 4036   4.494   3.265   7.447  0.1957 -0.7893 -0.7916
   55CHL1  H19A 4037   4.504   3.329   7.356 -1.7199 -1.2941 -1.4096
   55CHL1  H19B 4038   4.540   3.308   7.539  0.9813 -1.3064 -0.9393
   55CHL1  H19C 4039   4.554   3.173   7.435  0.5309 -0.4393 -1.9683
   55CHL1    C1 4040   4.308   3.125   7.351  0.7661 -0.3960 -0.6900
   55CHL1   H1A 4041   4.371   3.036   7.373 -0.6635 -0.6719  3.0684
   55CHL1   H1B 4042   4.210   3.088   7.389  0.6725 -0.8714 -1.3822
   55CHL1    C2 4043   4.299   3.185   7.212  0.4551  0.1749 -0.3489
   55CHL1   H2A 4044   4.250   3.123   7.134 -2.3610  0.1711  1.3016
   55CHL1   H2B 4045   4.406   3.200   7.185  0.3459  1.2915 -0.2115
   55CHL1   C20 4046   4.464   3.028   8.132 -0.1367  0.2476  0.3470
   55CHL1   H20 4047   4.552   3.096   8.139  0.6995 -0.8797  1.2572
   55CHL1   C21 4048   4.499   2.886   8.079 -0.1530 -0.5178  0.0747
   55CHL1  H21A 4049   4.530   2.827   8.167 -0.0208 -1.0324 -0.3103
   55CHL1  H21B 4050   4.586   2.889   8.010 -1.3049 -0.5253 -1.4508
   55CHL1  H21C 4051   4.404   2.849   8.033 -1.5110  2.0773  0.5675
   55CHL1   C22 4052   4.412   3.028   8.285 -0.5276 -0.2799  0.0655
   55CHL1  H22A 4053   4.504   2.986   8.332 -0.3025 -0.1579 -0.2581
   55CHL1  H22B 4054   4.409   3.133   8.321  2.2889  0.7964 -2.4030
   55CHL1   C23 4055   4.286   2.955   8.341  0.1528  0.4119  0.5404
   55CHL1  H23A 4056   4.194   3.002   8.301  1.1883 -0.1236 -2.7764
   55CHL1  H23B 4057   4.283   2.846   8.317 -2.9289  0.4184  0.5790
   55CHL1   C24 4058   4.280   2.971   8.488 -0.0698  0.8460 -0.0646
   55CHL1  H24A 4059   4.349   2.908   8.548 -0.8895 -0.3366 -0.3281
   55CHL1  H24B 4060   4.276   3.079   8.514 -1.2724  0.8024 -0.0157
   55CHL1   C25 4061   4.148   2.910   8.555  0.5783  0.0850  0.0995
   55CHL1   H25 4062   4.142   2.800   8.539 -1.2167 -0.4067  3.2552
   55CHL1   C26 4063   4.157   2.909   8.705  0.3704 -0.4170  0.0146
   55CHL1  H26A 4064   4.153   3.012   8.745  0.0719 -0.6539  0.6052
   55CHL1  H26B 4065   4.083   2.841   8.751  0.4314 -1.1219 -0.8945
   55CHL1  H26C 4066   4.252   2.857   8.731  1.4085 -0.5321 -3.4389
   55CHL1   C27 4067   4.019   2.987   8.513 -0.1273 -0.8167  0.5521
   55CHL1  H27A 4068   3.928   2.936   8.552 -0.1075 -2.5495 -1.4672
   55CHL1  H27B 4069   4.022   3.094   8.542  1.1758 -0.5091 -0.6021
   55CHL1  H27C 4070   4.016   2.988   8.402 -1.1404 -0.6340  0.5720
   56CHL1    C3 4071   2.965   1.216   6.854 -0.2477 -0.4888  0.5654
   56CHL1    H3 4072   2.912   1.305   6.895  0.8898  0.8900 -0.8113
   56CHL1    O3 4073   2.993   1.249   6.719 -0.0276  0.0094 -0.1829
   56CHL1   H3' 4074   2.998   1.167   6.670 -0.1661 -0.8721  1.2304
   56CHL1    C4 4075   3.090   1.185   6.942 -0.3182  0.8449 -0.4255
   56CHL1   H4A 4076   3.137   1.096   6.894 -1.3529  0.6482 -1.1021
   56CHL1   H4B 4077   3.172   1.259   6.931  1.6332 -1.4553 -3.1195
   56CHL1    C5 4078   3.064   1.155   7.091  0.4003 -0.0687  0.8682
   56CHL1    C6 4079   3.109   1.237   7.184 -0.0009 -0.6543 -0.4265
   56CHL1    H6 4080   3.188   1.308   7.156  0.8196 -1.1925  0.4975
   56CHL1    C7 4081   3.093   1.213   7.329  0.6112 -0.6007 -0.0093
   56CHL1   H7A 4082   3.189   1.197   7.383  0.8501 -0.8904 -0.5153
   56CHL1   H7B 4083   3.017   1.283   7.370  2.3961  1.6242 -0.3087
   56CHL1    C8 4084   3.027   1.074   7.362 -0.4263  0.1135 -0.2572
   56CHL1    H8 4085   3.104   0.994   7.353  1.0694  1.2774  1.4001
   56CHL1   C14 4086   2.977   1.078   7.500  0.1474  0.2120 -0.4354
   56CHL1   H14 4087   2.904   1.162   7.507 -1.1033 -0.9521  1.7557
   56CHL1   C15 4088   3.076   1.093   7.617  0.2658 -0.4145  0.2062
   56CHL1  H15A 4089   3.162   1.025   7.597  1.1664  0.4421  1.0612
   56CHL1  H15B 4090   3.111   1.198   7.615  1.1368 -0.6652 -2.4503
   56CHL1   C16 4091   2.988   1.066   7.739 -0.1669  0.4974 -0.4515
   56CHL1  H16A 4092   3.032   1.002   7.818  0.5750  0.8963 -0.5372
   56CHL1  H16B 4093   2.968   1.168   7.779 -3.1730  0.0928 -0.7148
   56CHL1   C17 4094   2.852   1.012   7.690 -0.3901 -0.0273  0.8038
   56CHL1   H17 4095   2.789   1.103   7.675 -0.4355 -0.3532 -1.1957
   56CHL1   C13 4096   2.892   0.959   7.553 -0.4980  0.7220 -0.2195
   56CHL1   C18 4097   2.965   0.821   7.563 -0.4412 -0.4547  0.3588
   56CHL1  H18A 4098   2.892   0.737   7.564  1.7005 -2.4134 -0.1545
   56CHL1  H18B 4099   3.012   0.809   7.463 -1.0843  0.5304 -0.0791
   56CHL1  H18C 4100   3.040   0.803   7.642 -0.1981  1.6639  0.6843
   56CHL1   C12 4101   2.777   0.945   7.456 -0.2606  0.1480  1.1651
   56CHL1  H12A 4102   2.712   0.858   7.476  0.8598 -1.0532 -0.1966
   56CHL1  H12B 4103   2.716   1.037   7.466  0.7208  1.1482 -1.2263
   56CHL1   C11 4104   2.829   0.930   7.308  0.6832  1.1005 -0.3798
   56CHL1  H11A 4105   2.878   0.831   7.305  0.2863  0.9074 -0.6724
   56CHL1  H11B 4106   2.744   0.916   7.237  0.3430  1.2627 -0.0095
   56CHL1    C9 4107   2.915   1.047   7.267 -0.5903  0.0211 -0.3665
   56CHL1    H9 4108   2.849   1.136   7.276 -1.4459 -0.5955 -0.4433
   56CHL1   C10 4109   2.964   1.038   7.113 -0.1678  0.7059  0.1027
   56CHL1   C19 4110   3.034   0.902   7.093 -1.0291  0.4673 -0.3911
   56CHL1  H19A 4111   2.958   0.821   7.093 -0.8132  0.2613 -0.1322
   56CHL1  H19B 4112   3.075   0.905   6.990 -1.3121  1.7192 -0.4848
   56CHL1  H19C 4113   3.112   0.882   7.170 -1.7514  1.0692  0.5326
   56CHL1    C1 4114   2.843   1.046   7.009 -0.3066 -0.5951 -0.9524
   56CHL1   H1A 4115   2.777   0.957   7.014  3.0356 -3.2519  1.0170
   56CHL1   H1B 4116   2.789   1.135   7.049  2.2455 -0.4140  2.6282
   56CHL1    C2 4117   2.877   1.086   6.864  0.2601  0.0077  0.0702
   56CHL1   H2A 4118   2.789   1.095   6.796  1.9049 -0.6342 -2.2813
   56CHL1   H2B 4119   2.935   1.008   6.811 -0.4775 -1.0458  0.7880
   56CHL1   C20 4120   2.790   0.932   7.809  0.4777 -0.2928 -0.0355
   56CHL1   H20 4121   2.850   0.841   7.830  1.7774  0.7272  0.8338
   56CHL1   C21 4122   2.654   0.882   7.755  0.3581 -0.4169 -0.0335
   56CHL1  H21A 4123   2.669   0.816   7.667  0.6729 -0.2806 -0.0830
   56CHL1  H21B 4124   2.587   0.964   7.720  0.0621 -0.3802  0.6127
   56CHL1  H21C 4125   2.605   0.815   7.829  2.3564 -0.2897  1.4909
   56CHL1   C22 4126   2.770   1.010   7.937  0.3488 -0.0586 -0.2030
   56CHL1  H22A 4127   2.860   1.071   7.960  0.1493  0.9142 -1.8326
   56CHL1  H22B 4128   2.684   1.079   7.923 -0.5695 -0.9722  0.8456
   56CHL1   C23 4129   2.745   0.914   8.055 -0.2738  0.3837 -0.3450
   56CHL1  H23A 4130   2.662   0.842   8.036 -1.8132  1.8202  0.6004
   56CHL1  H23B 4131   2.837   0.858   8.081  2.1097  2.2711 -3.9800
   56CHL1   C24 4132   2.707   0.992   8.186 -0.0414  0.0779 -0.1907
   56CHL1  H24A 4133   2.779   1.075   8.197 -0.0623 -0.1714  2.2679
   56CHL1  H24B 4134   2.612   1.048   8.172 -0.8943 -1.3995 -0.5695
   56CHL1   C25 4135   2.681   0.904   8.307  0.8208 -0.3836  0.3510
   56CHL1   H25 4136   2.603   0.833   8.274  0.1431  1.0978 -1.3920
   56CHL1   C26 4137   2.795   0.812   8.353 -0.2871 -0.4941  0.1887
   56CHL1  H26A 4138   2.868   0.866   8.415 -0.2208  1.6868 -1.6543
   56CHL1  H26B 4139   2.841   0.753   8.271  0.0096 -1.2543  0.8900
   56CHL1  H26C 4140   2.752   0.740   8.426 -1.0419 -0.8157 -0.5469
   56CHL1   C27 4141   2.609   0.985   8.415 -0.4064  0.4444 -0.0500
   56CHL1  H27A 4142   2.547   1.062   8.366  0.7071  0.6925 -1.1312
   56CHL1  H27B 4143   2.548   0.919   8.481  1.6354 -1.6642 -0.1249
   56CHL1  H27C 4144   2.687   1.022   8.484 -0.5425  0.3241  0.1670
   57SAPC     N 4145   5.789   0.722  10.789 -0.8346  0.1245  0.2733
   57SAPC   C12 4146   5.748   0.765  10.655  0.6251  0.9839  0.8699
   57SAPC  H12A 4147   5.770   0.684  10.586 -0.7944  1.3243 -0.0341
   57SAPC  H12B 4148   5.802   0.847  10.610 -1.5754  0.9577 -2.1668
   57SAPC   C13 4149   5.705   0.610  10.849  0.1513 -0.0216  0.1402
   57SAPC  H13A 4150   5.728   0.514  10.807 -0.6249 -0.0394 -0.2407
   57SAPC  H13B 4151   5.712   0.600  10.957 -2.0947 -2.2487  0.1680
   57SAPC  H13C 4152   5.598   0.623  10.848  0.0451 -0.9226 -0.8879
   57SAPC   C14 4153   5.922   0.661  10.794 -0.2798 -0.2459  0.2276
   57SAPC  H14A 4154   5.919   0.583  10.720  1.8709  2.2349 -2.7365
   57SAPC  H14B 4155   6.004   0.726  10.768 -2.5431  2.8099  0.3010
   57SAPC  H14C 4156   5.936   0.615  10.891  0.4965  0.2338  0.3527
   57SAPC   C15 4157   5.782   0.841  10.877  0.0196  0.5566 -0.4505
   57SAPC  H15A 4158   5.683   0.883  10.871 -1.0255 -1.5025  1.0990
   57SAPC  H15B 4159   5.805   0.818  10.980  3.4594 -0.2926 -1.2531
   57SAPC  H15C 4160   5.869   0.897  10.847 -0.1023  0.3393 -1.2579
   57SAPC   C11 4161   5.600   0.802  10.638 -0.4397  0.3230 -0.4365
   57SAPC  H11A 4162   5.581   0.882  10.712  0.2155  0.2032 -0.1314
   57SAPC  H11B 4163   5.543   0.708  10.653  1.1728 -0.7212 -0.5232
   57SAPC     P 4164   5.447   0.920  10.478 -0.2942 -0.1139  0.0137
   57SAPC   O13 4165   5.355   0.882  10.582 -0.5176 -0.3265  0.1971
   57SAPC   O14 4166   5.466   1.063  10.447  0.4095 -0.6677 -0.4555
   57SAPC   O12 4167   5.588   0.853  10.506  0.3334 -0.3604 -0.1850
   57SAPC   O11 4168   5.412   0.843  10.347 -1.0309 -0.1442 -0.1787
   57SAPC    C1 4169   5.367   0.709  10.349  0.5376 -0.3043 -0.0380
   57SAPC    HA 4170   5.452   0.639  10.366  1.1403  0.7262  1.4668
   57SAPC    HB 4171   5.298   0.683  10.432  1.0986  1.0434  0.8747
   57SAPC    C2 4172   5.316   0.663  10.206 -0.0381  0.2401 -0.0378
   57SAPC    HS 4173   5.268   0.563  10.217  0.8966 -0.6532 -2.9929
   57SAPC   O21 4174   5.427   0.652  10.113 -0.3555 -0.7979  0.0329
   57SAPC   C21 4175   5.498   0.541  10.114 -0.0339  0.0358 -0.0387
   57SAPC   O22 4176   5.464   0.438  10.167  0.2643  0.0557 -0.5757
   57SAPC   C22 4177   5.637   0.576  10.053 -0.4394 -0.4169  0.0903
   57SAPC   H2R 4178   5.668   0.681  10.042 -0.0207 -0.2254  2.5309
   57SAPC   H2S 4179   5.703   0.518  10.121 -0.8077 -0.9856 -0.0252
   57SAPC    C3 4180   5.212   0.762  10.146 -0.7529 -0.6151  0.6350
   57SAPC    HX 4181   5.259   0.862  10.130 -0.8865 -0.6618 -0.0623
   57SAPC    HY 4182   5.137   0.779  10.226 -0.8443  0.5755  0.3103
   57SAPC   O31 4183   5.146   0.709  10.026 -0.6385  0.4294 -0.0676
   57SAPC   C31 4184   5.206   0.740   9.919 -0.5164 -0.2865  0.3866
   57SAPC   O32 4185   5.313   0.801   9.907 -0.1819  0.5687  0.0514
   57SAPC   C32 4186   5.122   0.680   9.793 -0.3177 -0.0469 -1.3175
   57SAPC   H2X 4187   5.137   0.751   9.709  2.6969 -0.4887 -1.2445
   57SAPC   H2Y 4188   5.013   0.699   9.809  0.2098  1.0973  1.4121
   57SAPC   C23 4189   5.655   0.498   9.916 -0.9458  0.1266  0.2036
   57SAPC   H3R 4190   5.652   0.388   9.930  0.2948 -0.1162 -1.1870
   57SAPC   H3S 4191   5.760   0.522   9.888 -0.0963 -1.6610  1.6153
   57SAPC   C24 4192   5.555   0.542   9.807  0.0743 -0.2687  0.7770
   57SAPC   H4R 4193   5.455   0.548   9.855 -0.9402 -0.5264 -1.2304
   57SAPC   H4S 4194   5.553   0.455   9.738  0.2438  0.3347  0.0091
   57SAPC   C25 4195   5.601   0.667   9.731  0.0886  0.3940  0.2440
   57SAPC   H5R 4196   5.574   0.761   9.781 -0.4483  0.8111 -0.7995
   57SAPC   C26 4197   5.666   0.666   9.617 -0.3609 -1.1312 -0.4582
   57SAPC   H6R 4198   5.696   0.763   9.576  0.4659 -2.1317 -2.3564
   57SAPC   C27 4199   5.711   0.546   9.538  0.6026 -0.1234  0.3588
   57SAPC   H7R 4200   5.639   0.533   9.454  0.4813 -1.2914  0.6253
   57SAPC   H7S 4201   5.697   0.461   9.608 -1.2595  0.7903  1.1756
   57SAPC   C28 4202   5.850   0.568   9.497  0.1507  0.6805  0.3360
   57SAPC   H8R 4203   5.921   0.592   9.578 -1.3832 -1.8468  2.5863
   57SAPC   C29 4204   5.892   0.564   9.366 -0.3798 -0.4270 -1.5047
   57SAPC   H9R 4205   5.999   0.566   9.340  0.2314 -0.6732  0.7782
   57SAPC  C210 4206   5.793   0.526   9.260 -0.2237 -0.2231  0.0838
   57SAPC  H10R 4207   5.728   0.614   9.240  0.2573 -0.1199 -1.0506
   57SAPC  H10S 4208   5.740   0.436   9.299  0.7301 -0.6871  0.3510
   57SAPC  C211 4209   5.857   0.479   9.132 -0.2599 -0.1301  0.4404
   57SAPC  H11R 4210   5.911   0.383   9.139 -1.0064 -0.5056  1.2643
   57SAPC  C212 4211   5.855   0.540   9.012  1.2634  0.9012  0.0389
   57SAPC  H12R 4212   5.897   0.478   8.932  0.4893 -1.5686  1.4339
   57SAPC  C213 4213   5.778   0.665   8.977  0.2274 -0.8291 -0.0444
   57SAPC  H13R 4214   5.846   0.738   8.928 -1.7697  0.3708 -1.1569
   57SAPC  H13S 4215   5.721   0.713   9.059 -0.2840 -0.8633 -0.3787
   57SAPC  C214 4216   5.668   0.627   8.875 -0.2416  0.3383  0.3309
   57SAPC  H14R 4217   5.567   0.630   8.917  0.3385  0.8639  1.7598
   57SAPC  C215 4218   5.690   0.593   8.745  0.4395 -0.6745  0.1599
   57SAPC  H15R 4219   5.603   0.571   8.682  1.1350  1.1748 -1.5542
   57SAPC  C216 4220   5.818   0.588   8.675  0.3370  0.0455  0.1468
   57SAPC  H16R 4221   5.839   0.481   8.652 -1.9748 -0.6371  0.9493
   57SAPC  H16S 4222   5.905   0.608   8.742 -0.6832 -1.2720  1.9641
   57SAPC  C217 4223   5.815   0.694   8.561  0.2265  0.4043  0.6495
   57SAPC  H17R 4224   5.836   0.794   8.604  2.9067  0.7120 -1.1699
   57SAPC  H17S 4225   5.723   0.686   8.498  0.8742 -0.7868 -0.1937
   57SAPC  C218 4226   5.913   0.645   8.442  0.6575  0.2020 -0.5692
   57SAPC  H18R 4227   5.899   0.715   8.356  1.8737  1.4245  0.1882
   57SAPC  H18S 4228   5.882   0.540   8.421  0.9664  0.3327 -1.7496
   57SAPC  C219 4229   6.058   0.653   8.487 -1.2376 -0.2187 -0.4175
   57SAPC  H19R 4230   6.085   0.580   8.566 -0.3763  0.7347  0.1876
   57SAPC  H19S 4231   6.078   0.755   8.527 -1.1805  0.3079 -1.7071
   57SAPC  C220 4232   6.144   0.636   8.357  0.5498  0.4405 -0.2947
   57SAPC  H20R 4233   6.148   0.735   8.306  1.6221  1.5746  1.8480
   57SAPC  H20S 4234   6.101   0.559   8.289  0.1450 -0.0930  0.5470
   57SAPC  H20T 4235   6.250   0.606   8.374  0.2260 -1.4144 -1.2817
   57SAPC   C33 4236   5.168   0.544   9.753 -0.4038 -0.6876 -0.1667
   57SAPC   H3X 4237   5.160   0.475   9.840 -0.8881 -0.1839  0.1973
   57SAPC   H3Y 4238   5.277   0.551   9.736 -0.2247 -1.1579  0.7163
   57SAPC   C34 4239   5.108   0.486   9.621 -0.3093  0.1046  0.1428
   57SAPC   H4X 4240   5.188   0.433   9.564  1.1594 -1.1534  3.1352
   57SAPC   H4Y 4241   5.058   0.567   9.564  1.2971  1.3726  0.4660
   57SAPC   C35 4242   4.991   0.387   9.664 -0.1800  0.3844 -0.6886
   57SAPC   H5X 4243   4.930   0.430   9.746 -1.7901  0.7925 -2.0323
   57SAPC   H5Y 4244   5.056   0.307   9.705  0.2651  0.4266 -1.3003
   57SAPC   C36 4245   4.902   0.339   9.548 -0.6316 -0.2899  0.0271
   57SAPC   H6X 4246   4.863   0.240   9.581  0.3847 -0.9239 -0.6194
   57SAPC   H6Y 4247   4.974   0.322   9.465 -0.7960  0.9588 -0.3943
   57SAPC   C37 4248   4.794   0.440   9.505  0.2808  0.3987 -0.0144
   57SAPC   H7X 4249   4.835   0.543   9.509 -1.0299  0.9669 -0.4789
   57SAPC   H7Y 4250   4.702   0.440   9.568  0.5873 -0.7800  0.4616
   57SAPC   C38 4251   4.742   0.424   9.361 -0.4897 -0.5574  0.0654
   57SAPC   H8X 4252   4.677   0.336   9.339 -0.0732 -0.8624  0.0322
   57SAPC   H8Y 4253   4.838   0.419   9.305  0.1213  2.7897  0.6297
   57SAPC   C39 4254   4.664   0.549   9.305  0.0076 -0.1322  0.1423
   57SAPC   H9X 4255   4.734   0.636   9.302 -0.6082  0.4346  1.4676
   57SAPC   H9Y 4256   4.577   0.577   9.367  0.7018  0.7026  0.7649
   57SAPC  C310 4257   4.615   0.515   9.161 -0.7495  0.0783  0.0238
   57SAPC  H10X 4258   4.526   0.449   9.172 -0.5737  0.0392  1.3427
   57SAPC  H10Y 4259   4.684   0.444   9.111 -0.4355 -0.9500  1.8247
   57SAPC  C311 4260   4.598   0.639   9.075 -0.0881 -0.1047 -0.6215
   57SAPC  H11X 4261   4.685   0.705   9.090  1.3115 -2.0612  0.2416
   57SAPC  H11Y 4262   4.508   0.688   9.118  0.5548 -2.7545  4.4385
   57SAPC  C312 4263   4.585   0.602   8.929  0.2556  0.0979 -0.0979
   57SAPC  H12X 4264   4.484   0.560   8.912 -0.0918  0.5337  0.8222
   57SAPC  H12Y 4265   4.656   0.517   8.917 -1.5142 -1.4382 -0.1126
   57SAPC  C313 4266   4.624   0.723   8.842  0.1763  0.2620 -0.2794
   57SAPC  H13X 4267   4.727   0.758   8.865  0.5835 -0.9290 -0.2411
   57SAPC  H13Y 4268   4.556   0.811   8.848 -1.3766 -0.8861 -0.6104
   57SAPC  C314 4269   4.613   0.685   8.694  0.1536 -0.6004 -0.4967
   57SAPC  H14X 4270   4.510   0.683   8.653 -0.2284 -0.9730  0.4529
   57SAPC  H14Y 4271   4.640   0.577   8.690  0.5451 -0.6643  2.1648
   57SAPC  C315 4272   4.697   0.781   8.609  0.1388 -0.9977  0.7348
   57SAPC  H15X 4273   4.804   0.763   8.630  0.5804  1.9054  1.2967
   57SAPC  H15Y 4274   4.681   0.890   8.624 -0.8433 -1.2435  1.6094
   57SAPC  C316 4275   4.679   0.747   8.459 -0.3667 -0.9038 -0.3398
   57SAPC  H16X 4276   4.572   0.718   8.453 -0.5893 -0.6626  1.6274
   57SAPC  H16Y 4277   4.739   0.657   8.435  0.4751 -1.1500  2.3372
   57SAPC  C317 4278   4.705   0.859   8.356 -0.6374 -0.2626  0.2649
   57SAPC  H17X 4279   4.638   0.942   8.388 -0.8962 -1.3025  2.5901
   57SAPC  H17Y 4280   4.674   0.825   8.255  3.7027 -0.6948 -1.1170
   57SAPC  C318 4281   4.853   0.901   8.349 -0.0815  0.3722 -0.1938
   57SAPC  H18X 4282   4.910   0.819   8.302  1.2298 -0.0269  1.9688
   57SAPC  H18Y 4283   4.897   0.921   8.449 -1.9339  0.0085  0.7487
   57SAPC  H18Z 4284   4.856   0.991   8.284 -1.2318  0.5766  0.0107
   58SAPC     N 4285   0.721   1.097  10.767  0.0073 -0.2655 -0.0379
   58SAPC   C12 4286   0.644   1.062  10.650 -0.3680 -0.9479  0.3443
   58SAPC  H12A 4287   0.717   1.058  10.571  0.8810  0.1015  1.4126
   58SAPC  H12B 4288   0.597   1.153  10.615  0.8966  0.0070  1.0351
   58SAPC   C13 4289   0.637   1.111  10.892  0.5824 -0.2227  0.8677
   58SAPC  H13A 4290   0.573   1.027  10.913 -1.2917  0.7297 -0.6438
   58SAPC  H13B 4291   0.697   1.132  10.979  1.5544  3.4668 -0.4848
   58SAPC  H13C 4292   0.565   1.191  10.878  0.6573 -0.4952 -1.5868
   58SAPC   C14 4293   0.835   0.995  10.788 -0.1439  0.1001 -0.3837
   58SAPC  H14A 4294   0.909   0.990  10.710  0.8536  0.8372  0.4926
   58SAPC  H14B 4295   0.894   1.026  10.873 -1.9268 -0.5215  1.1476
   58SAPC  H14C 4296   0.800   0.896  10.814 -0.2274 -0.3749 -2.1538
   58SAPC   C15 4297   0.800   1.222  10.740  0.3770  0.4782  0.1015
   58SAPC  H15A 4298   0.865   1.234  10.826  2.2886 -2.3228 -0.8262
   58SAPC  H15B 4299   0.848   1.227  10.644 -0.1288 -0.8895 -0.2426
   58SAPC  H15C 4300   0.726   1.300  10.751  0.0142  0.0666  0.6659
   58SAPC   C11 4301   0.544   0.940  10.650 -0.1007 -0.4500 -0.1316
   58SAPC  H11A 4302   0.606   0.849  10.664  2.3040  0.8468 -1.6180
   58SAPC  H11B 4303   0.507   0.922  10.547  1.3625  0.9996 -0.9666
   58SAPC     P 4304   0.309   1.028  10.714 -0.7044  0.4269 -0.0019
   58SAPC   O13 4305   0.196   0.973  10.792 -0.2911  0.0082  0.3149
   58SAPC   O14 4306   0.328   1.174  10.718  0.0143  1.2409  0.0646
   58SAPC   O12 4307   0.447   0.958  10.751  0.5235 -0.8742 -0.1859
   58SAPC   O11 4308   0.290   0.979  10.560  0.5348 -0.1864 -0.7654
   58SAPC    C1 4309   0.188   0.890  10.512  0.2602  0.1720  0.2680
   58SAPC    HA 4310   0.124   0.845  10.590 -0.3183 -1.6887 -1.2133
   58SAPC    HB 4311   0.117   0.947  10.449 -0.4024 -0.7297  0.1876
   58SAPC    C2 4312   0.244   0.764  10.436 -0.4578  0.1384  0.9222
   58SAPC    HS 4313   0.329   0.716  10.489 -1.1396 -0.9705  1.0315
   58SAPC   O21 4314   0.279   0.795  10.298  0.2171  0.4904 -0.3911
   58SAPC   C21 4315   0.396   0.749  10.261 -0.1044 -0.5042 -0.5098
   58SAPC   O22 4316   0.469   0.676  10.327 -0.0184 -0.0364 -0.4137
   58SAPC   C22 4317   0.410   0.798  10.120 -0.4780  0.0457 -0.2836
   58SAPC   H2R 4318   0.327   0.764  10.055 -1.6661  0.7652  0.8105
   58SAPC   H2S 4319   0.418   0.909  10.121  1.7099 -0.0452  2.4754
   58SAPC    C3 4320   0.138   0.652  10.427 -0.3051  0.0382 -0.6344
   58SAPC    HX 4321   0.041   0.687  10.385 -0.5524 -1.8110 -1.7273
   58SAPC    HY 4322   0.116   0.614  10.528 -0.3831 -1.3893 -1.1694
   58SAPC   O31 4323   0.177   0.544  10.348  0.3198 -0.1270  0.4508
   58SAPC   C31 4324   0.262   0.465  10.392 -0.2117  0.1802  0.3001
   58SAPC   O32 4325   0.325   0.461  10.498  0.0072  0.2406  0.1081
   58SAPC   C32 4326   0.278   0.366  10.274  0.2534  1.0862  0.2426
   58SAPC   H2X 4327   0.181   0.322  10.242  0.4216  0.6987  0.2566
   58SAPC   H2Y 4328   0.322   0.272  10.314 -1.2224  0.3426  0.1964
   58SAPC   C23 4329   0.546   0.764  10.054  0.2082 -0.3602  0.9311
   58SAPC   H3R 4330   0.563   0.655  10.072 -1.4923 -0.7258  0.4980
   58SAPC   H3S 4331   0.619   0.820  10.116  2.3353 -0.4401 -1.3245
   58SAPC   C24 4332   0.536   0.807   9.907  0.5422 -0.9806 -0.5553
   58SAPC   H4R 4333   0.496   0.911   9.899 -0.1442 -0.9797  1.8800
   58SAPC   H4S 4334   0.461   0.737   9.865  1.0558  0.3040 -3.9498
   58SAPC   C25 4335   0.660   0.773   9.825  0.1390 -0.7103  0.2651
   58SAPC   H5R 4336   0.658   0.668   9.791  0.2043 -0.0850 -1.7926
   58SAPC   C26 4337   0.747   0.854   9.764  0.3455 -0.2760  0.2565
   58SAPC   H6R 4338   0.833   0.804   9.716  0.0859  0.3693 -0.8985
   58SAPC   C27 4339   0.761   0.998   9.798  0.3256  1.0791  0.8032
   58SAPC   H7R 4340   0.748   1.011   9.908 -0.5973 -0.2006  0.8793
   58SAPC   H7S 4341   0.684   1.060   9.747 -0.1592  0.0314  0.2107
   58SAPC   C28 4342   0.899   1.036   9.753 -0.2274  0.9769  0.0181
   58SAPC   H8R 4343   0.977   1.016   9.828 -0.9210 -1.5739  0.1641
   58SAPC   C29 4344   0.935   1.100   9.644 -0.2582  0.5153  0.8063
   58SAPC   H9R 4345   1.037   1.136   9.627 -0.6615  1.7637  0.9254
   58SAPC  C210 4346   0.847   1.137   9.523  0.1748  0.5406  0.2898
   58SAPC  H10R 4347   0.741   1.116   9.549 -0.2749  1.6913 -0.5379
   58SAPC  H10S 4348   0.874   1.074   9.436  1.4753 -0.0116  1.0678
   58SAPC  C211 4349   0.864   1.282   9.493 -0.1071 -0.7258 -0.0381
   58SAPC  H11R 4350   0.820   1.351   9.567 -0.5922 -1.0118 -0.0571
   58SAPC  C212 4351   0.919   1.338   9.382 -0.0680 -0.0431  0.1088
   58SAPC  H12R 4352   0.919   1.448   9.382 -1.9750  0.0130 -1.5866
   58SAPC  C213 4353   0.977   1.268   9.255 -0.4474 -0.0249  0.3149
   58SAPC  H13R 4354   0.896   1.266   9.178 -0.2321  2.4273 -0.0827
   58SAPC  H13S 4355   1.003   1.161   9.268  0.3955 -0.2549 -2.6469
   58SAPC  C214 4356   1.104   1.329   9.206  0.2223 -0.6848 -0.4503
   58SAPC  H14R 4357   1.197   1.308   9.260  0.2375  0.1774 -0.1209
   58SAPC  C215 4358   1.112   1.415   9.108  0.1378  0.2707  0.0559
   58SAPC  H15R 4359   1.210   1.454   9.077  0.1158 -0.2117 -0.6503
   58SAPC  C216 4360   0.995   1.467   9.019  0.2140  0.2394  0.1971
   58SAPC  H16R 4361   0.996   1.578   9.025  1.4934  0.4023 -1.9894
   58SAPC  H16S 4362   0.893   1.444   9.057 -0.5190  0.3596 -1.6131
   58SAPC  C217 4363   0.976   1.410   8.874 -0.1454 -0.4834 -0.1578
   58SAPC  H17R 4364   0.867   1.404   8.857 -0.2391 -0.8128  0.5176
   58SAPC  H17S 4365   1.003   1.302   8.870 -1.1181 -0.7224 -0.3530
   58SAPC  C218 4366   1.054   1.488   8.761 -0.5965  0.0702 -0.4171
   58SAPC  H18R 4367   1.159   1.451   8.761 -0.4938  0.2127  1.5661
   58SAPC  H18S 4368   1.057   1.588   8.809  4.4037  0.4713 -0.9797
   58SAPC  C219 4369   0.977   1.495   8.628  0.2429  0.3157  0.2205
   58SAPC  H19R 4370   0.871   1.506   8.658  0.8890  4.3781  1.5799
   58SAPC  H19S 4371   0.994   1.405   8.565 -0.2087 -0.7141  1.5464
   58SAPC  C220 4372   1.032   1.610   8.545  0.6535  0.1225 -0.1052
   58SAPC  H20R 4373   1.055   1.697   8.610  0.5959  0.5649 -0.6643
   58SAPC  H20S 4374   0.957   1.646   8.471 -0.4252  1.8405  1.7535
   58SAPC  H20T 4375   1.123   1.590   8.484  0.5480  1.7526 -0.8495
   58SAPC   C33 4376   0.364   0.428  10.163  0.7864  0.3221 -0.3975
   58SAPC   H3X 4377   0.458   0.469  10.206  1.3880 -1.5183  0.1245
   58SAPC   H3Y 4378   0.300   0.504  10.112  1.7743 -0.2005 -2.5147
   58SAPC   C34 4379   0.389   0.324  10.050 -0.0500 -1.2639  0.0479
   58SAPC   H4X 4380   0.287   0.290  10.023  0.4357 -2.1735 -0.6491
   58SAPC   H4Y 4381   0.452   0.237  10.078  1.4206 -1.3466 -3.0804
   58SAPC   C35 4382   0.456   0.384   9.918  0.2513  0.1606 -0.3442
   58SAPC   H5X 4383   0.538   0.447   9.960  2.1778 -0.7302 -2.5688
   58SAPC   H5Y 4384   0.390   0.457   9.867 -1.2221  0.6389  2.0779
   58SAPC   C36 4385   0.521   0.277   9.835 -0.0908  0.4513  0.5693
   58SAPC   H6X 4386   0.430   0.231   9.791  0.1841  0.4097  0.0396
   58SAPC   H6Y 4387   0.579   0.202   9.894  0.0228 -0.0863 -0.2092
   58SAPC   C37 4388   0.611   0.318   9.719 -0.2978  0.2088  0.1148
   58SAPC   H7X 4389   0.645   0.227   9.665  2.8395  1.5008 -0.3425
   58SAPC   H7Y 4390   0.700   0.368   9.763 -0.7934  0.4617  0.8492
   58SAPC   C38 4391   0.532   0.386   9.611 -0.3029 -0.5269  0.6941
   58SAPC   H8X 4392   0.459   0.459   9.653 -0.3016 -0.6580  0.9289
   58SAPC   H8Y 4393   0.477   0.314   9.547  1.8748 -0.3417 -1.5082
   58SAPC   C39 4394   0.607   0.473   9.512 -0.5603  0.3982 -0.1742
   58SAPC   H9X 4395   0.665   0.408   9.443  2.3724  0.5036  1.9878
   58SAPC   H9Y 4396   0.678   0.544   9.560  1.5113 -0.3685 -1.9282
   58SAPC  C310 4397   0.522   0.564   9.417 -0.3689 -0.9698 -0.2382
   58SAPC  H10X 4398   0.459   0.635   9.475 -0.8812 -2.6333  1.3486
   58SAPC  H10Y 4399   0.466   0.487   9.358 -1.6749  0.1135 -0.4717
   58SAPC  C311 4400   0.598   0.654   9.325 -0.2025 -0.2707  0.3680
   58SAPC  H11X 4401   0.696   0.613   9.293 -1.2399 -0.8654 -2.2892
   58SAPC  H11Y 4402   0.607   0.749   9.382 -0.6384 -0.3436  0.5664
   58SAPC  C312 4403   0.532   0.710   9.196  0.5417 -0.1101 -0.1175
   58SAPC  H12X 4404   0.603   0.788   9.160  1.7231 -1.4613 -0.8525
   58SAPC  H12Y 4405   0.438   0.758   9.229  0.5214 -1.7856  2.5498
   58SAPC  C313 4406   0.517   0.596   9.103 -0.3249 -0.0097 -0.8108
   58SAPC  H13X 4407   0.422   0.543   9.125  0.4704 -0.5081  1.8737
   58SAPC  H13Y 4408   0.601   0.523   9.102 -1.9449 -2.0121  0.0264
   58SAPC  C314 4409   0.516   0.648   8.960 -0.3262 -0.2871 -0.1284
   58SAPC  H14X 4410   0.620   0.660   8.923 -0.7360 -0.8627 -1.5125
   58SAPC  H14Y 4411   0.476   0.752   8.968  0.3197  0.0383 -0.9864
   58SAPC  C315 4412   0.438   0.571   8.855  0.0587 -0.2797 -0.4089
   58SAPC  H15X 4413   0.330   0.581   8.880  0.8520  2.3987  2.5008
   58SAPC  H15Y 4414   0.471   0.465   8.859  1.1974 -0.0126 -1.7274
   58SAPC  C316 4415   0.466   0.606   8.714 -0.3841 -0.4436 -0.0020
   58SAPC  H16X 4416   0.577   0.600   8.722 -0.3424  0.4470  0.3088
   58SAPC  H16Y 4417   0.424   0.708   8.697  0.3037  0.1351  1.5243
   58SAPC  C317 4418   0.410   0.518   8.607 -1.2631  0.3026  0.0527
   58SAPC  H17X 4419   0.300   0.505   8.615 -1.1707 -2.1255 -1.6076
   58SAPC  H17Y 4420   0.448   0.415   8.618  0.0815  0.7830  0.0492
   58SAPC  C318 4421   0.468   0.560   8.473  0.4280 -0.2677  0.4201
   58SAPC  H18X 4422   0.391   0.545   8.394  2.3266 -0.1800 -1.5336
   58SAPC  H18Y 4423   0.561   0.503   8.451  0.5708  0.0505  0.1877
   58SAPC  H18Z 4424   0.482   0.669   8.485  1.3669 -0.4125  0.7875
   59SAPC     N 4425   2.147   2.671  11.177  0.1166 -0.0841  0.6871
   59SAPC   C12 4426   2.213   2.678  11.037  0.6002 -0.4631 -0.4318
   59SAPC  H12A 4427   2.125   2.668  10.976 -0.1064  1.0130  0.2889
   59SAPC  H12B 4428   2.282   2.595  11.029 -0.4281 -1.6036  1.7730
   59SAPC   C13 4429   2.050   2.781  11.206  0.3470  0.6703 -0.1751
   59SAPC  H13A 4430   2.097   2.877  11.195  1.5749 -0.0807 -2.0132
   59SAPC  H13B 4431   1.972   2.774  11.130  0.5120  0.0926 -0.2962
   59SAPC  H13C 4432   2.007   2.762  11.303  3.2339 -0.1747  1.0373
   59SAPC   C14 4433   2.058   2.550  11.198  0.1482  0.0647  0.2521
   59SAPC  H14A 4434   1.977   2.528  11.130 -0.9120  1.3327  1.0765
   59SAPC  H14B 4435   2.127   2.468  11.185  3.3498  2.4997  0.7078
   59SAPC  H14C 4436   2.015   2.553  11.297  0.3492 -0.0869  0.3459
   59SAPC   C15 4437   2.254   2.660  11.283  0.1795  0.4402 -0.2378
   59SAPC  H15A 4438   2.206   2.658  11.380 -0.7204 -1.3955 -0.6754
   59SAPC  H15B 4439   2.303   2.565  11.266 -1.5557 -0.2563 -1.7029
   59SAPC  H15C 4440   2.327   2.739  11.280 -0.0234  0.6565  0.3448
   59SAPC   C11 4441   2.294   2.803  11.003  1.0160  0.0325  1.0108
   59SAPC  H11A 4442   2.235   2.889  11.040 -0.7847 -1.0426  0.7548
   59SAPC  H11B 4443   2.308   2.804  10.892  0.9366 -0.6060  0.9887
   59SAPC     P 4444   2.527   2.900  11.039 -0.2484  0.0958 -0.2486
   59SAPC   O13 4445   2.469   3.033  11.015  0.3604  1.0298  0.4183
   59SAPC   O14 4446   2.635   2.898  11.144  0.1638 -0.6739 -0.2163
   59SAPC   O12 4447   2.418   2.792  11.065 -0.2786 -0.1872  0.1276
   59SAPC   O11 4448   2.584   2.843  10.899  0.0719  0.2563  0.1779
   59SAPC    C1 4449   2.561   2.905  10.777  0.1902  0.1054  0.7044
   59SAPC    HA 4450   2.459   2.948  10.765  1.0457  1.6024 -1.9257
   59SAPC    HB 4451   2.633   2.989  10.770 -0.1434  0.3468  0.0549
   59SAPC    C2 4452   2.581   2.807  10.658 -0.3944  0.3655 -0.7565
   59SAPC    HS 4453   2.688   2.776  10.658 -0.0273  1.3523  2.4367
   59SAPC   O21 4454   2.538   2.876  10.536  0.4494  0.4713 -0.2515
   59SAPC   C21 4455   2.600   2.845  10.424 -0.0097 -0.1922  1.2616
   59SAPC   O22 4456   2.679   2.759  10.410 -0.0728 -0.1017  0.3900
   59SAPC   C22 4457   2.541   2.929  10.306 -0.2067 -0.2938 -0.2231
   59SAPC   H2R 4458   2.450   2.985  10.338 -0.8356 -1.2009 -0.3741
   59SAPC   H2S 4459   2.612   3.012  10.290 -1.4223  0.8754  0.2190
   59SAPC    C3 4460   2.496   2.676  10.680 -0.9326 -0.7803 -0.2975
   59SAPC    HX 4461   2.391   2.707  10.662  0.0032  1.6049 -2.1720
   59SAPC    HY 4462   2.506   2.635  10.783  0.1877 -2.5138 -1.0433
   59SAPC   O31 4463   2.529   2.578  10.576 -0.1617  0.2798 -0.3000
   59SAPC   C31 4464   2.630   2.503  10.604 -0.0917  0.2133  0.4733
   59SAPC   O32 4465   2.707   2.513  10.701 -0.4043 -0.1661  0.0105
   59SAPC   C32 4466   2.636   2.387  10.511 -0.3855 -0.0930 -0.6706
   59SAPC   H2X 4467   2.626   2.426  10.407  0.7039  1.5720 -0.1748
   59SAPC   H2Y 4468   2.548   2.323  10.535 -2.6055  3.0949  0.3293
   59SAPC   C23 4469   2.515   2.855  10.171  0.7382  0.2138  0.2369
   59SAPC   H3R 4470   2.460   2.924  10.105 -1.3233  0.0764  1.7257
   59SAPC   H3S 4471   2.452   2.769  10.201 -0.3342  1.5860  2.1375
   59SAPC   C24 4472   2.642   2.826  10.085 -0.5084  0.3070  0.2157
   59SAPC   H4R 4473   2.617   2.757  10.001 -1.2274  0.8977 -0.0612
   59SAPC   H4S 4474   2.709   2.759  10.144 -2.1385 -1.7938 -0.1684
   59SAPC   C25 4475   2.703   2.948  10.035 -0.0093 -0.6520  0.1288
   59SAPC   H5R 4476   2.772   2.998  10.105 -0.4288  1.3678 -0.8281
   59SAPC   C26 4477   2.702   2.986   9.908  0.2353  0.0294  0.1182
   59SAPC   H6R 4478   2.744   3.083   9.878 -0.4077 -0.4868 -2.7984
   59SAPC   C27 4479   2.628   2.923   9.794  0.0636  0.0316  0.3996
   59SAPC   H7R 4480   2.573   2.999   9.735 -0.9373 -1.3314 -0.4538
   59SAPC   H7S 4481   2.537   2.871   9.830 -0.1752  0.9076  1.1030
   59SAPC   C28 4482   2.714   2.835   9.704 -0.3890  0.1880 -0.2530
   59SAPC   H8R 4483   2.777   2.757   9.749 -0.2145  0.7633  0.5176
   59SAPC   C29 4484   2.709   2.828   9.571  0.4254 -0.4437  0.5146
   59SAPC   H9R 4485   2.777   2.762   9.516  0.4774  0.3560 -0.4052
   59SAPC  C210 4486   2.628   2.922   9.485 -0.1119  0.1034 -0.2524
   59SAPC  H10R 4487   2.694   3.009   9.464  1.3287 -0.3199  2.1798
   59SAPC  H10S 4488   2.540   2.942   9.550  0.5916 -2.1028  1.4858
   59SAPC  C211 4489   2.582   2.863   9.351  0.1005 -0.1452 -0.6430
   59SAPC  H11R 4490   2.591   2.755   9.335  0.9972 -0.0609 -0.7520
   59SAPC  C212 4491   2.538   2.951   9.253 -0.1091  0.4175  0.0779
   59SAPC  H12R 4492   2.500   2.904   9.161  1.5629 -0.4911 -0.1810
   59SAPC  C213 4493   2.522   3.106   9.259  0.2464  0.6063  0.2829
   59SAPC  H13R 4494   2.588   3.144   9.340  0.0221 -3.3319  2.5558
   59SAPC  H13S 4495   2.415   3.135   9.275  0.6850  2.4793  0.0834
   59SAPC  C214 4496   2.568   3.167   9.132 -0.0101  0.0308  1.3131
   59SAPC  H14R 4497   2.675   3.146   9.112  0.1847  2.5827 -1.0240
   59SAPC  C215 4498   2.503   3.226   9.028  0.0030 -0.1113 -0.4371
   59SAPC  H15R 4499   2.563   3.264   8.944 -1.4393 -0.5710 -1.7292
   59SAPC  C216 4500   2.359   3.254   9.026  0.2022  0.1093  0.2711
   59SAPC  H16R 4501   2.324   3.261   9.131  0.8632  0.9731  0.4468
   59SAPC  H16S 4502   2.311   3.165   8.979 -0.4157  1.4766 -1.8362
   59SAPC  C217 4503   2.332   3.371   8.934 -0.3400 -0.6813  0.5971
   59SAPC  H17R 4504   2.388   3.369   8.838 -1.3788  1.4599 -0.1332
   59SAPC  H17S 4505   2.368   3.463   8.986 -0.6853 -0.0687 -0.2225
   59SAPC  C218 4506   2.181   3.398   8.900  0.8108  0.3132 -0.4836
   59SAPC  H18R 4507   2.116   3.408   8.991 -0.1016  0.7225 -1.1596
   59SAPC  H18S 4508   2.146   3.299   8.864 -0.7897  0.5699  0.2526
   59SAPC  C219 4509   2.144   3.513   8.810 -0.7639  0.0678 -0.7159
   59SAPC  H19R 4510   2.179   3.606   8.859  1.7089 -0.8504 -0.5868
   59SAPC  H19S 4511   2.033   3.509   8.800 -0.8576  2.2525 -0.9412
   59SAPC  C220 4512   2.207   3.494   8.673 -0.7891  0.4064 -0.3781
   59SAPC  H20R 4513   2.311   3.526   8.651 -1.0245  2.2385  0.9639
   59SAPC  H20S 4514   2.147   3.545   8.594  0.4348  0.9395 -0.9789
   59SAPC  H20T 4515   2.205   3.386   8.645 -0.1527  0.5270 -0.9070
   59SAPC   C33 4516   2.764   2.293  10.527  0.7039 -0.8099 -0.5567
   59SAPC   H3X 4517   2.759   2.203  10.462 -0.2068  0.2003 -1.9417
   59SAPC   H3Y 4518   2.773   2.267  10.635 -0.4551  0.6314 -0.0791
   59SAPC   C34 4519   2.896   2.353  10.489  0.1000 -0.1461  0.1545
   59SAPC   H4X 4520   2.983   2.291  10.517  0.0420 -1.4061 -2.2106
   59SAPC   H4Y 4521   2.889   2.452  10.539 -1.7282 -0.4089  0.5124
   59SAPC   C35 4522   2.907   2.393  10.343  0.4155 -0.8804 -0.3791
   59SAPC   H5X 4523   2.986   2.469  10.325 -1.9515  1.6455 -0.6760
   59SAPC   H5Y 4524   2.811   2.433  10.306 -0.9220 -3.5140 -0.0059
   59SAPC   C36 4525   2.939   2.272  10.253  0.3730  0.1956 -0.0269
   59SAPC   H6X 4526   2.846   2.213  10.242  0.1303  0.5204  0.2656
   59SAPC   H6Y 4527   3.010   2.197  10.293  0.1845 -0.0430 -0.1402
   59SAPC   C37 4528   2.984   2.320  10.111 -0.5503 -0.9030 -0.6094
   59SAPC   H7X 4529   3.033   2.237  10.056  1.3897 -0.8739  0.9427
   59SAPC   H7Y 4530   3.065   2.391  10.138 -3.8639  2.8985  0.3246
   59SAPC   C38 4531   2.883   2.388  10.016  0.6433  0.1750  0.5249
   59SAPC   H8X 4532   2.855   2.488  10.057 -2.5439  0.3643 -1.7618
   59SAPC   H8Y 4533   2.793   2.325  10.008  1.5104 -1.1319  0.7261
   59SAPC   C39 4534   2.935   2.397   9.869  0.0798 -0.7916 -0.7019
   59SAPC   H9X 4535   2.967   2.297   9.831 -0.5957 -1.0798 -0.5236
   59SAPC   H9Y 4536   3.020   2.468   9.876 -1.0497  0.5726 -0.5951
   59SAPC  C310 4537   2.845   2.452   9.761  0.4523 -0.3216 -0.7674
   59SAPC  H10X 4538   2.825   2.557   9.790  1.6985 -0.3443  0.2383
   59SAPC  H10Y 4539   2.751   2.394   9.776  0.9295 -1.2269 -1.1770
   59SAPC  C311 4540   2.886   2.422   9.613  1.0201 -0.1183 -0.9742
   59SAPC  H11X 4541   2.904   2.313   9.601 -2.1741 -0.7891 -0.4284
   59SAPC  H11Y 4542   2.982   2.474   9.590  0.3852  1.3074 -0.5594
   59SAPC  C312 4543   2.779   2.452   9.503  0.5310  0.2465 -0.2973
   59SAPC  H12X 4544   2.742   2.555   9.522  0.7240  0.4045 -0.7704
   59SAPC  H12Y 4545   2.695   2.380   9.503  1.4075 -0.8103 -1.9906
   59SAPC  C313 4546   2.847   2.439   9.364  0.6634 -0.4276  0.1537
   59SAPC  H13X 4547   2.831   2.333   9.332  1.6989 -0.1190 -1.5228
   59SAPC  H13Y 4548   2.956   2.454   9.379  0.2593  0.9558  1.9700
   59SAPC  C314 4549   2.785   2.534   9.258  0.1092 -0.0889  0.0868
   59SAPC  H14X 4550   2.861   2.530   9.176 -0.4281 -0.9419 -0.3803
   59SAPC  H14Y 4551   2.781   2.637   9.300 -5.9576  0.8595 -1.8151
   59SAPC  C315 4552   2.654   2.479   9.207 -0.0254 -0.3793  0.6748
   59SAPC  H15X 4553   2.592   2.485   9.299  1.0415  0.4094  1.3759
   59SAPC  H15Y 4554   2.666   2.370   9.188  2.0504 -0.1127  0.1564
   59SAPC  C316 4555   2.591   2.563   9.094 -1.0158  0.4501  0.6499
   59SAPC  H16X 4556   2.564   2.666   9.125  0.5124  0.3444  2.5169
   59SAPC  H16Y 4557   2.499   2.506   9.068  0.2464 -1.1682 -0.4438
   59SAPC  C317 4558   2.667   2.577   8.960 -0.7521 -0.1936 -0.8717
   59SAPC  H17X 4559   2.758   2.639   8.974 -1.0154 -0.2942  1.8071
   59SAPC  H17Y 4560   2.607   2.629   8.883 -0.2785  1.7849  0.0262
   59SAPC  C318 4561   2.699   2.440   8.900  0.4957  0.3056  0.8360
   59SAPC  H18X 4562   2.607   2.378   8.896  0.8090 -0.1729  1.0085
   59SAPC  H18Y 4563   2.775   2.385   8.960  0.7584 -0.0017  0.2260
   59SAPC  H18Z 4564   2.746   2.455   8.801 -0.3280  0.3270  0.4420
   60SAPC     N 4565   1.931   6.024  10.772  0.2041  0.2163  0.1924
   60SAPC   C12 4566   1.778   6.020  10.749  0.6233  0.2313 -0.7058
   60SAPC  H12A 4567   1.738   5.927  10.786  2.0857  0.8736  2.8554
   60SAPC  H12B 4568   1.754   6.028  10.644  1.0448  2.1631 -0.6927
   60SAPC   C13 4569   1.991   6.153  10.718 -0.6278 -0.3940 -0.4096
   60SAPC  H13A 4570   2.089   6.170  10.761 -1.4918  0.0426  1.4567
   60SAPC  H13B 4571   1.988   6.153  10.610  1.4312  1.7638 -0.5748
   60SAPC  H13C 4572   1.933   6.236  10.757  3.1323  1.3117  2.2106
   60SAPC   C14 4573   1.972   6.005  10.913 -0.6410 -0.1050 -0.2663
   60SAPC  H14A 4574   1.924   5.922  10.963 -0.5160 -0.6330 -1.0041
   60SAPC  H14B 4575   2.078   6.005  10.931 -0.0469 -0.2252 -3.2620
   60SAPC  H14C 4576   1.944   6.091  10.972 -1.5957 -0.1841 -0.5861
   60SAPC   C15 4577   1.994   5.910  10.694  0.4954 -0.1593  0.2190
   60SAPC  H15A 4578   1.965   5.819  10.745 -1.1706  0.3126  0.1904
   60SAPC  H15B 4579   1.958   5.909  10.592  0.0488  1.3335  0.3465
   60SAPC  H15C 4580   2.102   5.910  10.691  0.5221  1.7114 -3.0703
   60SAPC   C11 4581   1.696   6.125  10.824 -0.3752 -1.0553 -0.2926
   60SAPC  H11A 4582   1.724   6.130  10.931 -0.2797 -0.0545 -0.3552
   60SAPC  H11B 4583   1.589   6.096  10.820 -0.6671 -0.1815  0.8298
   60SAPC     P 4584   1.661   6.308  10.644  0.3693  0.2425  0.3370
   60SAPC   O13 4585   1.714   6.442  10.618  0.0059  0.7438 -0.0767
   60SAPC   O14 4586   1.679   6.206  10.542  0.0993  0.2928 -0.2609
   60SAPC   O12 4587   1.723   6.259  10.779 -0.1847 -0.1405 -0.7464
   60SAPC   O11 4588   1.507   6.327  10.677 -0.1671 -0.0343 -0.0890
   60SAPC    C1 4589   1.409   6.254  10.608  0.0305 -0.4535  0.0423
   60SAPC    HA 4590   1.440   6.150  10.587  1.7790 -0.0017  0.2135
   60SAPC    HB 4591   1.326   6.238  10.680  0.6711 -0.6389  0.7432
   60SAPC    C2 4592   1.362   6.343  10.487 -0.8289 -0.0096  0.6210
   60SAPC    HS 4593   1.279   6.283  10.446 -2.1552  2.0613  0.1131
   60SAPC   O21 4594   1.471   6.360  10.398 -0.0113 -0.4827 -0.0897
   60SAPC   C21 4595   1.509   6.255  10.332 -0.0516  0.1929  0.2587
   60SAPC   O22 4596   1.462   6.141  10.334  0.2367 -0.1008  0.0944
   60SAPC   C22 4597   1.629   6.281  10.244  0.5193 -0.5170  0.5856
   60SAPC   H2R 4598   1.699   6.338  10.309  0.2931  0.6292 -0.1416
   60SAPC   H2S 4599   1.677   6.187  10.210 -0.0069 -1.0596  1.3185
   60SAPC    C3 4600   1.309   6.490  10.530  0.6964 -0.5976 -0.1085
   60SAPC    HX 4601   1.395   6.553  10.561 -2.3984  3.8275  0.3971
   60SAPC    HY 4602   1.254   6.480  10.626 -1.3137  0.4995 -1.0757
   60SAPC   O31 4603   1.226   6.561  10.431 -0.4650  0.4255  0.8385
   60SAPC   C31 4604   1.103   6.514  10.414  0.1583 -0.5820 -0.7568
   60SAPC   O32 4605   1.055   6.419  10.477  0.2606  0.0842  0.4983
   60SAPC   C32 4606   1.024   6.605  10.323 -0.0595  0.3094  0.0408
   60SAPC   H2X 4607   1.080   6.609  10.227  2.8110 -0.6852  1.5530
   60SAPC   H2Y 4608   1.034   6.711  10.354  4.4192  0.2310 -0.4381
   60SAPC   C23 4609   1.595   6.364  10.116 -0.4350 -0.1538 -0.2116
   60SAPC   H3R 4610   1.680   6.407  10.060  1.7012 -1.4638  1.8363
   60SAPC   H3S 4611   1.538   6.453  10.151  2.4282  1.0250  1.7442
   60SAPC   C24 4612   1.504   6.285  10.023  0.0081  0.0608 -0.0340
   60SAPC   H4R 4613   1.467   6.350   9.941  0.7620 -1.6906 -1.8421
   60SAPC   H4S 4614   1.423   6.251  10.091  0.3130  1.0289  0.8322
   60SAPC   C25 4615   1.566   6.161   9.959 -0.7187  0.1012 -0.3023
   60SAPC   H5R 4616   1.673   6.165   9.934 -0.9772  3.5448 -1.3223
   60SAPC   C26 4617   1.497   6.045   9.947  0.7731  0.1149 -0.9287
   60SAPC   H6R 4618   1.561   5.963   9.911  2.2448  0.2189  1.2568
   60SAPC   C27 4619   1.353   6.006   9.989  0.0155  0.1026 -0.0733
   60SAPC   H7R 4620   1.357   5.986  10.099 -0.5622 -0.5111 -0.1604
   60SAPC   H7S 4621   1.324   5.902   9.965  3.1313 -0.2591 -2.9121
   60SAPC   C28 4622   1.239   6.101   9.972 -0.1366 -0.0294  0.0939
   60SAPC   H8R 4623   1.192   6.151  10.057  1.9177  2.4700 -0.1090
   60SAPC   C29 4624   1.199   6.137   9.851 -0.2719 -0.5314 -0.9358
   60SAPC   H9R 4625   1.102   6.189   9.853  0.7268  1.4024  0.2846
   60SAPC  C210 4626   1.254   6.095   9.715 -0.4480  0.6494 -0.5141
   60SAPC  H10R 4627   1.174   6.036   9.665  0.9121 -2.3417  0.5988
   60SAPC  H10S 4628   1.343   6.030   9.722 -1.1110 -0.1123  1.4173
   60SAPC  C211 4629   1.265   6.215   9.620  0.7474 -0.1216  0.2852
   60SAPC  H11R 4630   1.169   6.268   9.610 -0.4547 -2.1554  0.4979
   60SAPC  C212 4631   1.374   6.256   9.551 -0.4756 -0.0342  0.0626
   60SAPC  H12R 4632   1.376   6.340   9.479  3.9520 -2.0992 -2.6147
   60SAPC  C213 4633   1.515   6.193   9.554  0.2937 -0.3411 -0.2653
   60SAPC  H13R 4634   1.527   6.144   9.455 -1.9987  0.9068 -1.2205
   60SAPC  H13S 4635   1.520   6.121   9.639 -1.1954  1.1473  1.1516
   60SAPC  C214 4636   1.620   6.298   9.592  0.6476 -0.0781  0.3235
   60SAPC  H14R 4637   1.613   6.333   9.696  0.7694  0.2089  0.2360
   60SAPC  C215 4638   1.726   6.338   9.520  0.6152 -0.5200  0.9708
   60SAPC  H15R 4639   1.788   6.417   9.565  1.1626 -0.7022  0.5442
   60SAPC  C216 4640   1.762   6.295   9.378 -0.4313  0.4073  0.3748
   60SAPC  H16R 4641   1.739   6.189   9.356  2.0118 -0.1285  0.0997
   60SAPC  H16S 4642   1.872   6.312   9.382 -0.7429  2.4306  3.6786
   60SAPC  C217 4643   1.701   6.387   9.270 -0.1072  1.1376 -0.8125
   60SAPC  H17R 4644   1.745   6.489   9.275  0.6048  0.8504 -0.9692
   60SAPC  H17S 4645   1.593   6.397   9.295 -0.1810  0.4049 -0.8329
   60SAPC  C218 4646   1.706   6.328   9.128 -0.0425  0.1144 -0.2374
   60SAPC  H18R 4647   1.678   6.413   9.062 -0.9974  1.6873  2.0555
   60SAPC  H18S 4648   1.632   6.248   9.109 -0.8020  1.2614 -2.5499
   60SAPC  C219 4649   1.845   6.273   9.090 -0.5787 -0.0415  0.6383
   60SAPC  H19R 4650   1.854   6.172   9.135 -2.7299 -1.0403 -1.0104
   60SAPC  H19S 4651   1.914   6.339   9.146 -0.4008 -1.3070  1.9870
   60SAPC  C220 4652   1.887   6.274   8.943 -0.1893 -0.6354  0.0831
   60SAPC  H20R 4653   1.992   6.240   8.940 -0.9378 -3.1791  0.6477
   60SAPC  H20S 4654   1.894   6.378   8.904 -1.2301 -0.7379 -0.4259
   60SAPC  H20T 4655   1.827   6.208   8.876 -1.3822  1.1665 -0.7040
   60SAPC   C33 4656   0.872   6.567  10.301  0.5220  0.3860 -0.0034
   60SAPC   H3X 4657   0.821   6.664  10.283 -0.1194 -0.2735 -1.9470
   60SAPC   H3Y 4658   0.829   6.519  10.391  1.7446 -1.0047 -0.1117
   60SAPC   C34 4659   0.845   6.467  10.185 -0.1929 -0.4505  0.0330
   60SAPC   H4X 4660   0.738   6.437  10.180 -0.6739  1.2501 -0.5489
   60SAPC   H4Y 4661   0.900   6.372  10.202 -1.5498 -0.9376  2.0608
   60SAPC   C35 4662   0.881   6.528  10.046  0.3642 -0.1220 -0.2634
   60SAPC   H5X 4663   0.989   6.506  10.030  0.3308 -1.2753  0.9270
   60SAPC   H5Y 4664   0.859   6.637  10.047  1.6570  0.1600 -0.7389
   60SAPC   C36 4665   0.787   6.477   9.937 -0.3872  0.4338 -0.0053
   60SAPC   H6X 4666   0.685   6.520   9.938 -0.3996  0.4488  1.5321
   60SAPC   H6Y 4667   0.792   6.366   9.934  0.0837  0.4716 -2.2161
   60SAPC   C37 4668   0.834   6.525   9.799  0.3603  0.3360 -0.3562
   60SAPC   H7X 4669   0.939   6.492   9.785  0.0608 -0.9335  0.2337
   60SAPC   H7Y 4670   0.844   6.634   9.781  1.2213 -0.0662 -2.5505
   60SAPC   C38 4671   0.748   6.454   9.690  0.2453 -0.4547  0.2120
   60SAPC   H8X 4672   0.653   6.507   9.669  0.5738  0.0609 -0.0013
   60SAPC   H8Y 4673   0.716   6.352   9.717 -2.7324  0.5761  0.9976
   60SAPC   C39 4674   0.809   6.463   9.546  0.5157  0.1653  0.3404
   60SAPC   H9X 4675   0.904   6.404   9.547  1.0096  0.9038 -0.6986
   60SAPC   H9Y 4676   0.851   6.565   9.530 -1.6488  1.2975  1.4023
   60SAPC  C310 4677   0.710   6.425   9.442 -0.2718  0.2344 -0.7014
   60SAPC  H10X 4678   0.644   6.512   9.419 -1.7270 -0.0598  1.8973
   60SAPC  H10Y 4679   0.643   6.341   9.470 -0.1051 -0.2846 -1.8252
   60SAPC  C311 4680   0.776   6.361   9.314  0.5543  0.3226  0.2444
   60SAPC  H11X 4681   0.843   6.278   9.343  1.0232  0.3317 -0.7542
   60SAPC  H11Y 4682   0.839   6.443   9.273  1.4032 -0.5734 -0.3011
   60SAPC  C312 4683   0.674   6.344   9.196 -0.0231 -0.6780 -1.1811
   60SAPC  H12X 4684   0.640   6.444   9.162  0.7081 -0.6185 -1.7734
   60SAPC  H12Y 4685   0.589   6.282   9.234  0.6910 -0.4560  0.9259
   60SAPC  C313 4686   0.733   6.290   9.070  0.2285 -0.2386  0.2151
   60SAPC  H13X 4687   0.758   6.183   9.083 -2.3907 -0.6844  2.4472
   60SAPC  H13Y 4688   0.811   6.354   9.022  0.0852  0.3314  0.7196
   60SAPC  C314 4689   0.621   6.294   8.968 -0.4997  0.1228  0.5092
   60SAPC  H14X 4690   0.595   6.397   8.936 -2.1214 -0.6119 -0.6792
   60SAPC  H14Y 4691   0.522   6.259   9.006 -0.6281 -0.3346 -0.2170
   60SAPC  C315 4692   0.644   6.198   8.849  0.8650 -0.5645 -0.2235
   60SAPC  H15X 4693   0.551   6.138   8.836 -0.1136  1.2060 -2.2358
   60SAPC  H15Y 4694   0.731   6.134   8.875  0.8226 -0.8725 -0.8202
   60SAPC  C316 4695   0.665   6.278   8.718 -0.1221  0.5474  0.7712
   60SAPC  H16X 4696   0.766   6.324   8.721  0.4152 -0.1080 -2.8331
   60SAPC  H16Y 4697   0.591   6.360   8.705 -1.4294 -0.5177  1.2624
   60SAPC  C317 4698   0.671   6.202   8.590  0.3462  0.4231  0.5879
   60SAPC  H17X 4699   0.671   6.256   8.493 -0.9229  0.2304  0.4586
   60SAPC  H17Y 4700   0.575   6.146   8.597  0.0316  1.1205  2.6467
   60SAPC  C318 4701   0.781   6.090   8.584 -0.1782 -0.0018 -0.1968
   60SAPC  H18X 4702   0.745   6.000   8.529  0.9273 -0.2636 -0.5316
   60SAPC  H18Y 4703   0.802   6.067   8.691 -0.6391  1.5074  0.2333
   60SAPC  H18Z 4704   0.872   6.122   8.528 -0.5616 -1.5356 -1.7852
   61SAPC     N 4705   2.256   6.675  11.123 -0.1082  0.3869  0.5144
   61SAPC   C12 4706   2.350   6.679  10.995  0.2354  0.3231  0.2395
   61SAPC  H12A 4707   2.452   6.710  11.011  0.6856  0.4543 -2.4925
   61SAPC  H12B 4708   2.316   6.763  10.936  0.1483  0.7861  0.9344
   61SAPC   C13 4709   2.116   6.642  11.085 -0.4166 -0.1483  0.2204
   61SAPC  H13A 4710   2.108   6.553  11.024  3.1026 -1.1540  0.9974
   61SAPC  H13B 4711   2.061   6.634  11.178 -0.9819  1.9476  0.1106
   61SAPC  H13C 4712   2.075   6.726  11.031 -0.5101 -0.4775 -0.2203
   61SAPC   C14 4713   2.307   6.557  11.205  0.3619 -0.3876 -0.6902
   61SAPC  H14A 4714   2.414   6.546  11.195  0.4786  1.6202 -2.3638
   61SAPC  H14B 4715   2.278   6.577  11.307 -0.4866 -1.1325 -0.7765
   61SAPC  H14C 4716   2.265   6.467  11.164 -0.0983 -0.0302 -1.0263
   61SAPC   C15 4717   2.270   6.805  11.201  0.0811 -0.1037  0.5148
   61SAPC  H15A 4718   2.365   6.803  11.254  0.6861 -0.7110 -0.5586
   61SAPC  H15B 4719   2.265   6.893  11.139 -0.7129 -0.0345  0.6732
   61SAPC  H15C 4720   2.185   6.808  11.267 -0.6790  0.9993 -0.4948
   61SAPC   C11 4721   2.348   6.566  10.882  0.0124 -0.2170 -0.3794
   61SAPC  H11A 4722   2.412   6.604  10.800 -0.7732 -0.5276 -1.1551
   61SAPC  H11B 4723   2.242   6.558  10.848 -0.6487 -2.0056  1.8323
   61SAPC     P 4724   2.300   6.315  10.918 -0.1872 -0.0951 -0.1677
   61SAPC   O13 4725   2.354   6.210  11.002  0.0616  0.5770 -0.4055
   61SAPC   O14 4726   2.162   6.346  10.948 -0.2471 -0.2645 -0.2585
   61SAPC   O12 4727   2.394   6.440  10.927 -0.0068  0.4754 -0.4642
   61SAPC   O11 4728   2.309   6.263  10.776 -0.4290  0.3142  0.4368
   61SAPC    C1 4729   2.423   6.261  10.690 -0.0142 -0.6528  0.3508
   61SAPC    HA 4730   2.470   6.362  10.691  0.2522 -0.7769  1.1927
   61SAPC    HB 4731   2.496   6.181  10.715 -0.3643 -1.4078 -0.9184
   61SAPC    C2 4732   2.365   6.253  10.542  0.1879  0.0046 -0.0672
   61SAPC    HS 4733   2.442   6.266  10.463  0.2937 -0.4727 -0.0448
   61SAPC   O21 4734   2.250   6.344  10.524 -0.3547  0.1300 -0.2776
   61SAPC   C21 4735   2.281   6.476  10.511  0.7798  0.3816  0.3366
   61SAPC   O22 4736   2.391   6.528  10.515  0.2633 -0.3203 -0.0912
   61SAPC   C22 4737   2.149   6.545  10.488 -0.0435  0.2977 -0.2861
   61SAPC   H2R 4738   2.106   6.550  10.590  1.0006 -0.0052  0.1792
   61SAPC   H2S 4739   2.179   6.644  10.449  2.0976 -0.2844 -0.2060
   61SAPC    C3 4740   2.301   6.107  10.516 -0.1602  0.5212  0.2240
   61SAPC    HX 4741   2.214   6.098  10.584 -0.1663  1.0361  0.2886
   61SAPC    HY 4742   2.373   6.028  10.545  2.0525  3.1035  2.2948
   61SAPC   O31 4743   2.275   6.105  10.370 -0.7403 -0.1351 -0.5553
   61SAPC   C31 4744   2.141   6.112  10.342  0.3062  0.1124  0.2101
   61SAPC   O32 4745   2.054   6.128  10.424  0.8395 -0.7773 -0.2540
   61SAPC   C32 4746   2.132   6.073  10.192 -0.0408  0.3277 -0.9023
   61SAPC   H2X 4747   2.234   6.049  10.157 -0.3300 -0.1333 -1.4317
   61SAPC   H2Y 4748   2.109   6.172  10.146 -0.8058  0.1832 -0.8437
   61SAPC   C23 4749   2.052   6.472  10.387  0.5879 -0.7970  0.2150
   61SAPC   H3R 4750   2.018   6.374  10.425 -0.3156 -0.1518  1.1249
   61SAPC   H3S 4751   2.110   6.453  10.294 -1.0950 -1.8926 -0.6535
   61SAPC   C24 4752   1.933   6.566  10.358 -0.7522  0.0070  0.6659
   61SAPC   H4R 4753   1.905   6.585  10.464  2.4226  1.8339  1.3315
   61SAPC   H4S 4754   1.850   6.510  10.312 -0.2904 -1.1443  1.2014
   61SAPC   C25 4755   1.961   6.694  10.283  0.5106 -0.2447 -0.4789
   61SAPC   H5R 4756   1.997   6.779  10.341 -0.7134  0.0672 -0.1396
   61SAPC   C26 4757   1.944   6.720  10.155  0.5002 -0.0542  0.9938
   61SAPC   H6R 4758   1.974   6.819  10.118 -0.7556 -0.0541 -0.1400
   61SAPC   C27 4759   1.889   6.635  10.043  0.1265 -0.4091  0.1067
   61SAPC   H7R 4760   1.792   6.683  10.015  0.3851 -0.8761 -1.7784
   61SAPC   H7S 4761   1.860   6.534  10.078  2.8337 -1.5364 -0.6371
   61SAPC   C28 4762   1.984   6.608   9.932  0.2895  0.5887  0.7618
   61SAPC   H8R 4763   2.059   6.532   9.959  2.4354  2.7753  1.2652
   61SAPC   C29 4764   1.986   6.657   9.804  0.6648  0.0632 -0.4191
   61SAPC   H9R 4765   2.062   6.613   9.737  2.0538  1.8117 -0.0652
   61SAPC  C210 4766   1.891   6.756   9.739  0.1042 -0.4960 -0.0944
   61SAPC  H10R 4767   1.946   6.823   9.668  1.8549  0.1338  1.7460
   61SAPC  H10S 4768   1.846   6.816   9.820  1.3102  0.2090  0.0926
   61SAPC  C211 4769   1.773   6.678   9.681 -0.4296  0.0569 -0.5455
   61SAPC  H11R 4770   1.698   6.641   9.752 -0.5904  1.2692 -0.0724
   61SAPC  C212 4771   1.754   6.670   9.547  0.2783  0.2676  0.8865
   61SAPC  H12R 4772   1.666   6.614   9.511  0.7541 -0.2563  0.5307
   61SAPC  C213 4773   1.839   6.729   9.434  0.8745 -0.1563 -0.0874
   61SAPC  H13R 4774   1.900   6.653   9.381 -0.5935 -1.3063 -0.1856
   61SAPC  H13S 4775   1.913   6.803   9.470 -0.7645  0.8336  1.4621
   61SAPC  C214 4776   1.746   6.799   9.336  0.3494 -0.3634  0.0638
   61SAPC  H14R 4777   1.659   6.848   9.383  0.6064  1.1050 -0.9167
   61SAPC  C215 4778   1.777   6.838   9.215 -0.5200 -0.5049  0.2519
   61SAPC  H15R 4779   1.704   6.894   9.156  1.4848  1.4225 -0.5509
   61SAPC  C216 4780   1.907   6.798   9.143 -0.3089  0.0690  0.1979
   61SAPC  H16R 4781   1.893   6.788   9.033  0.5311  1.8081 -0.0971
   61SAPC  H16S 4782   1.939   6.696   9.173 -1.0429 -0.3055 -0.2755
   61SAPC  C217 4783   2.025   6.898   9.168  0.5019 -0.4597  1.0165
   61SAPC  H17R 4784   2.119   6.856   9.126  0.2308 -0.7367  0.6932
   61SAPC  H17S 4785   2.042   6.907   9.278  0.2170 -0.9353  1.1010
   61SAPC  C218 4786   2.008   7.041   9.107  0.0694  0.4968 -0.3515
   61SAPC  H18R 4787   2.096   7.105   9.128 -0.7940  1.7991 -0.6431
   61SAPC  H18S 4788   1.913   7.086   9.143  1.1182  0.6429  2.5164
   61SAPC  C219 4789   2.021   7.040   8.957  0.2526  0.0629  0.1960
   61SAPC  H19R 4790   1.956   6.957   8.921  1.4374 -1.4082  1.3012
   61SAPC  H19S 4791   2.122   7.009   8.923 -0.2626 -0.5279 -0.8235
   61SAPC  C220 4792   1.989   7.180   8.899 -0.0479  0.7549  0.1660
   61SAPC  H20R 4793   2.074   7.248   8.922  2.0952 -2.3548  2.2960
   61SAPC  H20S 4794   1.893   7.213   8.945  0.6346  1.0338  1.4392
   61SAPC  H20T 4795   1.979   7.168   8.789  1.1626 -0.0370  0.1240
   61SAPC   C33 4796   2.025   5.977  10.145 -0.3039 -0.2213  0.4348
   61SAPC   H3X 4797   1.930   6.003  10.197 -0.1526 -0.9239  1.0909
   61SAPC   H3Y 4798   2.043   5.873  10.179  0.0196 -0.5219 -0.6098
   61SAPC   C34 4799   1.977   5.982   9.995 -0.0072  0.2960 -0.0148
   61SAPC   H4X 4800   2.072   5.958   9.944 -0.3145 -0.2468 -0.3430
   61SAPC   H4Y 4801   1.961   6.083   9.952  1.3602 -0.0870 -1.4945
   61SAPC   C35 4802   1.860   5.893   9.951 -0.3973  0.5522 -0.4205
   61SAPC   H5X 4803   1.757   5.935   9.954 -0.3315  0.6402  1.2778
   61SAPC   H5Y 4804   1.863   5.791   9.995 -1.1075 -0.4351 -2.4955
   61SAPC   C36 4805   1.873   5.856   9.805  0.4519 -0.4789  0.4696
   61SAPC   H6X 4806   1.978   5.859   9.768  0.3981  1.9273  0.3707
   61SAPC   H6Y 4807   1.828   5.941   9.749 -2.0603 -1.9031  0.1855
   61SAPC   C37 4808   1.794   5.728   9.760 -0.3454 -0.2176  0.5798
   61SAPC   H7X 4809   1.689   5.726   9.797 -0.4394 -1.4568  0.3037
   61SAPC   H7Y 4810   1.861   5.647   9.796 -0.7426 -0.2534  1.2771
   61SAPC   C38 4811   1.786   5.721   9.600 -0.2148 -0.1736 -0.9509
   61SAPC   H8X 4812   1.709   5.786   9.552 -0.5011  0.1657 -0.0465
   61SAPC   H8Y 4813   1.762   5.612   9.594 -0.4822 -0.6014  3.9399
   61SAPC   C39 4814   1.920   5.743   9.521  0.3728 -0.3830  0.3289
   61SAPC   H9X 4815   2.003   5.691   9.573 -0.2462 -0.7473  0.9784
   61SAPC   H9Y 4816   1.937   5.853   9.524 -0.3649 -0.2721  0.7707
   61SAPC  C310 4817   1.882   5.704   9.376 -0.8110  0.1004 -0.1060
   61SAPC  H10X 4818   1.786   5.744   9.337 -1.0472  0.2159  0.5766
   61SAPC  H10Y 4819   1.867   5.594   9.383  0.1924 -0.0937 -0.8257
   61SAPC  C311 4820   2.001   5.725   9.283 -0.0080 -0.1615 -0.0988
   61SAPC  H11X 4821   2.096   5.680   9.320  1.7091  2.2101 -1.4038
   61SAPC  H11Y 4822   2.029   5.832   9.276  0.7792 -0.1830  2.0480
   61SAPC  C312 4823   1.977   5.683   9.134  0.1829 -0.0517 -0.9424
   61SAPC  H12X 4824   1.948   5.576   9.142  0.6495 -0.2230 -1.5567
   61SAPC  H12Y 4825   2.068   5.682   9.072  1.8459 -1.2735  1.3619
   61SAPC  C313 4826   1.849   5.754   9.070 -0.6870 -0.3973 -0.3957
   61SAPC  H13X 4827   1.865   5.863   9.079  0.1644 -0.3183 -2.4150
   61SAPC  H13Y 4828   1.757   5.736   9.130 -1.8305  1.1244 -1.6241
   61SAPC  C314 4829   1.825   5.717   8.924  0.5129 -0.3805  0.3723
   61SAPC  H14X 4830   1.917   5.717   8.861  0.9212 -1.0097  0.9483
   61SAPC  H14Y 4831   1.764   5.802   8.886  0.0910  0.1149  2.0777
   61SAPC  C315 4832   1.749   5.584   8.895  0.0558 -0.4527 -0.0748
   61SAPC  H15X 4833   1.644   5.592   8.931 -0.5835  1.3405 -2.1026
   61SAPC  H15Y 4834   1.793   5.495   8.945 -1.9968 -2.0003 -0.8935
   61SAPC  C316 4835   1.741   5.535   8.747 -0.5361 -0.3071 -0.4864
   61SAPC  H16X 4836   1.844   5.546   8.707 -0.4483 -1.4760 -0.6299
   61SAPC  H16Y 4837   1.678   5.607   8.691 -0.3411 -0.0270 -0.3458
   61SAPC  C317 4838   1.692   5.390   8.719 -0.3163 -0.4960  0.4505
   61SAPC  H17X 4839   1.603   5.368   8.781 -0.2472 -1.3524  0.2566
   61SAPC  H17Y 4840   1.767   5.312   8.745  0.2138 -0.9926 -2.3140
   61SAPC  C318 4841   1.651   5.390   8.574 -0.0127  0.8872 -0.4496
   61SAPC  H18X 4842   1.591   5.480   8.547 -0.7922  1.0586  1.6705
   61SAPC  H18Y 4843   1.591   5.301   8.547 -2.1435  1.4297  2.0940
   61SAPC  H18Z 4844   1.747   5.389   8.517  1.5720 -0.8396  2.0033
   62SAPC     N 4845   1.804   0.461  11.024  0.0188 -0.2406 -0.4562
   62SAPC   C12 4846   1.828   0.408  10.881 -0.1472  0.2079  0.2088
   62SAPC  H12A 4847   1.787   0.475  10.807 -1.2087  1.0623  1.5144
   62SAPC  H12B 4848   1.762   0.325  10.859 -2.5868  1.4477  2.1868
   62SAPC   C13 4849   1.876   0.589  11.060 -0.1581  0.2698 -0.9058
   62SAPC  H13A 4850   1.851   0.614  11.162 -0.9704 -1.3313 -0.6661
   62SAPC  H13B 4851   1.981   0.565  11.050 -0.1119  1.0665 -2.5065
   62SAPC  H13C 4852   1.846   0.663  10.988  3.0128 -0.4116 -3.1219
   62SAPC   C14 4853   1.656   0.481  11.030 -0.2500 -0.4026  0.0353
   62SAPC  H14A 4854   1.625   0.545  11.111 -0.1294  0.9314 -0.9475
   62SAPC  H14B 4855   1.623   0.534  10.942  1.3711 -0.8840 -0.9077
   62SAPC  H14C 4856   1.604   0.386  11.042 -0.0678 -0.3447  1.4525
   62SAPC   C15 4857   1.830   0.351  11.126  0.4166  0.6890 -0.1683
   62SAPC  H15A 4858   1.760   0.274  11.099  1.0700  0.5997 -1.7448
   62SAPC  H15B 4859   1.932   0.316  11.124 -0.3119 -1.9179  1.8610
   62SAPC  H15C 4860   1.813   0.392  11.224  2.4109  1.0738  0.0695
   62SAPC   C11 4861   1.978   0.391  10.843 -0.5715 -0.6358  0.5521
   62SAPC  H11A 4862   1.973   0.334  10.747  1.0046 -2.1928  1.3384
   62SAPC  H11B 4863   2.027   0.334  10.925  0.9849  1.5856  1.2597
   62SAPC     P 4864   1.996   0.619  10.699  0.1737  0.4119  0.2363
   62SAPC   O13 4865   1.851   0.620  10.669  0.5505 -0.1333  0.0565
   62SAPC   O14 4866   2.061   0.748  10.708 -0.4796 -0.2233 -0.0908
   62SAPC   O12 4867   2.030   0.524  10.826  0.6057  0.0249 -0.5190
   62SAPC   O11 4868   2.055   0.543  10.572 -0.5606  0.5352 -0.6219
   62SAPC    C1 4869   2.175   0.459  10.586  0.5704  0.2175  0.7090
   62SAPC    HA 4870   2.210   0.441  10.689  0.7534  3.7008  1.3692
   62SAPC    HB 4871   2.165   0.360  10.535  1.7322  0.7317 -0.5838
   62SAPC    C2 4872   2.296   0.527  10.525 -1.3530 -0.3011 -0.5556
   62SAPC    HS 4873   2.312   0.628  10.568  2.3914 -0.1480 -1.9271
   62SAPC   O21 4874   2.266   0.543  10.385 -0.1699  0.0152 -0.2348
   62SAPC   C21 4875   2.328   0.634  10.320 -0.7448 -0.4101 -0.8890
   62SAPC   O22 4876   2.418   0.705  10.368  0.7353 -0.2244  0.2622
   62SAPC   C22 4877   2.297   0.623  10.171  0.7748  0.6072 -1.4098
   62SAPC   H2R 4878   2.361   0.540  10.133  1.6563  0.8833 -0.5867
   62SAPC   H2S 4879   2.190   0.593  10.166  1.3790 -1.7400 -1.4968
   62SAPC    C3 4880   2.427   0.448  10.534 -0.4739 -0.4750 -1.3026
   62SAPC    HX 4881   2.462   0.454  10.639 -1.4250  0.5756 -1.0347
   62SAPC    HY 4882   2.503   0.493  10.467 -1.1418 -0.3717 -2.0102
   62SAPC   O31 4883   2.420   0.305  10.505  0.0106  0.2111 -0.1323
   62SAPC   C31 4884   2.477   0.256  10.387 -0.4913 -0.3054  0.2478
   62SAPC   O32 4885   2.548   0.320  10.318 -0.0487  0.2864  0.9646
   62SAPC   C32 4886   2.429   0.110  10.379  0.1833 -0.2633  0.4992
   62SAPC   H2X 4887   2.319   0.113  10.363  0.3835 -0.6921 -1.2012
   62SAPC   H2Y 4888   2.454   0.053  10.471  0.5653 -1.7944 -0.5265
   62SAPC   C23 4889   2.329   0.749  10.087  0.4602  0.1386 -0.5525
   62SAPC   H3R 4890   2.438   0.771  10.085  0.4206  0.3326 -0.6540
   62SAPC   H3S 4891   2.281   0.834  10.141 -0.3897  0.2463 -1.4614
   62SAPC   C24 4892   2.286   0.748   9.940 -0.2055 -0.7360  0.6489
   62SAPC   H4R 4893   2.335   0.659   9.895 -3.6653 -2.5556  0.0936
   62SAPC   H4S 4894   2.326   0.838   9.889 -1.8747 -0.5621 -0.4270
   62SAPC   C25 4895   2.134   0.742   9.930  0.3795  0.4405 -0.2624
   62SAPC   H5R 4896   2.086   0.803  10.009 -1.2190 -0.2816 -0.6560
   62SAPC   C26 4897   2.064   0.678   9.836 -0.0096  1.0186 -0.1760
   62SAPC   H6R 4898   1.955   0.692   9.837 -0.1939 -0.2161  2.0706
   62SAPC   C27 4899   2.118   0.593   9.726  0.3687  0.4669  0.1787
   62SAPC   H7R 4900   2.219   0.550   9.744  0.6016  0.3397 -1.2554
   62SAPC   H7S 4901   2.123   0.654   9.633  0.7961 -1.5696 -1.2260
   62SAPC   C28 4902   2.023   0.477   9.696 -0.0772 -0.3221 -0.2092
   62SAPC   H8R 4903   2.001   0.406   9.777 -0.3267  0.5850  0.5417
   62SAPC   C29 4904   1.954   0.464   9.588  0.2955 -0.4566 -0.5427
   62SAPC   H9R 4905   1.879   0.385   9.587  0.4205 -0.5712 -1.4579
   62SAPC  C210 4906   1.951   0.550   9.464 -0.2665  0.1009  0.3862
   62SAPC  H10R 4907   2.050   0.557   9.416 -1.4883  0.3098 -2.2740
   62SAPC  H10S 4908   1.900   0.646   9.490  1.0786  1.8464 -2.8585
   62SAPC  C211 4909   1.867   0.487   9.353 -0.2515 -0.4062 -0.2329
   62SAPC  H11R 4910   1.879   0.378   9.363  0.4262 -0.3021  0.1606
   62SAPC  C212 4911   1.787   0.539   9.260 -0.0146  0.2178  0.0103
   62SAPC  H12R 4912   1.723   0.471   9.203 -0.3221 -1.2435  1.9693
   62SAPC  C213 4913   1.762   0.687   9.230  0.0126  0.0618 -0.5734
   62SAPC  H13R 4914   1.829   0.720   9.148  2.4385  0.2875  1.3512
   62SAPC  H13S 4915   1.796   0.749   9.317  0.4029 -0.6566 -0.2033
   62SAPC  C214 4916   1.618   0.721   9.206 -0.1359  0.3313 -0.2034
   62SAPC  H14R 4917   1.560   0.742   9.297 -0.5817 -1.8870  0.0635
   62SAPC  C215 4918   1.560   0.721   9.087 -0.0743  0.2686  0.5758
   62SAPC  H15R 4919   1.454   0.746   9.069 -0.0645 -1.1417 -1.9810
   62SAPC  C216 4920   1.619   0.679   8.957 -0.2307 -0.4393 -0.1702
   62SAPC  H16R 4921   1.710   0.618   8.973  0.4510  0.8341  1.0146
   62SAPC  H16S 4922   1.652   0.768   8.900 -0.1049 -2.3812 -3.3860
   62SAPC  C217 4923   1.517   0.593   8.881 -0.1804  0.1029  0.0429
   62SAPC  H17R 4924   1.507   0.500   8.940  0.3646 -0.1071 -0.1907
   62SAPC  H17S 4925   1.551   0.555   8.782 -3.4795 -1.9920 -0.4320
   62SAPC  C218 4926   1.382   0.664   8.852  0.5950  0.6870 -0.5613
   62SAPC  H18R 4927   1.411   0.762   8.809  0.4921  0.3972 -1.3018
   62SAPC  H18S 4928   1.310   0.672   8.936  0.2021 -1.3982 -0.6427
   62SAPC  C219 4929   1.304   0.590   8.741 -0.5267 -0.7274 -0.1653
   62SAPC  H19R 4930   1.366   0.590   8.648 -1.1147 -0.6679 -0.5671
   62SAPC  H19S 4931   1.208   0.641   8.720  0.9233  1.4904 -1.9842
   62SAPC  C220 4932   1.277   0.440   8.774  0.0652  0.3119  0.6172
   62SAPC  H20R 4933   1.372   0.383   8.783 -0.4762 -0.6104  0.4877
   62SAPC  H20S 4934   1.223   0.395   8.688  1.3392 -0.6305  0.2725
   62SAPC  H20T 4935   1.224   0.432   8.871 -1.9961  0.1889 -0.4748
   62SAPC   C33 4936   2.459   0.036  10.245  0.0941  0.2470 -0.6509
   62SAPC   H3X 4937   2.566   0.007  10.246 -0.7252 -3.3721 -2.3767
   62SAPC   H3Y 4938   2.444   0.113  10.166 -0.7671  1.0273  0.2393
   62SAPC   C34 4939   2.383  -0.090  10.212  0.1646 -0.6380 -1.0959
   62SAPC   H4X 4940   2.276  -0.069  10.236  0.7149  1.7572 -0.5369
   62SAPC   H4Y 4941   2.430  -0.165  10.279  2.2966  0.2796 -1.5012
   62SAPC   C35 4942   2.381  -0.144  10.066 -0.6835 -0.2511 -0.3239
   62SAPC   H5X 4943   2.487  -0.156  10.037 -0.0153  1.7798  1.0664
   62SAPC   H5Y 4944   2.335  -0.076   9.991 -1.2504 -0.4415 -0.1573
   62SAPC   C36 4945   2.311  -0.280  10.056  0.1826 -1.0228 -0.1413
   62SAPC   H6X 4946   2.213  -0.272  10.106 -0.6796 -0.6824 -1.8205
   62SAPC   H6Y 4947   2.371  -0.350  10.119  0.6897 -0.0873  0.4360
   62SAPC   C37 4948   2.310  -0.342   9.912  0.3347 -0.1581  0.5604
   62SAPC   H7X 4949   2.415  -0.343   9.875  0.3243 -0.2179  0.5316
   62SAPC   H7Y 4950   2.247  -0.287   9.840  0.8465 -2.9575 -2.2619
   62SAPC   C38 4951   2.254  -0.486   9.920  0.5661  1.0164  0.7397
   62SAPC   H8X 4952   2.156  -0.478   9.972  0.0213  1.8388 -0.3942
   62SAPC   H8Y 4953   2.314  -0.553   9.987 -0.4808  1.1686  1.8703
   62SAPC   C39 4954   2.235  -0.556   9.777 -0.0599 -0.7913 -0.0006
   62SAPC   H9X 4955   2.169  -0.643   9.796 -0.2790 -0.1080  2.9690
   62SAPC   H9Y 4956   2.336  -0.585   9.741  0.7312  3.4807 -1.8575
   62SAPC  C310 4957   2.169  -0.462   9.669 -0.2933 -0.4513 -0.2978
   62SAPC  H10X 4958   2.252  -0.393   9.643 -0.1578  0.7631  2.9235
   62SAPC  H10Y 4959   2.093  -0.399   9.719  1.1288  0.8688  0.3064
   62SAPC  C311 4960   2.109  -0.537   9.550 -0.9233  0.3937 -0.0235
   62SAPC  H11X 4961   2.027  -0.475   9.509 -0.9304 -1.5687 -3.3111
   62SAPC  H11Y 4962   2.049  -0.621   9.590  0.6384  0.1852  2.0595
   62SAPC  C312 4963   2.216  -0.588   9.444  0.0786 -1.2104  0.3075
   62SAPC  H12X 4964   2.306  -0.632   9.491 -0.9776 -1.7935  1.8696
   62SAPC  H12Y 4965   2.243  -0.497   9.385 -2.6377  0.4036  1.3483
   62SAPC  C313 4966   2.146  -0.685   9.350  0.1325  0.2738  0.4942
   62SAPC  H13X 4967   2.064  -0.627   9.303  0.8662  0.6618 -0.3419
   62SAPC  H13Y 4968   2.102  -0.776   9.395 -0.4500 -0.6998 -1.8771
   62SAPC  C314 4969   2.228  -0.726   9.228  1.0893  0.6566  0.1534
   62SAPC  H14X 4970   2.182  -0.809   9.170 -0.0105  0.8615  0.6933
   62SAPC  H14Y 4971   2.332  -0.750   9.256  1.4848  2.5389  0.3897
   62SAPC  C315 4972   2.252  -0.616   9.117 -0.1890  0.1741  0.1782
   62SAPC  H15X 4973   2.334  -0.547   9.148  1.9670 -3.1381  2.5487
   62SAPC  H15Y 4974   2.159  -0.559   9.097  0.7978  1.5550 -0.7373
   62SAPC  C316 4975   2.314  -0.686   8.988  0.3896  0.2353 -0.4213
   62SAPC  H16X 4976   2.263  -0.781   8.960  1.0183  0.3099 -1.9648
   62SAPC  H16Y 4977   2.419  -0.711   9.012 -1.0803 -3.6453  3.2138
   62SAPC  C317 4978   2.321  -0.593   8.858  0.5492 -0.1999  0.6729
   62SAPC  H17X 4979   2.369  -0.495   8.879 -1.0074  0.8870 -0.6384
   62SAPC  H17Y 4980   2.221  -0.556   8.829  1.0216  0.2633 -0.4420
   62SAPC  C318 4981   2.384  -0.667   8.744  0.0466 -0.0371  0.0791
   62SAPC  H18X 4982   2.313  -0.752   8.732  0.1264 -0.2602  1.0753
   62SAPC  H18Y 4983   2.487  -0.698   8.771  0.4671  0.0268 -1.3788
   62SAPC  H18Z 4984   2.383  -0.617   8.645  0.4471  0.3293  0.2614
   63SAPC     N 4985   6.197   5.562   5.973  0.3390 -0.4759 -0.1138
   63SAPC   C12 4986   6.286   5.465   6.045  0.3675  0.4134 -0.3990
   63SAPC  H12A 4987   6.386   5.489   6.012 -0.6088  2.5925 -1.9985
   63SAPC  H12B 4988   6.259   5.365   6.014  0.0853 -0.7453  3.1743
   63SAPC   C13 4989   6.049   5.533   5.999 -0.3690  1.0921 -0.4985
   63SAPC  H13A 4990   6.028   5.429   5.975 -2.0544  1.4814 -0.8631
   63SAPC  H13B 4991   6.018   5.545   6.101  0.1670  0.8440 -0.3014
   63SAPC  H13C 4992   5.984   5.594   5.938 -1.5571  1.7775  1.3774
   63SAPC   C14 4993   6.240   5.702   6.006 -0.4723  0.2022 -0.1777
   63SAPC  H14A 4994   6.344   5.715   5.980 -0.1105 -1.1355  0.4784
   63SAPC  H14B 4995   6.186   5.767   5.939 -0.4818  1.2929  0.8650
   63SAPC  H14C 4996   6.213   5.724   6.108  0.9831  0.5381  0.1493
   63SAPC   C15 4997   6.217   5.530   5.828 -0.7327 -0.0005  0.1291
   63SAPC  H15A 4998   6.169   5.437   5.800 -2.7743  0.8614  0.6057
   63SAPC  H15B 4999   6.163   5.600   5.767  3.6826 -0.0329 -4.5111
   63SAPC  H15C 5000   6.320   5.535   5.796 -0.8638  2.5863 -0.0877
   63SAPC   C11 5001   6.274   5.468   6.207 -0.9355  0.2755  0.3826
   63SAPC  H11A 5002   6.305   5.567   6.246 -1.1108 -0.7846  3.4726
   63SAPC  H11B 5003   6.354   5.402   6.247 -0.6937 -1.0954 -2.1697
   63SAPC     P 5004   6.103   5.276   6.257 -0.3365 -0.1879  0.2600
   63SAPC   O13 5005   5.956   5.266   6.281  0.2380 -0.4529 -0.0305
   63SAPC   O14 5006   6.154   5.212   6.133 -0.0001  0.5825  0.2623
   63SAPC   O12 5007   6.137   5.436   6.251 -0.1057  0.1148 -0.6030
   63SAPC   O11 5008   6.178   5.216   6.386  0.1881 -0.7070 -0.0541
   63SAPC    C1 5009   6.225   5.288   6.500  0.8657 -0.2232  0.6894
   63SAPC    HA 5010   6.308   5.239   6.556  0.7007 -0.1201  1.0294
   63SAPC    HB 5011   6.246   5.395   6.478 -0.7879  0.2685  1.3318
   63SAPC    C2 5012   6.107   5.281   6.605  0.4241 -0.0771  0.2416
   63SAPC    HS 5013   6.023   5.346   6.573  0.1596 -0.7911 -0.5680
   63SAPC   O21 5014   6.156   5.320   6.732  0.2790  0.0758  0.0298
   63SAPC   C21 5015   6.077   5.344   6.826 -0.3788  0.3494 -0.0367
   63SAPC   O22 5016   5.958   5.372   6.820  0.1304  0.2983 -0.0904
   63SAPC   C22 5017   6.162   5.332   6.956  0.2533  0.5454 -0.0817
   63SAPC   H2R 5018   6.226   5.243   6.944  3.3194  2.6778 -0.6291
   63SAPC   H2S 5019   6.230   5.420   6.949 -1.9430  2.2764 -1.2661
   63SAPC    C3 5020   6.042   5.136   6.614  0.0861  0.3705  0.0763
   63SAPC    HX 5021   5.989   5.125   6.516  1.1387 -1.5977 -0.3280
   63SAPC    HY 5022   5.969   5.132   6.697  0.4280 -0.9875  0.3361
   63SAPC   O31 5023   6.132   5.027   6.623  0.1226  0.4502  0.4967
   63SAPC   C31 5024   6.164   4.990   6.748  0.4569  0.5688 -0.0287
   63SAPC   O32 5025   6.107   5.025   6.850 -0.2059 -0.1194  0.1746
   63SAPC   C32 5026   6.273   4.883   6.741 -0.1115 -0.0775 -0.4220
   63SAPC   H2X 5027   6.255   4.834   6.643 -0.7813  1.6561 -1.2048
   63SAPC   H2Y 5028   6.265   4.803   6.817 -1.5673 -0.1313 -0.6015
   63SAPC   C23 5029   6.084   5.321   7.094  0.0152  0.1408  0.3229
   63SAPC   H3R 5030   6.015   5.234   7.096 -0.9024  0.6525 -2.8085
   63SAPC   H3S 5031   6.023   5.411   7.114  0.3732  0.0956  1.7315
   63SAPC   C24 5032   6.179   5.318   7.212 -0.2732  0.0719 -0.2855
   63SAPC   H4R 5033   6.246   5.407   7.210  0.4867 -0.4978 -0.9841
   63SAPC   H4S 5034   6.245   5.230   7.216 -0.9695 -0.4031  2.6059
   63SAPC   C25 5035   6.094   5.326   7.341  0.1682  0.2496  0.1437
   63SAPC   H5R 5036   6.038   5.233   7.351 -0.1213  0.4598  0.4678
   63SAPC   C26 5037   6.078   5.418   7.433 -0.1099  0.6618  0.1780
   63SAPC   H6R 5038   6.010   5.400   7.518 -2.7103 -2.0560 -2.2191
   63SAPC   C27 5039   6.136   5.558   7.439  0.5999 -0.4890  0.1647
   63SAPC   H7R 5040   6.171   5.589   7.338  0.0462 -0.6962 -0.0956
   63SAPC   H7S 5041   6.220   5.562   7.511 -0.6050 -0.7165  1.6382
   63SAPC   C28 5042   6.026   5.666   7.461 -0.3528 -0.2180  0.1685
   63SAPC   H8R 5043   5.959   5.683   7.375  3.3903 -1.0553 -3.2507
   63SAPC   C29 5044   6.001   5.731   7.576 -0.6251  0.7521 -0.3218
   63SAPC   H9R 5045   5.917   5.801   7.583 -0.2837  1.0205  2.2254
   63SAPC  C210 5046   6.078   5.694   7.706  0.3379 -0.4077  0.5307
   63SAPC  H10R 5047   6.148   5.778   7.727  1.5775 -1.5064  0.9213
   63SAPC  H10S 5048   6.133   5.598   7.711 -0.0593 -0.5901  1.7942
   63SAPC  C211 5049   5.972   5.696   7.818 -0.8330  0.3972  0.2252
   63SAPC  H11R 5050   5.871   5.668   7.786 -0.8696  1.8464 -1.0560
   63SAPC  C212 5051   5.992   5.736   7.949 -0.0313 -0.2238 -0.4260
   63SAPC  H12R 5052   5.911   5.721   8.021  1.3152  0.9297  1.4200
   63SAPC  C213 5053   6.116   5.787   8.016  0.1544  0.5180  0.4658
   63SAPC  H13R 5054   6.210   5.742   7.977 -1.2837 -1.6003 -0.7422
   63SAPC  H13S 5055   6.103   5.754   8.121  1.7471 -0.1495  0.4860
   63SAPC  C214 5056   6.119   5.933   8.029 -0.3614 -0.4572  0.3006
   63SAPC  H14R 5057   6.081   5.982   7.939  0.8878 -1.1664 -0.6422
   63SAPC  C215 5058   6.175   6.008   8.131  0.5733  0.2949  0.2758
   63SAPC  H15R 5059   6.161   6.117   8.137  0.4519  0.3004 -0.0837
   63SAPC  C216 5060   6.253   5.954   8.247  0.5186  0.1205 -0.1375
   63SAPC  H16R 5061   6.334   6.024   8.278  0.1731  1.7486 -2.6159
   63SAPC  H16S 5062   6.294   5.851   8.236  0.6403 -0.0750  1.8367
   63SAPC  C217 5063   6.150   5.943   8.363  0.0810  0.6540  0.3883
   63SAPC  H17R 5064   6.200   5.875   8.435  1.8086 -0.1232 -1.4282
   63SAPC  H17S 5065   6.059   5.893   8.324 -1.2653  2.8152  0.6242
   63SAPC  C218 5066   6.114   6.075   8.435 -0.1635 -0.2305 -0.7434
   63SAPC  H18R 5067   6.053   6.127   8.358  2.4628  0.9343 -2.1744
   63SAPC  H18S 5068   6.214   6.121   8.453  0.7467 -2.5552  0.4709
   63SAPC  C219 5069   6.045   6.042   8.563  0.5076  0.4810 -0.5900
   63SAPC  H19R 5070   6.033   6.140   8.615  1.2869  0.0367  0.4748
   63SAPC  H19S 5071   6.109   5.980   8.630 -1.3861 -0.0724  0.7844
   63SAPC  C220 5072   5.909   5.990   8.546  0.1998  0.2759 -0.0553
   63SAPC  H20R 5073   5.912   5.891   8.497  0.7180  0.1734  0.1730
   63SAPC  H20S 5074   5.848   6.059   8.484  0.8436  0.2141 -0.7659
   63SAPC  H20T 5075   5.867   5.976   8.648  0.6706  1.4980  0.3255
   63SAPC   C33 5076   6.424   4.937   6.750 -0.0954  0.1920  0.4042
   63SAPC   H3X 5077   6.447   5.006   6.666  3.0685 -1.1044  0.0504
   63SAPC   H3Y 5078   6.494   4.852   6.731  0.4258  0.9376 -1.2421
   63SAPC   C34 5079   6.460   5.015   6.880 -0.3782 -0.1089 -0.0426
   63SAPC   H4X 5080   6.392   5.103   6.883  0.4372  0.5020  1.4050
   63SAPC   H4Y 5081   6.567   5.047   6.880 -0.1610 -0.8175  0.0858
   63SAPC   C35 5082   6.437   4.940   7.010 -0.2666 -0.5689 -0.1405
   63SAPC   H5X 5083   6.473   4.835   7.012  0.8578 -0.2176 -1.1939
   63SAPC   H5Y 5084   6.328   4.924   7.028 -0.9067  2.7332 -0.4552
   63SAPC   C36 5085   6.502   5.014   7.132 -0.2299 -0.1881 -0.8952
   63SAPC   H6X 5086   6.466   5.118   7.146  1.2533  0.1398  0.7532
   63SAPC   H6Y 5087   6.612   5.008   7.120 -0.1922 -0.2670 -0.5195
   63SAPC   C37 5088   6.454   4.951   7.266 -0.1116 -0.3212 -0.2280
   63SAPC   H7X 5089   6.531   4.876   7.294  0.0538  0.3819  1.2730
   63SAPC   H7Y 5090   6.350   4.912   7.257  0.4008 -2.0180  0.8195
   63SAPC   C38 5091   6.454   5.048   7.383  0.4416  0.4475 -0.3116
   63SAPC   H8X 5092   6.379   5.129   7.372 -0.2360  0.1945  1.8909
   63SAPC   H8Y 5093   6.550   5.103   7.387 -0.6560  2.4122  0.1505
   63SAPC   C39 5094   6.417   4.992   7.527  0.1872  0.0357  0.1396
   63SAPC   H9X 5095   6.488   4.914   7.561 -0.3492 -0.7382 -0.4641
   63SAPC   H9Y 5096   6.327   4.928   7.514 -1.3483  2.5379 -2.8778
   63SAPC  C310 5097   6.401   5.090   7.642  0.2274 -0.1359  0.2742
   63SAPC  H10X 5098   6.316   5.053   7.704  0.3850 -0.8809  0.0628
   63SAPC  H10Y 5099   6.363   5.184   7.599  0.1532 -0.3606 -0.1590
   63SAPC  C311 5100   6.534   5.083   7.718 -0.6191 -0.6174 -0.0568
   63SAPC  H11X 5101   6.611   5.129   7.652 -1.4053  2.0130  0.7341
   63SAPC  H11Y 5102   6.545   4.975   7.740 -1.7663 -0.8076 -0.3426
   63SAPC  C312 5103   6.536   5.170   7.843  0.5961 -0.0885 -0.3420
   63SAPC  H12X 5104   6.450   5.143   7.908  0.1520  2.1749  0.0712
   63SAPC  H12Y 5105   6.522   5.278   7.822  1.2436 -0.0838 -0.7728
   63SAPC  C313 5106   6.645   5.144   7.941  0.2286 -0.2694 -0.3209
   63SAPC  H13X 5107   6.742   5.118   7.893  2.3710  0.4452  3.2764
   63SAPC  H13Y 5108   6.617   5.060   8.008  0.5503  1.0484  1.5155
   63SAPC  C314 5109   6.654   5.263   8.039 -0.0878 -0.0194 -0.3943
   63SAPC  H14X 5110   6.559   5.260   8.097  0.0316  0.5704 -0.1617
   63SAPC  H14Y 5111   6.645   5.357   7.981 -0.7704 -0.9617 -1.9054
   63SAPC  C315 5112   6.774   5.267   8.132 -0.1403  0.4685 -0.1800
   63SAPC  H15X 5113   6.865   5.299   8.077 -1.8013  4.2261 -1.0781
   63SAPC  H15Y 5114   6.798   5.167   8.173  0.6155  1.3229  1.5391
   63SAPC  C316 5115   6.761   5.356   8.253  1.0825  0.1217 -0.1096
   63SAPC  H16X 5116   6.661   5.329   8.293  1.4996 -1.9283 -0.3668
   63SAPC  H16Y 5117   6.759   5.461   8.216  0.9000 -0.7215 -2.6790
   63SAPC  C317 5118   6.878   5.342   8.352 -0.2803 -0.9273 -0.1133
   63SAPC  H17X 5119   6.904   5.234   8.347 -1.3113 -1.2922  1.5337
   63SAPC  H17Y 5120   6.846   5.372   8.455  0.8612  0.2379 -0.0743
   63SAPC  C318 5121   6.993   5.425   8.313 -0.8953 -0.2022  0.1351
   63SAPC  H18X 5122   6.983   5.535   8.298  1.8262 -0.0151 -0.8385
   63SAPC  H18Y 5123   7.050   5.384   8.228  1.4399  0.2072  1.4225
   63SAPC  H18Z 5124   7.070   5.415   8.393  3.0787 -0.1460 -3.3602
   64SAPC     N 5125   6.787   1.772   6.199 -0.1715 -0.0891 -0.5287
   64SAPC   C12 5126   6.897   1.709   6.286  0.5202  0.5127 -0.8082
   64SAPC  H12A 5127   6.860   1.615   6.323  1.2160  0.5605  0.0535
   64SAPC  H12B 5128   6.907   1.765   6.378 -1.5860  1.4673 -1.1019
   64SAPC   C13 5129   6.666   1.787   6.285 -0.3402 -0.1237  0.6210
   64SAPC  H13A 5130   6.679   1.826   6.385  0.1329 -1.4597  1.0930
   64SAPC  H13B 5131   6.598   1.844   6.224  2.0296  2.6011  0.2905
   64SAPC  H13C 5132   6.622   1.691   6.307 -0.0102 -0.2621  0.6767
   64SAPC   C14 5133   6.848   1.898   6.151  0.2469  0.4146  0.1032
   64SAPC  H14A 5134   6.951   1.879   6.124  0.9239  0.9280  2.1425
   64SAPC  H14B 5135   6.795   1.935   6.064 -0.9863 -2.8028 -0.6523
   64SAPC  H14C 5136   6.855   1.973   6.228 -0.2691  1.1266 -0.5311
   64SAPC   C15 5137   6.751   1.689   6.080  0.1442  0.2719  0.2042
   64SAPC  H15A 5138   6.717   1.590   6.104 -2.9117  1.3085  0.6108
   64SAPC  H15B 5139   6.666   1.728   6.025  0.1434  0.0688  0.0610
   64SAPC  H15C 5140   6.834   1.682   6.011  1.7048  3.2432  1.5856
   64SAPC   C11 5141   7.037   1.694   6.229  0.0632 -0.0039  0.7458
   64SAPC  H11A 5142   7.027   1.654   6.125 -0.9565 -0.6548  1.0717
   64SAPC  H11B 5143   7.096   1.621   6.288  0.5018 -0.1216  0.1704
   64SAPC     P 5144   7.261   1.808   6.186  0.1806  0.1735  0.1291
   64SAPC   O13 5145   7.280   1.693   6.093 -0.3045 -0.2993 -0.0643
   64SAPC   O14 5146   7.312   1.940   6.137  0.1965  0.2374  0.5000
   64SAPC   O12 5147   7.108   1.820   6.221 -0.1146 -0.4962 -0.4647
   64SAPC   O11 5148   7.330   1.784   6.324 -0.3978 -0.0969  0.1049
   64SAPC    C1 5149   7.264   1.810   6.451 -0.9564 -0.1100 -0.8014
   64SAPC    HA 5150   7.165   1.860   6.440  0.2837  2.3900 -1.3455
   64SAPC    HB 5151   7.243   1.713   6.502 -0.0018  0.7153  1.2923
   64SAPC    C2 5152   7.355   1.896   6.546 -0.4486 -0.3999  0.6665
   64SAPC    HS 5153   7.456   1.850   6.542  0.7957  2.0226  1.8520
   64SAPC   O21 5154   7.295   1.892   6.673 -0.6410  0.1954 -0.0670
   64SAPC   C21 5155   7.367   1.955   6.769  0.3596  0.3398  0.3610
   64SAPC   O22 5156   7.467   2.012   6.757 -0.4577 -0.3138  0.3891
   64SAPC   C22 5157   7.286   1.951   6.895 -0.1246  0.0854  0.3335
   64SAPC   H2R 5158   7.188   1.999   6.871 -0.7637 -1.4483 -0.2325
   64SAPC   H2S 5159   7.270   1.845   6.924 -0.2115 -0.6701 -2.2088
   64SAPC    C3 5160   7.362   2.040   6.490 -0.1574 -0.0103  0.7785
   64SAPC    HX 5161   7.361   2.027   6.380 -0.1670 -0.1570  0.7954
   64SAPC    HY 5162   7.458   2.078   6.530 -1.6680  4.6467  0.5465
   64SAPC   O31 5163   7.249   2.119   6.543 -0.8929  0.1415 -0.3714
   64SAPC   C31 5164   7.278   2.247   6.556 -0.0135  0.0804 -0.8681
   64SAPC   O32 5165   7.377   2.304   6.511  0.2176 -0.8896  0.1629
   64SAPC   C32 5166   7.159   2.315   6.621 -0.1154  0.2168 -0.0715
   64SAPC   H2X 5167   7.098   2.245   6.682 -1.9239 -1.1837 -3.2597
   64SAPC   H2Y 5168   7.107   2.348   6.528  0.7240 -0.5418 -0.8274
   64SAPC   C23 5169   7.353   2.038   7.009  0.2883  0.3881 -0.4245
   64SAPC   H3R 5170   7.352   2.138   6.961  0.2938  0.6656  0.1415
   64SAPC   H3S 5171   7.461   2.013   7.011  0.1208 -0.4179 -0.7668
   64SAPC   C24 5172   7.284   2.028   7.148 -0.2923 -0.0593 -0.0408
   64SAPC   H4R 5173   7.289   1.926   7.192  0.2622  0.8119  2.0433
   64SAPC   H4S 5174   7.176   2.050   7.137 -0.7024  0.5791  3.8577
   64SAPC   C25 5175   7.352   2.132   7.233  0.5553 -0.2452  0.2299
   64SAPC   H5R 5176   7.457   2.152   7.207  0.2768 -1.4607 -2.0616
   64SAPC   C26 5177   7.289   2.222   7.314  0.1426 -0.0603 -0.0817
   64SAPC   H6R 5178   7.353   2.293   7.369 -1.3519  1.7287 -0.5142
   64SAPC   C27 5179   7.134   2.236   7.344  0.0774  0.1626 -0.2547
   64SAPC   H7R 5180   7.082   2.223   7.247 -4.4469 -2.4806  2.1802
   64SAPC   H7S 5181   7.112   2.341   7.371 -0.7205  0.4186 -1.7843
   64SAPC   C28 5182   7.071   2.137   7.433  0.1107  0.0735 -0.1191
   64SAPC   H8R 5183   7.014   2.059   7.381  1.3743 -1.1335  0.2743
   64SAPC   C29 5184   7.071   2.130   7.568  0.0629 -0.6378 -0.0546
   64SAPC   H9R 5185   7.009   2.050   7.611  0.1337  0.3052  1.9130
   64SAPC  C210 5186   7.135   2.217   7.669 -0.2747  0.0203 -0.1610
   64SAPC  H10R 5187   7.171   2.311   7.624 -1.3062  1.6044  2.1232
   64SAPC  H10S 5188   7.225   2.167   7.711 -0.8199  0.2604  1.3816
   64SAPC  C211 5189   7.047   2.252   7.789 -0.8180 -0.2147  0.3789
   64SAPC  H11R 5190   6.952   2.290   7.750  0.3365  0.9109 -1.4171
   64SAPC  C212 5191   7.068   2.224   7.921  0.4159 -0.3328  0.8705
   64SAPC  H12R 5192   6.984   2.245   7.989  0.8072  0.6473  1.0612
   64SAPC  C213 5193   7.196   2.169   7.978 -0.6860  0.0214  0.0292
   64SAPC  H13R 5194   7.257   2.261   7.991  2.1586 -1.6709 -0.4699
   64SAPC  H13S 5195   7.262   2.113   7.909 -1.4130 -0.8260  0.0004
   64SAPC  C214 5196   7.167   2.081   8.100  0.3647  0.0005 -0.1486
   64SAPC  H14R 5197   7.203   1.978   8.092 -0.9088 -0.4602 -0.2372
   64SAPC  C215 5198   7.126   2.125   8.220  1.1114 -0.6451  0.5200
   64SAPC  H15R 5199   7.115   2.051   8.300  2.5808 -1.3199  0.1119
   64SAPC  C216 5200   7.085   2.268   8.258  0.3973 -0.0411  0.1528
   64SAPC  H16R 5201   7.042   2.330   8.177 -0.5224 -1.1013 -0.1822
   64SAPC  H16S 5202   7.163   2.328   8.310  1.3592 -0.9431 -0.2255
   64SAPC  C217 5203   6.969   2.266   8.366 -1.1910 -0.0107  0.0140
   64SAPC  H17R 5204   6.875   2.217   8.332 -0.4178 -1.0832 -0.6269
   64SAPC  H17S 5205   6.930   2.370   8.360  0.8743  0.7142 -2.3471
   64SAPC  C218 5206   7.008   2.222   8.510 -0.0216  0.0152  0.1949
   64SAPC  H18R 5207   7.047   2.119   8.496 -1.3927 -0.2976 -1.6564
   64SAPC  H18S 5208   6.920   2.208   8.576 -1.5418 -1.1187 -1.9709
   64SAPC  C219 5209   7.104   2.316   8.576 -0.4838  0.2610 -0.2982
   64SAPC  H19R 5210   7.064   2.418   8.595 -2.1411  0.1523 -2.7854
   64SAPC  H19S 5211   7.187   2.327   8.504 -0.3989 -0.2264 -0.2734
   64SAPC  C220 5212   7.152   2.252   8.706 -0.3292 -0.2094  0.3704
   64SAPC  H20R 5213   7.181   2.147   8.684 -3.6487 -1.1144 -0.1522
   64SAPC  H20S 5214   7.084   2.261   8.794  0.7107 -0.2734  1.2112
   64SAPC  H20T 5215   7.245   2.307   8.732 -1.5988  1.2762  1.9991
   64SAPC   C33 5216   7.211   2.441   6.716 -0.5164  0.4079 -0.1751
   64SAPC   H3X 5217   7.120   2.500   6.738 -0.8557  0.1509 -0.8471
   64SAPC   H3Y 5218   7.274   2.513   6.659 -0.1918  1.2416  1.1789
   64SAPC   C34 5219   7.285   2.378   6.833  0.2837  0.2863  0.0987
   64SAPC   H4X 5220   7.388   2.347   6.806 -0.7262 -1.6146 -1.9094
   64SAPC   H4Y 5221   7.238   2.281   6.858  2.7921 -0.8008  0.9573
   64SAPC   C35 5222   7.285   2.468   6.960 -0.0153  0.2496  0.5489
   64SAPC   H5X 5223   7.348   2.556   6.933  1.8362 -1.2867 -0.4897
   64SAPC   H5Y 5224   7.329   2.408   7.042 -1.0912 -1.4588 -0.0720
   64SAPC   C36 5225   7.144   2.516   7.000 -0.1318 -0.1381 -0.0363
   64SAPC   H6X 5226   7.064   2.439   6.990  0.3557 -0.8909  1.4872
   64SAPC   H6Y 5227   7.116   2.602   6.936  0.6957 -1.3018 -2.0824
   64SAPC   C37 5228   7.136   2.574   7.144  0.2315 -0.3054  0.4687
   64SAPC   H7X 5229   7.216   2.649   7.159 -1.5445  1.6343  0.6273
   64SAPC   H7Y 5230   7.158   2.479   7.197 -0.4983 -1.2924 -0.9323
   64SAPC   C38 5231   6.993   2.613   7.181 -0.2024 -0.5081  0.0942
   64SAPC   H8X 5232   6.915   2.561   7.122 -0.6993 -0.5759  0.7985
   64SAPC   H8Y 5233   6.979   2.722   7.163 -0.3368 -0.5975 -0.3476
   64SAPC   C39 5234   6.953   2.594   7.323 -0.6644  0.3281  0.0951
   64SAPC   H9X 5235   6.941   2.485   7.345 -0.7801  0.4657  0.7546
   64SAPC   H9Y 5236   6.851   2.634   7.339 -0.8626 -0.7929  2.0971
   64SAPC  C310 5237   7.053   2.654   7.422  0.4093 -0.2206 -0.1455
   64SAPC  H10X 5238   7.071   2.756   7.381  1.2645 -0.7469 -1.1288
   64SAPC  H10Y 5239   7.146   2.596   7.440 -0.1070 -0.7021  1.0184
   64SAPC  C311 5240   6.992   2.671   7.547  0.5689 -0.1384 -0.3033
   64SAPC  H11X 5241   6.891   2.711   7.524  0.1868 -1.7714 -1.6857
   64SAPC  H11Y 5242   7.040   2.756   7.601 -1.2843  0.3701  0.6190
   64SAPC  C312 5243   6.970   2.547   7.635 -0.2338 -0.1195  0.1656
   64SAPC  H12X 5244   7.067   2.499   7.661 -1.0845 -0.1511  3.7961
   64SAPC  H12Y 5245   6.898   2.477   7.586  1.7353 -2.1109 -0.0350
   64SAPC  C313 5246   6.896   2.587   7.768  0.5349 -0.1221  0.1004
   64SAPC  H13X 5247   6.858   2.493   7.814  0.7805 -0.1748  0.1947
   64SAPC  H13Y 5248   6.811   2.655   7.746 -0.2229 -1.0660  0.0037
   64SAPC  C314 5249   6.998   2.642   7.874  0.1011 -0.9358  0.4938
   64SAPC  H14X 5250   7.024   2.747   7.849  1.2088 -0.9234  1.5609
   64SAPC  H14Y 5251   7.090   2.582   7.860 -0.6450 -2.0352  0.2109
   64SAPC  C315 5252   6.945   2.631   8.014  0.1656 -0.4360  0.0533
   64SAPC  H15X 5253   6.940   2.522   8.033  0.1629 -0.1793  1.6324
   64SAPC  H15Y 5254   6.845   2.678   8.028  0.3957 -0.1916  0.8974
   64SAPC  C316 5255   7.036   2.707   8.113  0.5662 -0.0476 -0.2826
   64SAPC  H16X 5256   7.023   2.816   8.096  0.9794  0.3368  1.6622
   64SAPC  H16Y 5257   7.137   2.662   8.101 -0.1024 -2.6859  2.6491
   64SAPC  C317 5258   7.004   2.673   8.263  0.1531 -0.2768 -0.6406
   64SAPC  H17X 5259   7.017   2.563   8.269  0.4016 -0.1969  0.4454
   64SAPC  H17Y 5260   6.897   2.697   8.277  0.2499  0.6055 -1.2846
   64SAPC  C318 5261   7.105   2.746   8.357 -0.1051  0.2356  0.6143
   64SAPC  H18X 5262   7.209   2.727   8.322 -0.3605  2.0501 -1.4125
   64SAPC  H18Y 5263   7.109   2.712   8.462  0.2373 -0.3471  0.4159
   64SAPC  H18Z 5264   7.100   2.857   8.346  1.9084  0.2394 -0.8245
   65SAPC     N 5265   1.247   0.169   6.330 -0.1773  0.3330  0.2262
   65SAPC   C12 5266   1.130   0.204   6.243  0.5013  1.0351  0.5140
   65SAPC  H12A 5267   1.164   0.279   6.172 -1.4265  1.7611  0.2810
   65SAPC  H12B 5268   1.053   0.252   6.301 -0.3374  0.2296  0.0876
   65SAPC   C13 5269   1.315   0.289   6.382 -0.4091  0.7854  0.5541
   65SAPC  H13A 5270   1.360   0.350   6.305  1.6863 -0.1590  0.9634
   65SAPC  H13B 5271   1.254   0.338   6.457  0.3359 -1.4345  2.7487
   65SAPC  H13C 5272   1.394   0.261   6.450 -0.1342  2.7184  1.0716
   65SAPC   C14 5273   1.203   0.087   6.438 -0.0761 -0.5374 -0.3017
   65SAPC  H14A 5274   1.142   0.004   6.407 -0.6951  0.4781 -1.9285
   65SAPC  H14B 5275   1.277   0.052   6.509 -0.5446  0.7229  0.8437
   65SAPC  H14C 5276   1.144   0.146   6.506 -1.5621 -1.1840 -1.0017
   65SAPC   C15 5277   1.346   0.084   6.256 -0.1822 -0.0898 -0.9627
   65SAPC  H15A 5278   1.382   0.132   6.166  1.0989  0.1786 -0.3318
   65SAPC  H15B 5279   1.435   0.065   6.314 -0.5238  1.9038  0.2963
   65SAPC  H15C 5280   1.299  -0.010   6.231  0.9903 -0.7921 -0.5936
   65SAPC   C11 5281   1.076   0.090   6.154 -0.0404  0.0478  0.2132
   65SAPC  H11A 5282   1.136   0.061   6.065 -2.5541  0.1124 -1.5938
   65SAPC  H11B 5283   0.995   0.144   6.101 -0.5662 -1.3934 -0.4790
   65SAPC     P 5284   0.925  -0.119   6.142  0.0958 -0.0142 -0.4246
   65SAPC   O13 5285   0.926  -0.098   5.997 -0.1327  0.3056  0.3642
   65SAPC   O14 5286   0.944  -0.257   6.188 -0.0872 -0.0326 -0.2507
   65SAPC   O12 5287   1.022  -0.025   6.221  0.2293 -0.3356 -0.2232
   65SAPC   O11 5288   0.783  -0.075   6.186 -0.0311 -0.0264 -1.2215
   65SAPC    C1 5289   0.742   0.043   6.248 -0.0307  0.3868  0.3937
   65SAPC    HA 5290   0.789   0.133   6.203 -0.1744 -0.2001 -1.0006
   65SAPC    HB 5291   0.637   0.044   6.211 -0.0018 -4.2155 -0.3281
   65SAPC    C2 5292   0.760   0.052   6.401 -0.6301  0.3933 -0.2396
   65SAPC    HS 5293   0.865   0.083   6.423 -0.9497  0.5665  1.1316
   65SAPC   O21 5294   0.719  -0.063   6.477 -0.4802 -0.1287 -0.1710
   65SAPC   C21 5295   0.814  -0.139   6.521 -0.1142  0.5445 -0.3336
   65SAPC   O22 5296   0.933  -0.114   6.522  0.4248  0.3464  0.9349
   65SAPC   C22 5297   0.750  -0.262   6.591  0.2866 -0.0134  0.2317
   65SAPC   H2R 5298   0.644  -0.253   6.622  0.4011 -3.1590  1.9016
   65SAPC   H2S 5299   0.749  -0.343   6.515 -1.4274 -0.3017  0.5221
   65SAPC    C3 5300   0.675   0.172   6.452  0.1771 -0.5816 -0.2687
   65SAPC    HX 5301   0.583   0.149   6.394  0.5288 -0.2095 -0.9782
   65SAPC    HY 5302   0.727   0.264   6.418 -0.5075 -0.4502 -0.9879
   65SAPC   O31 5303   0.655   0.174   6.595 -0.5709 -0.3589 -0.2279
   65SAPC   C31 5304   0.529   0.152   6.653 -0.3581  0.2308 -0.2912
   65SAPC   O32 5305   0.434   0.120   6.589 -0.0881 -0.1928  0.1674
   65SAPC   C32 5306   0.547   0.160   6.812 -0.6299  0.0860  0.9843
   65SAPC   H2X 5307   0.550   0.269   6.836  1.2254  0.2301  0.2620
   65SAPC   H2Y 5308   0.640   0.104   6.838 -0.3755  0.1759  0.2966
   65SAPC   C23 5309   0.831  -0.326   6.707 -0.2720  0.0810  0.2620
   65SAPC   H3R 5310   0.933  -0.355   6.676  0.2102 -0.5190  2.2860
   65SAPC   H3S 5311   0.781  -0.424   6.727 -0.3358 -0.0408 -0.4595
   65SAPC   C24 5312   0.835  -0.235   6.831  0.4446 -0.1993  0.5255
   65SAPC   H4R 5313   0.875  -0.136   6.801 -2.8436  0.2545 -3.1557
   65SAPC   H4S 5314   0.898  -0.274   6.914  0.1311  1.6360  1.6884
   65SAPC   C25 5315   0.696  -0.209   6.885 -0.2029  0.7906  0.0551
   65SAPC   H5R 5316   0.616  -0.196   6.811  0.7815  2.1563 -0.8121
   65SAPC   C26 5317   0.662  -0.198   7.020  0.1092  0.2795 -0.3002
   65SAPC   H6R 5318   0.557  -0.173   7.042 -0.7095 -2.7016 -0.3875
   65SAPC   C27 5319   0.769  -0.217   7.131 -0.3531 -0.1374 -0.6201
   65SAPC   H7R 5320   0.751  -0.136   7.205  1.3194 -0.1998 -0.0998
   65SAPC   H7S 5321   0.871  -0.186   7.100  0.8983 -0.1796  2.9727
   65SAPC   C28 5322   0.762  -0.359   7.184  0.0721  0.3536 -0.7011
   65SAPC   H8R 5323   0.837  -0.424   7.138  1.1287  0.9292  0.1830
   65SAPC   C29 5324   0.696  -0.401   7.295  0.6417  0.4070 -0.3644
   65SAPC   H9R 5325   0.722  -0.503   7.326  3.0340  0.6051 -1.5094
   65SAPC  C210 5326   0.616  -0.311   7.390  0.0932  0.1074  0.0762
   65SAPC  H10R 5327   0.538  -0.263   7.327 -0.7101 -2.1419 -0.7523
   65SAPC  H10S 5328   0.682  -0.235   7.436  0.7676 -0.9406  0.9017
   65SAPC  C211 5329   0.537  -0.376   7.501  0.3747  0.7421 -0.2643
   65SAPC  H11R 5330   0.573  -0.353   7.602  1.9513  0.0635 -0.6451
   65SAPC  C212 5331   0.427  -0.452   7.498 -0.2686 -0.4231  0.3967
   65SAPC  H12R 5332   0.386  -0.493   7.592  1.8763 -0.1038  1.5324
   65SAPC  C213 5333   0.356  -0.499   7.375  0.3132 -0.1787  0.6673
   65SAPC  H13R 5334   0.297  -0.590   7.397 -1.0913  0.7492  0.9003
   65SAPC  H13S 5335   0.434  -0.521   7.299 -1.0425  1.0609 -1.2062
   65SAPC  C214 5336   0.263  -0.396   7.318 -0.0995 -0.6150  0.3414
   65SAPC  H14R 5337   0.229  -0.320   7.390  0.1310 -0.7801  0.6234
   65SAPC  C215 5338   0.214  -0.380   7.193  0.0875 -0.2444  0.0257
   65SAPC  H15R 5339   0.150  -0.292   7.178  1.3224  0.7504  0.3645
   65SAPC  C216 5340   0.255  -0.467   7.082 -0.0833 -0.2008 -0.5834
   65SAPC  H16R 5341   0.162  -0.512   7.041  0.5278 -2.2417  0.1576
   65SAPC  H16S 5342   0.309  -0.556   7.120 -0.3547 -0.4171 -0.6971
   65SAPC  C217 5343   0.327  -0.405   6.959 -0.2171 -0.5563 -0.0960
   65SAPC  H17R 5344   0.371  -0.487   6.898  0.4494 -0.3261  0.0687
   65SAPC  H17S 5345   0.412  -0.347   6.998 -0.5501 -0.1309 -0.0013
   65SAPC  C218 5346   0.235  -0.319   6.872 -0.1320 -0.1951 -0.1097
   65SAPC  H18R 5347   0.195  -0.232   6.928 -0.4471  0.1963 -0.9232
   65SAPC  H18S 5348   0.145  -0.379   6.846 -1.2214  0.8642  1.0562
   65SAPC  C219 5349   0.321  -0.271   6.750  0.1361  0.5789  0.3193
   65SAPC  H19R 5350   0.402  -0.220   6.805 -0.8882  0.6053  1.8574
   65SAPC  H19S 5351   0.261  -0.193   6.697 -2.0253 -0.5451  1.0119
   65SAPC  C220 5352   0.373  -0.375   6.654 -0.3798 -0.1267 -0.0105
   65SAPC  H20R 5353   0.293  -0.428   6.597 -1.3126  0.9142  0.2948
   65SAPC  H20S 5354   0.445  -0.445   6.702 -0.7248 -1.3205 -1.1786
   65SAPC  H20T 5355   0.442  -0.328   6.580  0.8127 -0.1585  1.0597
   65SAPC   C33 5356   0.422   0.100   6.877  0.2932  0.0282  0.6841
   65SAPC   H3X 5357   0.418  -0.009   6.857 -0.4982  0.0706  0.5660
   65SAPC   H3Y 5358   0.331   0.160   6.855  0.3147  0.2545  1.1932
   65SAPC   C34 5359   0.434   0.093   7.027 -1.2487  0.1300  0.1488
   65SAPC   H4X 5360   0.461   0.192   7.069 -0.8346  0.6984 -1.3999
   65SAPC   H4Y 5361   0.518   0.027   7.056 -1.2360  0.6779  1.4373
   65SAPC   C35 5362   0.300   0.050   7.076 -0.5136 -0.2020  0.1773
   65SAPC   H5X 5363   0.266  -0.046   7.030  0.2123 -0.6012  0.4686
   65SAPC   H5Y 5364   0.230   0.133   7.051 -0.2276 -0.6165 -2.2131
   65SAPC   C36 5365   0.295   0.037   7.227 -0.2438  0.1215  0.8518
   65SAPC   H6X 5366   0.349   0.125   7.266  0.9157 -0.5946  0.9285
   65SAPC   H6Y 5367   0.350  -0.053   7.261 -1.5109  0.0029  2.7450
   65SAPC   C37 5368   0.163   0.015   7.296  0.7750  1.0008  0.0110
   65SAPC   H7X 5369   0.114  -0.073   7.250  3.4306 -0.7849  0.3952
   65SAPC   H7Y 5370   0.089   0.096   7.276 -0.0265 -0.0133 -1.2768
   65SAPC   C38 5371   0.163  -0.019   7.447 -1.1299 -0.1531 -0.4043
   65SAPC   H8X 5372   0.190   0.076   7.498 -1.9742  0.6505 -1.3969
   65SAPC   H8Y 5373   0.248  -0.085   7.475 -0.3945  1.7048  2.0775
   65SAPC   C39 5374   0.035  -0.075   7.501  0.2359  0.0641  0.1751
   65SAPC   H9X 5375  -0.025  -0.133   7.427 -0.5085 -0.3344  1.0626
   65SAPC   H9Y 5376  -0.038   0.004   7.530 -0.3738 -0.2506 -0.4718
   65SAPC  C310 5377   0.060  -0.170   7.621  0.6692  0.3147  0.0353
   65SAPC  H10X 5378   0.135  -0.119   7.685 -0.8073  1.6787  0.7473
   65SAPC  H10Y 5379   0.097  -0.267   7.580 -1.8874 -1.6886  2.0516
   65SAPC  C311 5380  -0.054  -0.197   7.718 -0.0491  0.2703  0.2265
   65SAPC  H11X 5381  -0.141  -0.237   7.661 -1.2812  2.6724  0.2702
   65SAPC  H11Y 5382  -0.099  -0.102   7.755 -3.4238 -0.9830 -0.3018
   65SAPC  C312 5383  -0.033  -0.301   7.835  0.2636 -0.1083  0.5736
   65SAPC  H12X 5384  -0.018  -0.396   7.779 -0.0439  0.7038 -0.9341
   65SAPC  H12Y 5385  -0.116  -0.300   7.909  0.6527  1.6554  1.0349
   65SAPC  C313 5386   0.081  -0.255   7.920  0.2666  0.4204 -0.0487
   65SAPC  H13X 5387   0.171  -0.221   7.865  0.3553 -2.5095 -1.9769
   65SAPC  H13Y 5388   0.110  -0.348   7.974  0.4506 -0.4675 -1.6121
   65SAPC  C314 5389   0.047  -0.139   8.017  0.3277 -0.3894 -0.1053
   65SAPC  H14X 5390  -0.024  -0.177   8.094 -0.3865  0.5385 -0.2799
   65SAPC  H14Y 5391   0.002  -0.064   7.948  0.3522  0.3760  0.6899
   65SAPC  C315 5392   0.172  -0.075   8.075 -0.5338  0.2712 -0.3656
   65SAPC  H15X 5393   0.155   0.033   8.095  0.1337  0.4572 -0.7587
   65SAPC  H15Y 5394   0.258  -0.072   8.005  0.2329  0.5995  0.5569
   65SAPC  C316 5395   0.233  -0.125   8.209  0.1791 -0.0277 -0.0422
   65SAPC  H16X 5396   0.167  -0.104   8.296  0.9124  0.7970  0.3381
   65SAPC  H16Y 5397   0.330  -0.073   8.229  0.4512 -0.7225  0.4783
   65SAPC  C317 5398   0.282  -0.273   8.195  0.0553 -0.7234  0.3692
   65SAPC  H17X 5399   0.319  -0.292   8.092  1.1447 -0.9476  0.7910
   65SAPC  H17Y 5400   0.186  -0.328   8.205 -0.0194 -0.7283 -0.3412
   65SAPC  C318 5401   0.379  -0.331   8.292  0.3845 -0.1496  0.1922
   65SAPC  H18X 5402   0.412  -0.433   8.264  0.6034  0.3613 -1.5132
   65SAPC  H18Y 5403   0.326  -0.325   8.390 -0.5930  0.6671 -0.3687
   65SAPC  H18Z 5404   0.465  -0.263   8.307  2.4951 -2.8320  1.0966
   66SAPC     N 5405   5.989   0.987   5.830 -0.2199 -0.5282 -0.3484
   66SAPC   C12 5406   5.874   0.989   5.936  0.6510  0.4778 -0.0845
   66SAPC  H12A 5407   5.895   0.921   6.017 -1.6675 -1.0931 -0.7156
   66SAPC  H12B 5408   5.789   0.949   5.883  0.8183  0.6639 -0.4991
   66SAPC   C13 5409   5.957   1.070   5.709  0.5493 -0.3427 -0.1556
   66SAPC  H13A 5410   5.862   1.045   5.665  1.2238 -0.2735 -1.7192
   66SAPC  H13B 5411   5.960   1.175   5.735  1.3143  0.1328 -1.9832
   66SAPC  H13C 5412   6.024   1.070   5.624  0.1859  2.0461 -0.5164
   66SAPC   C14 5413   6.121   1.025   5.893  0.4865 -0.1937  0.2358
   66SAPC  H14A 5414   6.209   1.005   5.833  1.3759 -0.0558  1.4712
   66SAPC  H14B 5415   6.136   1.128   5.921  1.7146  0.0037 -1.0134
   66SAPC  H14C 5416   6.139   0.966   5.982  2.4432 -1.1178 -0.7160
   66SAPC   C15 5417   5.998   0.848   5.790 -0.1588 -0.2594  0.2270
   66SAPC  H15A 5418   5.906   0.810   5.748 -0.5927 -2.4626  2.8678
   66SAPC  H15B 5419   6.075   0.836   5.715  1.8991 -2.0568  2.4741
   66SAPC  H15C 5420   6.021   0.779   5.870 -0.7976 -1.3529 -0.5083
   66SAPC   C11 5421   5.819   1.124   5.981 -0.1384  0.4818 -0.5211
   66SAPC  H11A 5422   5.747   1.088   6.057 -0.5659  0.7242 -0.8132
   66SAPC  H11B 5423   5.765   1.165   5.894  1.7607  0.8719 -1.5567
   66SAPC     P 5424   5.973   1.202   6.191  0.1542  0.2644  0.3380
   66SAPC   O13 5425   5.996   1.059   6.219  0.6860  0.1551  0.2451
   66SAPC   O14 5426   6.091   1.297   6.195 -0.6949  0.4250  0.8498
   66SAPC   O12 5427   5.913   1.216   6.039  0.5861 -0.4515 -0.5346
   66SAPC   O11 5428   5.859   1.255   6.282  0.1880 -0.0044 -0.3855
   66SAPC    C1 5429   5.763   1.357   6.250  0.2166  0.1464 -0.5462
   66SAPC    HA 5430   5.815   1.433   6.187  0.7042  1.1501  1.0114
   66SAPC    HB 5431   5.677   1.307   6.200  1.6436 -1.1216 -1.8575
   66SAPC    C2 5432   5.724   1.435   6.382 -0.3038 -0.4471  0.1278
   66SAPC    HS 5433   5.813   1.449   6.446 -0.5787 -0.6165  0.5531
   66SAPC   O21 5434   5.636   1.348   6.452  0.1556  0.0703 -0.4193
   66SAPC   C21 5435   5.632   1.374   6.585 -0.2974  0.2934  0.0692
   66SAPC   O22 5436   5.713   1.442   6.642  0.3042 -0.6261  0.0122
   66SAPC   C22 5437   5.529   1.280   6.650 -0.3434  0.2522 -0.1093
   66SAPC   H2R 5438   5.431   1.292   6.599  0.1516  2.9750 -0.5606
   66SAPC   H2S 5439   5.567   1.179   6.622 -0.4943 -0.0199  0.6248
   66SAPC    C3 5440   5.663   1.582   6.350 -0.2182 -0.3544  0.1429
   66SAPC    HX 5441   5.564   1.570   6.301 -0.6967 -0.2020  1.0639
   66SAPC    HY 5442   5.728   1.616   6.266  0.7167 -1.2610  0.4820
   66SAPC   O31 5443   5.647   1.664   6.468  0.1296 -0.4681  0.1832
   66SAPC   C31 5444   5.739   1.757   6.478 -0.0084 -0.0058  0.3199
   66SAPC   O32 5445   5.836   1.769   6.403 -0.1518 -0.4707  0.2910
   66SAPC   C32 5446   5.730   1.813   6.621  0.1908  0.7090 -0.0157
   66SAPC   H2X 5447   5.689   1.730   6.683 -1.8549  0.8208 -1.1137
   66SAPC   H2Y 5448   5.656   1.895   6.627 -1.2655 -0.6015  0.8587
   66SAPC   C23 5449   5.526   1.307   6.805  0.0205  0.3138  0.4704
   66SAPC   H3R 5450   5.501   1.415   6.799  3.0036  1.0988  0.7437
   66SAPC   H3S 5451   5.626   1.293   6.850 -1.0455  0.5952  3.0980
   66SAPC   C24 5452   5.423   1.229   6.891 -1.6307 -0.5510 -0.6501
   66SAPC   H4R 5453   5.447   1.121   6.887 -0.2695 -0.3763  1.2578
   66SAPC   H4S 5454   5.324   1.236   6.842 -1.8183  3.5258 -0.0623
   66SAPC   C25 5455   5.428   1.283   7.033 -1.0515  0.1964 -0.0071
   66SAPC   H5R 5456   5.497   1.367   7.050  0.3170  0.1607 -4.2814
   66SAPC   C26 5457   5.373   1.215   7.131  0.1798  0.4488  0.1081
   66SAPC   H6R 5458   5.372   1.258   7.232 -0.8863  1.3869 -0.2751
   66SAPC   C27 5459   5.287   1.088   7.116 -0.2962  0.1369 -0.3067
   66SAPC   H7R 5460   5.268   1.070   7.009  1.6519  1.8888 -1.0080
   66SAPC   H7S 5461   5.184   1.103   7.157 -0.5025  1.4305 -1.2383
   66SAPC   C28 5462   5.359   0.966   7.182  0.3361  0.1367  0.6238
   66SAPC   H8R 5463   5.463   0.966   7.216  1.0593 -1.2568 -1.4001
   66SAPC   C29 5464   5.305   0.844   7.184 -0.3374 -0.2701  0.4464
   66SAPC   H9R 5465   5.374   0.761   7.203  1.0595  0.2638 -1.8127
   66SAPC  C210 5466   5.167   0.803   7.131 -0.3778 -0.1117  0.5659
   66SAPC  H10R 5467   5.179   0.736   7.043 -2.5649  1.1745 -0.7975
   66SAPC  H10S 5468   5.103   0.885   7.092  0.5780  0.5561  0.3638
   66SAPC  C211 5469   5.097   0.709   7.227 -0.3062  0.6857  0.4012
   66SAPC  H11R 5470   5.067   0.613   7.181  0.5718 -0.0118  1.2354
   66SAPC  C212 5471   5.057   0.730   7.358 -0.1882 -0.3592 -0.3321
   66SAPC  H12R 5472   5.015   0.639   7.404 -2.1028 -0.1192 -1.4994
   66SAPC  C213 5473   5.086   0.856   7.443  0.0498  0.3085  0.0012
   66SAPC  H13R 5474   5.137   0.928   7.376 -0.0376 -1.8171 -2.5354
   66SAPC  H13S 5475   5.166   0.829   7.516  0.3825  0.0238 -0.4585
   66SAPC  C214 5476   4.958   0.910   7.506 -0.1438  0.6665 -0.0652
   66SAPC  H14R 5477   4.867   0.855   7.480  1.3532 -2.4770  0.8366
   66SAPC  C215 5478   4.943   1.005   7.599  0.0032  0.0897 -0.0669
   66SAPC  H15R 5479   4.844   1.013   7.646  0.1104  1.7338 -0.0630
   66SAPC  C216 5480   5.054   1.088   7.662  0.7045  0.0674  0.3215
   66SAPC  H16R 5481   5.025   1.195   7.652 -2.5433 -0.6598  0.7265
   66SAPC  H16S 5482   5.141   1.076   7.594  0.3803 -0.8481  0.0458
   66SAPC  C217 5483   5.106   1.053   7.800 -0.4453  0.3527 -0.3147
   66SAPC  H17R 5484   5.197   1.116   7.809 -2.2128  3.1254 -0.5637
   66SAPC  H17S 5485   5.143   0.949   7.804  0.7916  0.7974  0.4047
   66SAPC  C218 5486   5.019   1.095   7.917 -0.2484  0.1980 -0.5895
   66SAPC  H18R 5487   4.925   1.037   7.904 -0.7021  0.9468 -0.6814
   66SAPC  H18S 5488   4.995   1.201   7.899 -2.5576 -0.1934 -0.0962
   66SAPC  C219 5489   5.080   1.086   8.055 -0.6819  0.2346 -0.1669
   66SAPC  H19R 5490   5.023   1.125   8.142  1.5936  0.1091  1.5057
   66SAPC  H19S 5491   5.179   1.136   8.056  0.0269 -1.0777  1.6404
   66SAPC  C220 5492   5.125   0.937   8.094  0.9120 -0.0493  0.1800
   66SAPC  H20R 5493   5.038   0.869   8.085  2.9103 -2.9800  1.4496
   66SAPC  H20S 5494   5.148   0.946   8.203 -0.0310 -0.3500  0.4110
   66SAPC  H20T 5495   5.208   0.913   8.024 -0.2372 -0.0631 -1.2109
   66SAPC   C33 5496   5.864   1.864   6.686 -0.1674 -0.3014  0.1430
   66SAPC   H3X 5497   5.878   1.968   6.648 -2.1872  0.2571  0.7739
   66SAPC   H3Y 5498   5.953   1.807   6.652  1.4681  0.5753  2.6453
   66SAPC   C34 5499   5.868   1.856   6.840  0.1518 -0.5132 -0.2683
   66SAPC   H4X 5500   5.868   1.750   6.876  1.0113  0.0423  1.4655
   66SAPC   H4Y 5501   5.779   1.910   6.877  0.8120  2.4953 -2.6799
   66SAPC   C35 5502   5.990   1.931   6.892  0.6278 -0.0972  0.2317
   66SAPC   H5X 5503   5.959   2.036   6.870 -0.5545 -0.6087 -0.6961
   66SAPC   H5Y 5504   6.076   1.895   6.832  0.6392 -0.2220  0.3236
   66SAPC   C36 5505   6.023   1.904   7.038 -0.0393 -0.3724 -0.3837
   66SAPC   H6X 5506   6.091   1.981   7.081 -1.8069 -0.5052  2.9359
   66SAPC   H6Y 5507   6.058   1.799   7.048  1.1928  0.0456 -0.1211
   66SAPC   C37 5508   5.904   1.907   7.135  0.2754  0.2068  0.4635
   66SAPC   H7X 5509   5.831   1.830   7.102  2.5589 -2.0470  0.3276
   66SAPC   H7Y 5510   5.850   2.004   7.131 -0.0367  0.0023 -1.3049
   66SAPC   C38 5511   5.950   1.882   7.278  0.7286  0.6528  0.5160
   66SAPC   H8X 5512   5.978   1.985   7.310 -0.8371  1.3897 -0.3935
   66SAPC   H8Y 5513   6.039   1.816   7.276  0.3478 -0.0817 -4.4438
   66SAPC   C39 5514   5.841   1.811   7.356 -0.3396 -0.2349 -0.2159
   66SAPC   H9X 5515   5.799   1.720   7.307 -1.3268 -1.1302  2.1568
   66SAPC   H9Y 5516   5.759   1.883   7.372 -1.4622 -1.1405 -1.5994
   66SAPC  C310 5517   5.888   1.761   7.494 -0.0317 -0.5037 -0.0192
   66SAPC  H10X 5518   5.806   1.749   7.567 -0.3077  2.9892  0.4363
   66SAPC  H10Y 5519   5.942   1.849   7.536 -0.1491 -0.0384 -0.8200
   66SAPC  C311 5520   5.976   1.639   7.495 -0.0101 -0.3171 -0.3036
   66SAPC  H11X 5521   6.074   1.658   7.446  1.6471 -0.8523  2.5685
   66SAPC  H11Y 5522   5.915   1.566   7.439 -2.2942  0.9437  0.4111
   66SAPC  C312 5523   6.007   1.585   7.644  0.3803  0.4989  0.0479
   66SAPC  H12X 5524   6.069   1.493   7.639 -0.2717  0.0743 -0.5581
   66SAPC  H12Y 5525   5.918   1.552   7.701  0.6206 -0.6183 -0.2008
   66SAPC  C313 5526   6.085   1.687   7.724  0.1044 -0.0194 -0.8668
   66SAPC  H13X 5527   6.025   1.780   7.731  1.6929  1.4355 -4.1297
   66SAPC  H13Y 5528   6.179   1.719   7.674  0.7936 -0.2925  0.2256
   66SAPC  C314 5529   6.118   1.633   7.865  0.6039 -0.1324  0.5652
   66SAPC  H14X 5530   6.201   1.561   7.849  2.2343  1.3857  1.9088
   66SAPC  H14Y 5531   6.026   1.589   7.911  1.2492  0.5563  2.6241
   66SAPC  C315 5532   6.152   1.744   7.973  0.2596  0.5661  0.0142
   66SAPC  H15X 5533   6.056   1.770   8.021  0.3988  2.6670 -0.7201
   66SAPC  H15Y 5534   6.202   1.830   7.922  1.2626 -1.6552 -3.0810
   66SAPC  C316 5535   6.238   1.677   8.079 -0.7967 -0.7620 -1.1344
   66SAPC  H16X 5536   6.329   1.650   8.021  0.0499  1.1820 -0.7647
   66SAPC  H16Y 5537   6.182   1.595   8.129 -0.2446  0.3905  1.5401
   66SAPC  C317 5538   6.274   1.769   8.194  0.7518  0.5176  0.1734
   66SAPC  H17X 5539   6.184   1.774   8.258 -1.1483  0.1085 -2.3128
   66SAPC  H17Y 5540   6.301   1.873   8.165 -1.2879  1.3691  1.1247
   66SAPC  C318 5541   6.383   1.729   8.285 -0.0117  0.8245  0.0322
   66SAPC  H18X 5542   6.371   1.628   8.330 -2.0486  1.1089  0.2428
   66SAPC  H18Y 5543   6.379   1.794   8.375 -2.2494 -1.7500  1.9555
   66SAPC  H18Z 5544   6.487   1.737   8.247  0.6318 -2.8521  0.6246
   67SAPC     N 5545   1.517   2.909   6.242  0.3238  0.0574 -0.0252
   67SAPC   C12 5546   1.559   2.853   6.376 -0.3084 -0.4458  0.0007
   67SAPC  H12A 5547   1.615   2.931   6.426 -0.8912 -0.0577  0.0665
   67SAPC  H12B 5548   1.621   2.769   6.347  0.2996  0.3619 -1.1018
   67SAPC   C13 5549   1.463   2.805   6.149  0.7906  0.4410  0.5190
   67SAPC  H13A 5550   1.398   2.734   6.199  1.7477 -1.4646 -0.8050
   67SAPC  H13B 5551   1.425   2.844   6.055  0.3980 -1.2815 -0.0938
   67SAPC  H13C 5552   1.547   2.752   6.106 -0.5013 -0.2250 -1.3772
   67SAPC   C14 5553   1.404   3.012   6.263  0.0196 -0.2917  0.7177
   67SAPC  H14A 5554   1.434   3.096   6.323 -0.2063  1.1324 -1.0704
   67SAPC  H14B 5555   1.370   3.035   6.163 -0.9218  0.2914  1.1532
   67SAPC  H14C 5556   1.318   2.983   6.322 -1.0050 -0.0001 -0.5879
   67SAPC   C15 5557   1.639   2.972   6.176  0.0309 -0.3059 -0.3830
   67SAPC  H15A 5558   1.613   2.989   6.073  0.9350 -0.1539 -0.5930
   67SAPC  H15B 5559   1.661   3.065   6.226 -0.1928 -1.8659  2.9418
   67SAPC  H15C 5560   1.725   2.907   6.177 -1.2338 -2.0549  0.6085
   67SAPC   C11 5561   1.455   2.798   6.475  0.4223  0.3498 -0.3643
   67SAPC  H11A 5562   1.381   2.878   6.493  3.1127  2.9141  0.1230
   67SAPC  H11B 5563   1.500   2.782   6.576  0.8420  1.6640 -0.3199
   67SAPC     P 5564   1.257   2.636   6.403  0.5528 -0.1676 -0.1171
   67SAPC   O13 5565   1.199   2.719   6.295 -0.4039  0.0833  0.8809
   67SAPC   O14 5566   1.240   2.490   6.390 -0.1351 -0.3191  0.6761
   67SAPC   O12 5567   1.403   2.677   6.424 -0.3650 -0.4682  0.0307
   67SAPC   O11 5568   1.199   2.684   6.541 -0.4668  1.0758  0.0952
   67SAPC    C1 5569   1.210   2.609   6.660  0.1588  0.0056  0.4606
   67SAPC    HA 5570   1.126   2.538   6.682  1.1769 -2.0189 -1.7006
   67SAPC    HB 5571   1.301   2.546   6.650 -0.2064 -0.4784  0.0914
   67SAPC    C2 5572   1.235   2.694   6.785  0.0801 -1.0749  0.0010
   67SAPC    HS 5573   1.334   2.743   6.778 -1.2726  2.7492  3.7579
   67SAPC   O21 5574   1.226   2.611   6.896 -0.1828  0.0788 -0.7915
   67SAPC   C21 5575   1.344   2.547   6.920 -0.0340 -0.7978 -0.5321
   67SAPC   O22 5576   1.446   2.565   6.856  0.1051 -0.0229  0.3204
   67SAPC   C22 5577   1.334   2.457   7.043  0.1514  0.1799  0.5992
   67SAPC   H2R 5578   1.348   2.525   7.130 -0.7884 -0.1789  1.0432
   67SAPC   H2S 5579   1.232   2.415   7.044 -0.2125  1.0571  1.6782
   67SAPC    C3 5580   1.130   2.809   6.800 -0.2430  0.4192 -0.0625
   67SAPC    HX 5581   1.033   2.759   6.778 -0.3589  0.3789  0.5136
   67SAPC    HY 5582   1.143   2.886   6.722  1.3872 -1.0107 -1.2872
   67SAPC   O31 5583   1.129   2.868   6.936  0.0450  0.1456  0.0169
   67SAPC   C31 5584   1.033   2.846   7.014  0.1585 -0.3046 -0.3524
   67SAPC   O32 5585   0.925   2.796   6.988  0.1078  0.4196  0.2136
   67SAPC   C32 5586   1.072   2.902   7.153 -0.8980  0.5607 -1.0693
   67SAPC   H2X 5587   1.037   3.007   7.147  0.9825  1.1882 -1.9038
   67SAPC   H2Y 5588   1.183   2.896   7.162 -0.9152  0.1746 -1.0893
   67SAPC   C23 5589   1.443   2.342   7.042 -0.0016  0.1847 -0.4187
   67SAPC   H3R 5590   1.476   2.328   7.147 -0.8953 -2.0663 -0.3695
   67SAPC   H3S 5591   1.541   2.357   6.991  1.1799 -1.3393  1.2554
   67SAPC   C24 5592   1.384   2.206   7.003  0.8550  0.3781 -0.8321
   67SAPC   H4R 5593   1.331   2.229   6.908  1.3725  0.9805 -0.9774
   67SAPC   H4S 5594   1.316   2.181   7.088 -1.3103  2.0360 -1.9662
   67SAPC   C25 5595   1.473   2.086   6.987 -0.4250 -0.6052 -0.4993
   67SAPC   H5R 5596   1.518   2.092   6.887  0.4116 -0.8011 -0.1415
   67SAPC   C26 5597   1.510   1.998   7.086  0.0783 -0.2100 -0.5167
   67SAPC   H6R 5598   1.576   1.916   7.055  0.0617 -0.1902 -0.6051
   67SAPC   C27 5599   1.468   1.990   7.233  0.6509  0.1135 -0.3666
   67SAPC   H7R 5600   1.487   2.088   7.282  0.1248 -0.6597  1.4760
   67SAPC   H7S 5601   1.536   1.919   7.284 -1.4726 -0.5315  1.7955
   67SAPC   C28 5602   1.330   1.931   7.269  0.1228  0.0211  0.6447
   67SAPC   H8R 5603   1.299   1.844   7.209  0.5557 -1.1787  2.0989
   67SAPC   C29 5604   1.246   1.975   7.360  0.0033 -0.3417 -0.0145
   67SAPC   H9R 5605   1.154   1.916   7.374 -0.4874  0.0090 -1.5560
   67SAPC  C210 5606   1.257   2.103   7.445  0.2257 -0.0314 -0.1479
   67SAPC  H10R 5607   1.358   2.109   7.490  0.2605 -0.6353 -0.1375
   67SAPC  H10S 5608   1.207   2.074   7.539  0.0206 -4.7727 -1.4525
   67SAPC  C211 5609   1.236   2.239   7.380  1.1147 -1.0743  0.8891
   67SAPC  H11R 5610   1.259   2.253   7.273  0.5521  0.6234  0.9595
   67SAPC  C212 5611   1.188   2.355   7.438 -0.8687  0.0921  0.2678
   67SAPC  H12R 5612   1.171   2.445   7.377  0.3530  0.6442  0.7071
   67SAPC  C213 5613   1.152   2.362   7.590  0.4621  0.4024  0.7360
   67SAPC  H13R 5614   1.195   2.269   7.635 -0.8997 -0.1406  0.9553
   67SAPC  H13S 5615   1.042   2.351   7.586  0.1069  2.9288  2.1880
   67SAPC  C214 5616   1.174   2.494   7.655  0.3843 -0.1545  0.6162
   67SAPC  H14R 5617   1.092   2.535   7.716 -0.3233 -1.4483  0.5620
   67SAPC  C215 5618   1.273   2.580   7.640 -0.1699 -0.3466  0.2031
   67SAPC  H15R 5619   1.253   2.679   7.684 -2.9921 -0.6964 -0.1409
   67SAPC  C216 5620   1.395   2.572   7.549 -0.0203 -0.2905 -1.0996
   67SAPC  H16R 5621   1.413   2.473   7.502 -0.8933 -0.0803 -1.9153
   67SAPC  H16S 5622   1.487   2.598   7.606 -0.4946  0.9901 -0.8864
   67SAPC  C217 5623   1.389   2.679   7.436 -0.0873 -0.4309 -0.8798
   67SAPC  H17R 5624   1.377   2.779   7.484  1.4542 -0.4354 -0.4284
   67SAPC  H17S 5625   1.297   2.666   7.377 -2.3133  2.2870  1.6599
   67SAPC  C218 5626   1.509   2.676   7.349 -0.0769 -0.0874  0.4698
   67SAPC  H18R 5627   1.534   2.578   7.305 -1.2946 -0.8605  1.4182
   67SAPC  H18S 5628   1.601   2.711   7.400 -1.2506  0.4426  2.3454
   67SAPC  C219 5629   1.483   2.764   7.227 -0.4239  0.0174  0.2965
   67SAPC  H19R 5630   1.467   2.869   7.257 -3.2296  0.8087 -3.2130
   67SAPC  H19S 5631   1.389   2.729   7.178  1.4442 -2.4896 -1.7794
   67SAPC  C220 5632   1.601   2.753   7.129 -0.0866 -0.6045  0.1582
   67SAPC  H20R 5633   1.574   2.816   7.041  1.0482  0.7132  0.7129
   67SAPC  H20S 5634   1.614   2.647   7.101 -1.1853 -0.8779  0.6074
   67SAPC  H20T 5635   1.685   2.787   7.192 -0.9579 -0.7434  1.4276
   67SAPC   C33 5636   0.999   2.838   7.273  1.8617  0.3312  0.6882
   67SAPC   H3X 5637   1.022   2.730   7.268  1.1012  0.2202 -0.8117
   67SAPC   H3Y 5638   0.889   2.847   7.266  2.0802  3.4202 -0.5966
   67SAPC   C34 5639   1.044   2.886   7.404  0.1585 -0.1850 -0.0234
   67SAPC   H4X 5640   1.006   2.991   7.404 -0.5216 -0.4202 -0.5839
   67SAPC   H4Y 5641   1.154   2.884   7.420 -0.0228  1.0304  1.6198
   67SAPC   C35 5642   0.969   2.823   7.518 -0.4955  0.7227 -0.1510
   67SAPC   H5X 5643   0.994   2.715   7.524  0.8413  0.9546 -1.0784
   67SAPC   H5Y 5644   0.860   2.831   7.496 -0.3193 -0.2873 -1.5606
   67SAPC   C36 5645   0.990   2.890   7.653 -0.5087 -0.2424 -0.4335
   67SAPC   H6X 5646   0.964   2.998   7.646  0.0030 -0.1499 -0.9342
   67SAPC   H6Y 5647   1.099   2.887   7.674 -0.9377  0.6837  2.3463
   67SAPC   C37 5648   0.913   2.825   7.769 -0.4590  0.3783 -0.2699
   67SAPC   H7X 5649   0.920   2.715   7.760 -0.5546  0.2722  0.7612
   67SAPC   H7Y 5650   0.808   2.837   7.734 -0.5927 -0.6254 -0.2222
   67SAPC   C38 5651   0.937   2.880   7.909  0.0459  0.1723 -0.0041
   67SAPC   H8X 5652   0.895   2.982   7.901  0.1600  0.1887 -0.4262
   67SAPC   H8Y 5653   1.046   2.887   7.929  0.0204  1.9283 -0.3509
   67SAPC   C39 5654   0.851   2.806   8.015 -0.2308 -0.2022 -0.1213
   67SAPC   H9X 5655   0.867   2.696   8.012 -0.9157 -0.3248  0.5618
   67SAPC   H9Y 5656   0.743   2.824   7.997 -0.3668 -2.0719 -1.5088
   67SAPC  C310 5657   0.906   2.849   8.151  0.5746 -0.9926 -0.3994
   67SAPC  H10X 5658   1.013   2.818   8.151  0.6423 -0.9588  1.9384
   67SAPC  H10Y 5659   0.857   2.794   8.234  0.1207  0.4077  0.2828
   67SAPC  C311 5660   0.905   2.999   8.177  0.0995 -0.2233  0.3362
   67SAPC  H11X 5661   0.951   3.049   8.089 -2.1760  0.8944 -0.3029
   67SAPC  H11Y 5662   0.951   3.038   8.270 -0.2867  1.4056 -0.1238
   67SAPC  C312 5663   0.755   3.040   8.192  0.1461 -0.2742 -0.0312
   67SAPC  H12X 5664   0.697   3.009   8.102  0.6402 -1.3457  0.0107
   67SAPC  H12Y 5665   0.756   3.151   8.188  0.2242 -0.3010 -2.3951
   67SAPC  C313 5666   0.683   3.024   8.333  0.0992  0.2725 -0.0488
   67SAPC  H13X 5667   0.740   3.070   8.416 -2.4415  0.0979  1.9093
   67SAPC  H13Y 5668   0.680   2.914   8.351 -1.3499  0.4451  0.8590
   67SAPC  C314 5669   0.538   3.073   8.329  0.1847  0.5770 -0.3260
   67SAPC  H14X 5670   0.487   3.008   8.254 -1.2852  1.1813  0.1300
   67SAPC  H14Y 5671   0.531   3.175   8.285  0.5767  1.3607  1.3705
   67SAPC  C315 5672   0.474   3.061   8.470  0.1334  0.2590 -0.3632
   67SAPC  H15X 5673   0.543   3.116   8.537  0.4918 -1.8414  1.0722
   67SAPC  H15Y 5674   0.473   2.955   8.503 -1.2643  0.2596 -0.3656
   67SAPC  C316 5675   0.336   3.126   8.478 -0.1857 -0.9215 -0.0835
   67SAPC  H16X 5676   0.256   3.059   8.439  0.7424 -1.7956 -0.5519
   67SAPC  H16Y 5677   0.337   3.210   8.405  0.6124 -1.4150 -0.6518
   67SAPC  C317 5678   0.301   3.174   8.613  0.2060 -0.2481 -0.1332
   67SAPC  H17X 5679   0.387   3.181   8.683  0.7700 -0.0307 -0.8334
   67SAPC  H17Y 5680   0.230   3.108   8.666 -0.5508  1.4005  0.9969
   67SAPC  C318 5681   0.248   3.317   8.616  0.1738 -0.1714 -0.0273
   67SAPC  H18X 5682   0.141   3.324   8.587  0.5550  0.7730 -1.2752
   67SAPC  H18Y 5683   0.316   3.382   8.556  0.0270  0.8037  0.8414
   67SAPC  H18Z 5684   0.258   3.356   8.720  1.2472 -2.0069  0.6036
   68SAPC     N 5685   5.689   3.287   6.068 -0.2642  0.1816 -0.5869
   68SAPC   C12 5686   5.669   3.220   6.202  0.1218  0.0828  0.1384
   68SAPC  H12A 5687   5.563   3.205   6.211  0.4550 -1.0324  3.1661
   68SAPC  H12B 5688   5.699   3.293   6.275  0.6485  0.8234 -0.7936
   68SAPC   C13 5689   5.832   3.321   6.044 -0.5580  0.2650  0.4386
   68SAPC  H13A 5690   5.848   3.365   5.946  1.7231  0.2073  0.7194
   68SAPC  H13B 5691   5.868   3.394   6.115 -0.7455 -1.4201  2.3421
   68SAPC  H13C 5692   5.901   3.238   6.051  0.5177  0.9810 -1.0862
   68SAPC   C14 5693   5.628   3.215   5.956 -0.2343  0.4372  0.6646
   68SAPC  H14A 5694   5.635   3.271   5.863 -3.3944  1.6215  1.0027
   68SAPC  H14B 5695   5.679   3.121   5.942  0.4739  0.5968  2.0631
   68SAPC  H14C 5696   5.522   3.198   5.969  0.2081 -1.8985  1.7849
   68SAPC   C15 5697   5.624   3.415   6.083  0.3420 -1.0538 -1.6303
   68SAPC  H15A 5698   5.517   3.400   6.081  0.0990  0.3653 -0.7176
   68SAPC  H15B 5699   5.649   3.473   6.170 -1.6923 -1.5810 -0.6385
   68SAPC  H15C 5700   5.646   3.473   5.994  0.8832 -0.9321 -1.4229
   68SAPC   C11 5701   5.730   3.079   6.230 -0.1928  0.2556  0.2469
   68SAPC  H11A 5702   5.737   3.064   6.340  0.9503 -0.5741  0.0754
   68SAPC  H11B 5703   5.833   3.080   6.188 -0.5965  1.0761 -0.7716
   68SAPC     P 5704   5.519   2.915   6.236  0.2637 -0.0446 -0.1820
   68SAPC   O13 5705   5.422   3.021   6.274 -0.3954  0.0717 -0.2445
   68SAPC   O14 5706   5.469   2.830   6.122  0.0823  1.0166  0.8075
   68SAPC   O12 5707   5.653   2.976   6.172 -0.2691  0.2958  0.4109
   68SAPC   O11 5708   5.568   2.831   6.368 -0.4595 -0.0577 -0.1387
   68SAPC    C1 5709   5.687   2.752   6.368  0.6991  0.2996  0.2212
   68SAPC    HA 5710   5.679   2.675   6.288 -1.7720 -1.2490  1.8019
   68SAPC    HB 5711   5.774   2.819   6.351  2.7439 -2.5391 -1.2350
   68SAPC    C2 5712   5.690   2.688   6.501  0.2223  0.0252 -0.1692
   68SAPC    HS 5713   5.601   2.623   6.513 -0.3502  0.4373 -1.8896
   68SAPC   O21 5714   5.695   2.778   6.606  0.2019 -0.1037 -0.3371
   68SAPC   C21 5715   5.649   2.728   6.724  0.4085  0.3099  0.5328
   68SAPC   O22 5716   5.589   2.628   6.735 -0.6911  0.1489 -0.1500
   68SAPC   C22 5717   5.702   2.811   6.839 -0.4544  0.1483  0.3271
   68SAPC   H2R 5718   5.811   2.788   6.839 -0.9517 -2.5576 -0.3341
   68SAPC   H2S 5719   5.691   2.919   6.819  1.7879  0.8535  2.3852
   68SAPC    C3 5720   5.815   2.590   6.504  0.3153  0.1009  0.3232
   68SAPC    HX 5721   5.897   2.666   6.509 -1.1448  1.8148 -0.7113
   68SAPC    HY 5722   5.815   2.540   6.405 -0.4878  1.9935 -0.6781
   68SAPC   O31 5723   5.834   2.510   6.621  0.5601  0.0424  0.1840
   68SAPC   C31 5724   5.797   2.382   6.597 -0.2285  0.4330 -0.2537
   68SAPC   O32 5725   5.752   2.344   6.489 -0.1211 -0.2970 -0.3015
   68SAPC   C32 5726   5.818   2.290   6.717 -0.3048 -0.4686  0.1269
   68SAPC   H2X 5727   5.909   2.320   6.774 -0.3471 -3.4280  1.9546
   68SAPC   H2Y 5728   5.827   2.191   6.668  1.4850  1.5015 -4.0953
   68SAPC   C23 5729   5.638   2.776   6.977  0.7417 -0.5004 -0.9454
   68SAPC   H3R 5730   5.528   2.773   6.962  1.0853 -0.1353 -4.5060
   68SAPC   H3S 5731   5.669   2.862   7.041 -2.4165  0.3682 -0.4262
   68SAPC   C24 5732   5.672   2.642   7.041  0.2011  0.2243  0.6033
   68SAPC   H4R 5733   5.649   2.555   6.975  3.4690 -1.2544  1.2299
   68SAPC   H4S 5734   5.614   2.620   7.133  2.1988 -0.0672  1.8564
   68SAPC   C25 5735   5.826   2.638   7.058  0.5298  0.2401  0.2973
   68SAPC   H5R 5736   5.884   2.617   6.967  2.8191 -0.0184  1.7367
   68SAPC   C26 5737   5.900   2.648   7.175  0.7513  0.2500 -0.3327
   68SAPC   H6R 5738   6.010   2.647   7.176  0.7684 -0.1988 -1.3654
   68SAPC   C27 5739   5.816   2.661   7.300 -0.2453  1.2741 -0.2984
   68SAPC   H7R 5740   5.872   2.627   7.389 -1.2790 -0.9712 -0.4220
   68SAPC   H7S 5741   5.728   2.593   7.304 -0.2925  1.3908  0.7147
   68SAPC   C28 5742   5.774   2.800   7.323  0.3670 -0.4551  0.6032
   68SAPC   H8R 5743   5.678   2.819   7.273  0.5952  3.0325  1.2640
   68SAPC   C29 5744   5.835   2.899   7.400  0.0290  0.1151  0.8229
   68SAPC   H9R 5745   5.809   3.006   7.410  4.3385  1.4990 -0.4233
   68SAPC  C210 5746   5.963   2.873   7.476  0.2606  0.3514 -0.1225
   68SAPC  H10R 5747   6.048   2.935   7.439 -0.5639  1.6031  0.0126
   68SAPC  H10S 5748   5.995   2.767   7.469 -0.5842  0.1828 -2.1534
   68SAPC  C211 5749   5.922   2.913   7.619  0.0569  0.5380  0.7724
   68SAPC  H11R 5750   5.940   3.018   7.643 -2.9982  1.2403  0.4042
   68SAPC  C212 5751   5.885   2.836   7.723 -0.0055 -0.0100  0.1201
   68SAPC  H12R 5752   5.855   2.887   7.816 -0.2652 -0.7429  0.4504
   68SAPC  C213 5753   5.868   2.683   7.711  0.9259 -0.8872 -0.3198
   68SAPC  H13R 5754   5.930   2.621   7.779  0.4230 -1.2035 -0.1463
   68SAPC  H13S 5755   5.893   2.644   7.610 -0.4810  0.8154 -1.4103
   68SAPC  C214 5756   5.721   2.650   7.741 -0.4527 -0.2373  0.6351
   68SAPC  H14R 5757   5.658   2.669   7.653 -1.3031 -2.7031  0.6243
   68SAPC  C215 5758   5.665   2.596   7.845 -0.5492  0.0876  0.0247
   68SAPC  H15R 5759   5.558   2.570   7.842 -1.0031  1.8644 -2.6694
   68SAPC  C216 5760   5.730   2.556   7.977 -0.2027 -0.2835 -0.1287
   68SAPC  H16R 5761   5.797   2.631   8.024 -1.6754  1.3946 -0.5768
   68SAPC  H16S 5762   5.785   2.460   7.964 -1.5254 -0.8366 -2.0742
   68SAPC  C217 5763   5.624   2.522   8.089 -0.6716 -0.1773 -0.1521
   68SAPC  H17R 5764   5.572   2.612   8.129  2.8911  1.3820  1.4941
   68SAPC  H17S 5765   5.681   2.495   8.181 -0.8810 -0.2896 -0.0565
   68SAPC  C218 5766   5.524   2.403   8.064 -0.2371  0.5019 -0.3198
   68SAPC  H18R 5767   5.435   2.444   8.011 -0.6119  1.1972  0.8298
   68SAPC  H18S 5768   5.481   2.391   8.165  0.4196 -1.2924 -0.2217
   68SAPC  C219 5769   5.586   2.273   8.019  1.0268 -1.0593 -0.0828
   68SAPC  H19R 5770   5.667   2.240   8.088 -0.9833 -3.4257  1.3305
   68SAPC  H19S 5771   5.638   2.286   7.921  0.2290 -1.5250 -0.5835
   68SAPC  C220 5772   5.474   2.165   8.007 -0.3769 -0.5212  0.9860
   68SAPC  H20R 5773   5.436   2.144   8.110  0.7211 -0.8410  1.3385
   68SAPC  H20S 5774   5.522   2.072   7.972 -0.0017  0.3336 -0.8633
   68SAPC  H20T 5775   5.399   2.216   7.942  3.0395  0.8228 -2.2381
   68SAPC   C33 5776   5.703   2.296   6.821  0.0998  0.0934  0.3880
   68SAPC   H3X 5777   5.632   2.221   6.782  0.6596  0.0883 -0.6772
   68SAPC   H3Y 5778   5.658   2.397   6.814  0.5509  0.1936 -1.8577
   68SAPC   C34 5779   5.748   2.261   6.962 -0.1954 -0.0864 -0.5722
   68SAPC   H4X 5780   5.831   2.326   6.999  0.3004 -0.9464 -0.1471
   68SAPC   H4Y 5781   5.795   2.160   6.965  3.7227  1.5413 -0.5098
   68SAPC   C35 5782   5.629   2.264   7.054  0.1341  0.2962 -0.8697
   68SAPC   H5X 5783   5.563   2.175   7.042 -1.2903  1.3360 -1.0064
   68SAPC   H5Y 5784   5.561   2.346   7.024  1.4418  1.7979  0.1598
   68SAPC   C36 5785   5.676   2.278   7.204 -0.0094  0.0364 -0.3216
   68SAPC   H6X 5786   5.747   2.363   7.211  0.9800 -0.5952 -1.9257
   68SAPC   H6Y 5787   5.723   2.183   7.239 -0.5460 -0.2926 -0.4803
   68SAPC   C37 5788   5.561   2.309   7.298  0.1406 -0.1722 -0.6158
   68SAPC   H7X 5789   5.487   2.231   7.270 -0.4995  0.4407 -0.6345
   68SAPC   H7Y 5790   5.514   2.405   7.268  0.6683 -0.1333 -1.3557
   68SAPC   C38 5791   5.606   2.311   7.449 -0.3670  0.5201 -0.5909
   68SAPC   H8X 5792   5.541   2.370   7.517  2.6120  0.5653  2.4380
   68SAPC   H8Y 5793   5.702   2.366   7.447  0.1524 -0.3834 -1.6006
   68SAPC   C39 5794   5.621   2.166   7.512  0.0561 -0.7985 -0.2479
   68SAPC   H9X 5795   5.698   2.105   7.459  0.7397 -1.1567  1.1014
   68SAPC   H9Y 5796   5.525   2.112   7.496  1.3758 -2.7628 -2.1309
   68SAPC  C310 5797   5.648   2.174   7.659 -0.0891  0.4159 -0.3570
   68SAPC  H10X 5798   5.550   2.191   7.709 -0.2518  0.1911 -0.5962
   68SAPC  H10Y 5799   5.721   2.251   7.691  1.7557 -1.7227  0.7605
   68SAPC  C311 5800   5.713   2.050   7.716  0.6311  0.2758 -0.2430
   68SAPC  H11X 5801   5.759   2.071   7.815  0.3552  3.1067 -0.6485
   68SAPC  H11Y 5802   5.806   2.019   7.663  1.1464 -0.9146  1.2861
   68SAPC  C312 5803   5.627   1.921   7.721 -0.2690 -0.7013  0.5584
   68SAPC  H12X 5804   5.613   1.890   7.615  2.3004 -1.4388  0.3614
   68SAPC  H12Y 5805   5.519   1.931   7.747 -0.5593 -1.7746 -0.1610
   68SAPC  C313 5806   5.683   1.809   7.798  0.1228  0.2249 -0.7569
   68SAPC  H13X 5807   5.790   1.799   7.771  0.4754 -2.1693  1.1816
   68SAPC  H13Y 5808   5.628   1.717   7.771  0.9691 -0.5174 -0.0015
   68SAPC  C314 5809   5.659   1.809   7.949 -0.3332  0.5598  0.1492
   68SAPC  H14X 5810   5.552   1.822   7.974 -0.4058  2.1022 -0.8200
   68SAPC  H14Y 5811   5.725   1.888   7.992  0.2716 -0.2680  0.7729
   68SAPC  C315 5812   5.702   1.668   8.016  0.0605 -0.0889  0.2848
   68SAPC  H15X 5813   5.808   1.642   7.994  0.7514  2.2165  0.5905
   68SAPC  H15Y 5814   5.628   1.594   7.981  0.2632 -1.1216  1.9274
   68SAPC  C316 5815   5.673   1.662   8.165 -0.0595  0.2037 -0.0809
   68SAPC  H16X 5816   5.563   1.656   8.178 -0.3282  0.6265 -1.8847
   68SAPC  H16Y 5817   5.718   1.759   8.193  0.3015  0.1775 -0.5510
   68SAPC  C317 5818   5.751   1.552   8.236 -0.4392  0.0180  0.3323
   68SAPC  H17X 5819   5.855   1.539   8.198 -0.9218  3.0857 -2.5084
   68SAPC  H17Y 5820   5.693   1.457   8.229 -0.6279  0.1923 -0.6096
   68SAPC  C318 5821   5.768   1.579   8.388  0.2526 -0.7687  0.0256
   68SAPC  H18X 5822   5.668   1.595   8.434  0.1321 -0.8486 -0.2054
   68SAPC  H18Y 5823   5.828   1.666   8.419 -0.6562 -0.4226  0.8736
   68SAPC  H18Z 5824   5.820   1.495   8.439  1.7598  0.4163  0.5012
   69SLPC     N 5825   4.237   3.153  11.337 -0.0958 -0.1770  0.1054
   69SLPC   C13 5826   4.298   3.179  11.474 -0.1517 -0.2348  0.8060
   69SLPC  H13A 5827   4.380   3.113  11.497 -0.6747 -2.1293 -2.1869
   69SLPC  H13B 5828   4.312   3.281  11.506 -1.6284  0.1306  0.4026
   69SLPC  H13C 5829   4.232   3.137  11.548  1.3479 -1.5735  1.4378
   69SLPC   C14 5830   4.108   3.218  11.347  0.2787  0.3710 -0.5939
   69SLPC  H14A 5831   4.116   3.324  11.368  0.6892 -0.1677  2.3372
   69SLPC  H14B 5832   4.053   3.205  11.255  0.3569  0.4311 -0.6491
   69SLPC  H14C 5833   4.053   3.171  11.427  1.2157  0.5564  0.1885
   69SLPC   C15 5834   4.218   3.007  11.322 -0.0016 -0.2510 -0.0278
   69SLPC  H15A 5835   4.182   2.987  11.222 -0.9796  1.0409  0.0313
   69SLPC  H15B 5836   4.319   2.969  11.320 -1.1712 -3.7298 -0.5807
   69SLPC  H15C 5837   4.145   2.974  11.394 -1.4192  0.7402 -0.9288
   69SLPC   C12 5838   4.337   3.213  11.236 -0.3223 -0.2579  0.3729
   69SLPC  H12A 5839   4.438   3.181  11.253 -0.0377  1.8742  3.4185
   69SLPC  H12B 5840   4.335   3.320  11.248  0.1776  0.2669 -3.1322
   69SLPC   C11 5841   4.305   3.181  11.093 -0.0019 -0.2462  0.7658
   69SLPC  H11A 5842   4.336   3.076  11.076 -2.7747 -1.2734  1.5689
   69SLPC  H11B 5843   4.373   3.241  11.029  1.9695 -1.7455  1.3375
   69SLPC     P 5844   4.106   3.330  10.991  0.1966  0.0196 -0.1764
   69SLPC   O13 5845   3.960   3.305  10.996 -0.1564  0.0421 -0.7852
   69SLPC   O14 5846   4.168   3.446  11.056  0.3150 -0.5263 -0.1599
   69SLPC   O12 5847   4.166   3.204  11.060 -0.0868  0.5206  0.1681
   69SLPC   O11 5848   4.161   3.310  10.846 -0.5962  0.0102  0.3325
   69SLPC    C1 5849   4.105   3.216  10.758  0.1917  0.0605  0.4179
   69SLPC    HA 5850   4.099   3.112  10.795  1.0277 -0.5992 -1.1783
   69SLPC    HB 5851   4.005   3.240  10.716  0.1177 -0.4186  0.3111
   69SLPC    C2 5852   4.190   3.199  10.624 -0.5158 -0.3767  0.3788
   69SLPC    HS 5853   4.290   3.178  10.669  0.0650  1.3549 -0.0450
   69SLPC   O21 5854   4.181   3.314  10.543  0.5147  0.3336 -0.3601
   69SLPC   C21 5855   4.295   3.339  10.477  1.1483 -0.4250 -0.3892
   69SLPC   O22 5856   4.394   3.274  10.485  0.2204  0.3285 -0.1765
   69SLPC   C22 5857   4.281   3.465  10.392  0.3674  0.0137  0.3544
   69SLPC   H2R 5858   4.190   3.448  10.331 -1.2500  1.7512  2.1454
   69SLPC   H2S 5859   4.272   3.552  10.462  2.6347 -0.2575  1.0706
   69SLPC    C3 5860   4.130   3.074  10.543  0.4595 -0.1979 -0.4577
   69SLPC    HX 5861   4.039   3.116  10.494  0.1016  0.4013  0.6816
   69SLPC    HY 5862   4.109   2.992  10.614 -0.6269 -0.4905 -1.0825
   69SLPC   O31 5863   4.223   3.034  10.448  0.1442 -0.0302 -0.2563
   69SLPC   C31 5864   4.318   2.946  10.487  0.0914  0.1627  0.5163
   69SLPC   O32 5865   4.335   2.904  10.601  0.1761 -0.3711  0.0367
   69SLPC   C32 5866   4.377   2.879  10.364 -0.2067 -0.0668 -0.3227
   69SLPC   H2X 5867   4.326   2.780  10.358  1.7987 -1.1963  0.1598
   69SLPC   H2Y 5868   4.483   2.862  10.395 -0.3633  0.1197  0.3409
   69SLPC   C23 5869   4.412   3.491  10.313 -0.3380 -0.8610  0.0716
   69SLPC   H3R 5870   4.441   3.415  10.237  2.3229 -0.8733  1.0073
   69SLPC   H3S 5871   4.496   3.483  10.385 -0.6824 -1.7918  0.3951
   69SLPC   C24 5872   4.408   3.626  10.235  0.0105  1.0731 -0.2586
   69SLPC   H4R 5873   4.512   3.666  10.236  1.2290 -1.6956  2.9568
   69SLPC   H4S 5874   4.350   3.703  10.291 -0.4307  0.7360 -0.2516
   69SLPC   C25 5875   4.367   3.615  10.086 -0.7556 -0.1431 -0.1236
   69SLPC   H5R 5876   4.256   3.616  10.092 -0.8671  2.7805 -1.0009
   69SLPC   H5S 5877   4.413   3.522  10.047  2.1289  1.7377 -1.5924
   69SLPC   C26 5878   4.421   3.731  10.007  0.4984  0.2401  0.0209
   69SLPC   H6R 5879   4.531   3.723  10.000  0.6225  1.6280  0.0268
   69SLPC   H6S 5880   4.392   3.828  10.053 -0.7093 -0.9238  1.8372
   69SLPC   C27 5881   4.363   3.738   9.865 -0.4736 -0.2950 -0.1581
   69SLPC   H7R 5882   4.435   3.793   9.800  2.2960 -0.3733  2.6246
   69SLPC   H7S 5883   4.269   3.797   9.865  0.2888  0.9531 -0.0306
   69SLPC   C28 5884   4.348   3.598   9.791 -0.0810  0.2860  0.3880
   69SLPC   H8R 5885   4.270   3.615   9.714 -1.6356 -0.7402  1.6525
   69SLPC   H8S 5886   4.291   3.528   9.856 -0.2022 -1.0450 -1.1001
   69SLPC   C29 5887   4.468   3.533   9.722  0.3360 -0.6174 -0.9630
   69SLPC   H9R 5888   4.543   3.495   9.792 -0.1586  0.9706  0.5083
   69SLPC  C210 5889   4.488   3.516   9.591  0.4455  0.3651 -0.6161
   69SLPC  H10R 5890   4.573   3.458   9.553 -0.7555 -0.9449 -1.3716
   69SLPC  C211 5891   4.396   3.560   9.485  0.2513  0.6723 -0.3309
   69SLPC  H11R 5892   4.409   3.670   9.472  0.1989  0.9950  1.9571
   69SLPC  H11S 5893   4.293   3.534   9.517  0.2185 -1.2451 -1.8064
   69SLPC  C212 5894   4.407   3.490   9.346 -0.5331 -0.7409  0.1888
   69SLPC  H12R 5895   4.466   3.397   9.349 -1.0022 -1.0654 -0.2974
   69SLPC  C213 5896   4.373   3.527   9.221  0.4369 -0.9563  0.3117
   69SLPC  H13R 5897   4.394   3.458   9.138 -0.3260  0.8280 -1.4596
   69SLPC  C214 5898   4.291   3.649   9.174  0.4172  0.2031 -0.7196
   69SLPC  H14R 5899   4.273   3.713   9.262  0.1102 -1.3764  0.4130
   69SLPC  H14S 5900   4.192   3.631   9.128 -1.0742 -0.5203  2.4996
   69SLPC  C215 5901   4.373   3.733   9.070 -0.0004  0.3523  0.5081
   69SLPC  H15R 5902   4.402   3.674   8.981  0.9017  0.0118  1.0140
   69SLPC  H15S 5903   4.469   3.753   9.123  0.6330 -1.5071  0.1334
   69SLPC  C216 5904   4.299   3.864   9.025 -0.4771 -0.9358 -0.0571
   69SLPC  H16R 5905   4.242   3.894   9.116  0.0210 -0.3339  0.0690
   69SLPC  H16S 5906   4.229   3.837   8.943  0.8910 -2.2652 -0.8334
   69SLPC  C217 5907   4.393   3.981   8.994  0.3476 -0.1509 -0.5618
   69SLPC  H17R 5908   4.467   3.943   8.920  0.9612 -0.5283  0.2451
   69SLPC  H17S 5909   4.444   4.011   9.087 -1.2184  1.3438 -0.1383
   69SLPC  C218 5910   4.325   4.109   8.942 -0.1783  0.2931 -0.2612
   69SLPC  H18R 5911   4.275   4.086   8.846  0.3780  1.9901 -0.9875
   69SLPC  H18S 5912   4.401   4.188   8.928  1.7707 -1.3671  0.4334
   69SLPC  H18T 5913   4.254   4.142   9.021 -0.6839 -0.4089 -0.4064
   69SLPC   C33 5914   4.360   2.950  10.226  0.1253 -0.5815 -0.0551
   69SLPC   H3X 5915   4.261   3.000  10.223 -0.4722 -1.8127 -1.2322
   69SLPC   H3Y 5916   4.357   2.878  10.142 -0.5222 -0.8889  0.2268
   69SLPC   C34 5917   4.474   3.051  10.200  0.4148 -0.4382  0.1373
   69SLPC   H4X 5918   4.574   3.004  10.195  0.5162 -0.4159  1.5829
   69SLPC   H4Y 5919   4.487   3.116  10.289  2.9542 -0.1694 -0.3676
   69SLPC   C35 5920   4.437   3.136  10.078  0.6729  0.4903 -0.5862
   69SLPC   H5X 5921   4.509   3.220  10.065  3.0296 -0.9401  2.0623
   69SLPC   H5Y 5922   4.339   3.179  10.108  0.0421 -1.0338 -0.3414
   69SLPC   C36 5923   4.431   3.056   9.944 -0.1925 -0.0720  0.6779
   69SLPC   H6X 5924   4.351   2.980   9.941  0.3442 -0.6332 -1.0662
   69SLPC   H6Y 5925   4.522   2.996   9.920  0.8998  1.8964 -0.4217
   69SLPC   C37 5926   4.408   3.143   9.814 -0.5159  0.5094 -1.2310
   69SLPC   H7X 5927   4.485   3.221   9.797 -0.5716  0.9271  0.2726
   69SLPC   H7Y 5928   4.324   3.212   9.839 -0.5395  0.2291 -0.5279
   69SLPC   C38 5929   4.409   3.059   9.687 -0.5815 -0.5936  0.2650
   69SLPC   H8X 5930   4.306   3.017   9.679 -0.6851 -0.1696 -0.8395
   69SLPC   H8Y 5931   4.487   2.981   9.704  0.3525  0.4847  1.0875
   69SLPC   C39 5932   4.443   3.137   9.556 -0.4142  0.6439  0.2642
   69SLPC   H9X 5933   4.548   3.169   9.569 -1.2631  3.5444  0.8103
   69SLPC   H9Y 5934   4.380   3.228   9.547 -2.8958 -0.9320  0.4621
   69SLPC  C310 5935   4.431   3.048   9.426 -0.1367  0.1616  0.1090
   69SLPC  H10X 5936   4.323   3.045   9.399  0.0158  0.6638 -0.5888
   69SLPC  H10Y 5937   4.458   2.945   9.457  1.8269  0.4758 -0.4311
   69SLPC  C311 5938   4.507   3.102   9.303 -0.4571 -0.5019  0.2536
   69SLPC  H11X 5939   4.614   3.072   9.313 -0.3578  0.5176  2.9368
   69SLPC  H11Y 5940   4.487   3.211   9.299  0.5488 -0.3300 -0.3534
   69SLPC  C312 5941   4.446   3.065   9.170 -0.2535 -0.2552 -0.3300
   69SLPC  H12X 5942   4.343   3.103   9.149 -0.9776 -1.2876  1.2010
   69SLPC  H12Y 5943   4.418   2.957   9.167 -0.1369 -0.2692 -1.5884
   69SLPC  C313 5944   4.532   3.113   9.046 -0.2609 -0.3506  0.3823
   69SLPC  H13X 5945   4.599   3.028   9.022  0.4337  0.5145 -0.8676
   69SLPC  H13Y 5946   4.591   3.206   9.059  0.1390 -0.6608  0.7993
   69SLPC  C314 5947   4.438   3.136   8.930 -0.1814 -0.0369  0.3447
   69SLPC  H14X 5948   4.352   3.068   8.948 -0.5361  0.3472  0.1170
   69SLPC  H14Y 5949   4.489   3.099   8.838 -1.1208 -1.5249  0.3870
   69SLPC  C315 5950   4.376   3.276   8.907  0.4503 -0.1758 -0.7381
   69SLPC  H15X 5951   4.454   3.354   8.895  1.2347 -1.1668 -2.4939
   69SLPC  H15Y 5952   4.332   3.302   9.006 -1.5666 -0.3247 -1.5424
   69SLPC  C316 5953   4.282   3.281   8.786 -0.2625 -0.3627 -0.0401
   69SLPC  H16X 5954   4.181   3.243   8.812 -0.2537  0.6229  1.5783
   69SLPC  H16Y 5955   4.337   3.215   8.715  1.6238  0.2110  0.8259
   69SLPC  C317 5956   4.269   3.428   8.721 -0.0061  0.5528  0.0726
   69SLPC  H17X 5957   4.372   3.470   8.717  0.3444 -0.2347  0.5330
   69SLPC  H17Y 5958   4.203   3.489   8.785 -0.7229  1.0754 -1.1315
   69SLPC  C318 5959   4.211   3.414   8.585 -0.4873 -0.2745 -0.2052
   69SLPC  H18X 5960   4.222   3.310   8.547 -3.2991 -0.4124 -0.8914
   69SLPC  H18Y 5961   4.258   3.478   8.508 -1.2083 -0.7986 -1.0986
   69SLPC  H18Z 5962   4.101   3.433   8.586 -0.7913 -1.6518 -1.9792
   70SLPC     N 5963   0.864   1.775  11.083 -0.1180  0.6375 -0.6010
   70SLPC   C13 5964   0.873   1.920  11.096 -0.1705 -0.3698 -0.0256
   70SLPC  H13A 5965   0.971   1.960  11.116 -0.9568  1.8601 -0.4330
   70SLPC  H13B 5966   0.842   1.977  11.010 -0.3656  0.5568  0.6416
   70SLPC  H13C 5967   0.815   1.955  11.180  1.8740 -0.6553  1.6087
   70SLPC   C14 5968   0.720   1.751  11.033 -0.1577  0.2640  0.6662
   70SLPC  H14A 5969   0.689   1.647  11.034  0.2102  0.1574  1.0064
   70SLPC  H14B 5970   0.640   1.799  11.087 -1.4655 -1.7894  0.6868
   70SLPC  H14C 5971   0.712   1.778  10.929 -1.3974 -2.5062 -0.0691
   70SLPC   C15 5972   0.877   1.710  11.214  0.2685  0.2699  0.4824
   70SLPC  H15A 5973   0.974   1.733  11.255  0.0954 -1.1700  1.7773
   70SLPC  H15B 5974   0.807   1.747  11.287  0.2416 -2.3009  1.8907
   70SLPC  H15C 5975   0.856   1.604  11.211 -0.6660  0.4599 -0.8927
   70SLPC   C12 5976   0.965   1.718  10.988 -0.1161  0.1392 -0.1697
   70SLPC  H12A 5977   0.944   1.612  10.982  0.7894 -0.1155  0.9289
   70SLPC  H12B 5978   1.064   1.733  11.029  1.5543 -2.3126 -2.9464
   70SLPC   C11 5979   0.959   1.785  10.849 -0.3224 -0.4590  0.2338
   70SLPC  H11A 5980   1.058   1.772  10.799  1.2318 -1.6595  3.3606
   70SLPC  H11B 5981   0.948   1.893  10.875  0.7054 -0.4502  0.7155
   70SLPC     P 5982   0.873   1.596  10.692 -0.3760  0.0241  0.2893
   70SLPC   O13 5983   0.926   1.495  10.784  0.0926  0.6005 -0.8038
   70SLPC   O14 5984   0.745   1.551  10.634 -0.1785 -0.3100  0.1910
   70SLPC   O12 5985   0.853   1.735  10.772 -0.4233 -0.0681  0.0550
   70SLPC   O11 5986   0.974   1.622  10.576  0.3029  0.1459 -0.1062
   70SLPC    C1 5987   0.952   1.736  10.483  0.1685  0.4063  0.0302
   70SLPC    HA 5988   0.846   1.743  10.448  0.2678  1.5317 -0.0573
   70SLPC    HB 5989   0.989   1.830  10.528  0.7005  0.8148 -1.2087
   70SLPC    C2 5990   1.036   1.722  10.348  0.3235  0.2361 -1.1056
   70SLPC    HS 5991   1.009   1.793  10.266  0.9432  0.2630 -1.2929
   70SLPC   O21 5992   1.030   1.588  10.293 -0.4052 -0.1461  0.0248
   70SLPC   C21 5993   0.918   1.542  10.243 -0.4957 -0.5477 -0.4541
   70SLPC   O22 5994   0.808   1.603  10.246  0.7743 -0.2361  0.3662
   70SLPC   C22 5995   0.946   1.401  10.181  0.0344 -0.1577  0.3807
   70SLPC   H2R 5996   1.050   1.396  10.141  0.9908 -0.7828  2.7699
   70SLPC   H2S 5997   0.953   1.329  10.264 -1.4246  0.7357  1.3214
   70SLPC    C3 5998   1.188   1.738  10.386 -0.2895 -0.0175  0.7150
   70SLPC    HX 5999   1.205   1.654  10.456  0.3363 -0.3799  0.1418
   70SLPC    HY 6000   1.195   1.835  10.439 -0.0911  0.0116  0.6368
   70SLPC   O31 6001   1.274   1.735  10.271 -0.3210 -0.0682  0.2286
   70SLPC   C31 6002   1.284   1.838  10.195  0.2326  0.1187 -0.0441
   70SLPC   O32 6003   1.233   1.946  10.206 -0.0928 -0.7499  0.4377
   70SLPC   C32 6004   1.368   1.782  10.073  0.1205  0.2657  0.7252
   70SLPC   H2X 6005   1.290   1.722  10.020 -1.0292  1.1165  1.4051
   70SLPC   H2Y 6006   1.438   1.705  10.113  1.4954  2.1478  2.1051
   70SLPC   C23 6007   0.836   1.351  10.087  0.0671  0.2169  0.0163
   70SLPC   H3R 6008   0.735   1.363  10.132  0.6272  0.2576  1.3078
   70SLPC   H3S 6009   0.848   1.244  10.060 -1.7128  0.1703 -0.7421
   70SLPC   C24 6010   0.830   1.420   9.946 -0.4294 -0.5227 -0.6868
   70SLPC   H4R 6011   0.767   1.511   9.957  1.2249  0.6646 -0.7173
   70SLPC   H4S 6012   0.762   1.360   9.882  0.6096 -2.3598 -0.1552
   70SLPC   C25 6013   0.967   1.452   9.876 -0.3326 -0.2722 -0.1121
   70SLPC   H5R 6014   0.974   1.378   9.794 -0.1651 -1.7217  1.1699
   70SLPC   H5S 6015   1.055   1.437   9.943 -0.6910 -1.0691  0.1944
   70SLPC   C26 6016   0.982   1.593   9.822 -0.4568  0.4361 -0.3352
   70SLPC   H6R 6017   0.903   1.621   9.749 -0.2365 -1.4776 -1.3801
   70SLPC   H6S 6018   1.076   1.606   9.763  0.2087 -0.2857  0.5309
   70SLPC   C27 6019   0.988   1.704   9.932 -0.2036 -0.5315  0.2605
   70SLPC   H7R 6020   1.068   1.672  10.003 -0.5412 -0.0931  0.8491
   70SLPC   H7S 6021   0.891   1.713   9.986  1.0268  1.4621  2.3267
   70SLPC   C28 6022   1.027   1.842   9.874  0.3929  0.0449 -0.0969
   70SLPC   H8R 6023   1.133   1.842   9.841  0.6101  0.6567  0.5900
   70SLPC   H8S 6024   1.019   1.917   9.955  1.9437  0.6162 -0.4532
   70SLPC   C29 6025   0.934   1.882   9.757 -0.1115  0.4342  0.4063
   70SLPC   H9R 6026   0.829   1.900   9.786 -0.0322  1.8254 -0.0731
   70SLPC  C210 6027   0.970   1.887   9.624  0.1475 -0.2934 -0.2627
   70SLPC  H10R 6028   0.891   1.920   9.555  2.5820 -0.7392 -3.5140
   70SLPC  C211 6029   1.113   1.876   9.571  0.3342 -0.2370 -0.1721
   70SLPC  H11R 6030   1.190   1.876   9.650 -0.1355  0.7494  0.2985
   70SLPC  H11S 6031   1.141   1.963   9.508  0.7692 -0.7871 -0.7544
   70SLPC  C212 6032   1.129   1.754   9.486  0.8736  0.3168 -0.0996
   70SLPC  H12R 6033   1.177   1.674   9.544  2.3780  1.3176  0.0897
   70SLPC  C213 6034   1.090   1.730   9.357  0.1481  0.2789 -0.6882
   70SLPC  H13R 6035   1.128   1.641   9.306  3.8018  1.7631 -0.8563
   70SLPC  C214 6036   1.019   1.831   9.269  0.6855 -0.1098 -0.1851
   70SLPC  H14R 6037   0.975   1.915   9.328 -0.6619  0.2134 -1.5939
   70SLPC  H14S 6038   0.927   1.780   9.235 -0.0290 -0.4419  2.0573
   70SLPC  C215 6039   1.089   1.897   9.154 -0.2974  0.3392 -0.5053
   70SLPC  H15R 6040   1.035   1.984   9.111  3.2694  1.7023 -2.6031
   70SLPC  H15S 6041   1.111   1.819   9.079 -0.9124 -1.5252  1.1529
   70SLPC  C216 6042   1.225   1.963   9.191 -0.3302 -0.2270 -0.3403
   70SLPC  H16R 6043   1.289   1.888   9.241 -1.6241 -1.9516 -1.1706
   70SLPC  H16S 6044   1.203   2.034   9.274  1.4481 -0.0092 -0.0214
   70SLPC  C217 6045   1.302   2.036   9.072 -0.3222  0.4016 -0.3989
   70SLPC  H17R 6046   1.361   2.122   9.112 -2.3131  2.8196 -2.3589
   70SLPC  H17S 6047   1.220   2.087   9.018  0.1200  1.2606 -0.2807
   70SLPC  C218 6048   1.393   1.958   8.971  0.8754 -0.3606  0.2641
   70SLPC  H18R 6049   1.468   1.900   9.029  1.0255 -0.5336 -0.1027
   70SLPC  H18S 6050   1.437   2.014   8.886 -1.0277  0.9216  0.0533
   70SLPC  H18T 6051   1.327   1.882   8.924 -0.6163  1.5940 -0.9767
   70SLPC   C33 6052   1.421   1.901   9.984 -0.3849  0.3050 -0.6197
   70SLPC   H3X 6053   1.503   1.950  10.040 -0.2983 -2.9960  2.4565
   70SLPC   H3Y 6054   1.341   1.976   9.965 -0.6386  0.4598  0.9399
   70SLPC   C34 6055   1.465   1.841   9.851 -0.0959  0.2325 -0.4121
   70SLPC   H4X 6056   1.395   1.759   9.822 -0.9660  0.2281  1.5546
   70SLPC   H4Y 6057   1.570   1.807   9.867  0.0947  1.5146  1.4359
   70SLPC   C35 6058   1.479   1.940   9.744  0.0346 -0.0135  0.5080
   70SLPC   H5X 6059   1.534   2.029   9.781 -1.5008  2.4433 -2.6491
   70SLPC   H5Y 6060   1.384   1.981   9.703  2.4274  0.7366 -5.2651
   70SLPC   C36 6061   1.546   1.878   9.616  0.0050 -0.7252 -0.5789
   70SLPC   H6X 6062   1.480   1.795   9.586 -0.7066  0.1883 -1.6320
   70SLPC   H6Y 6063   1.643   1.829   9.642 -0.5346 -1.5234 -0.0144
   70SLPC   C37 6064   1.582   1.977   9.497  0.6334  0.1210 -0.1133
   70SLPC   H7X 6065   1.666   2.039   9.537  0.4940 -0.8041  1.7659
   70SLPC   H7Y 6066   1.490   2.033   9.471 -0.2799 -1.5046 -0.5888
   70SLPC   C38 6067   1.644   1.894   9.378 -0.0649  0.6719 -0.1679
   70SLPC   H8X 6068   1.561   1.833   9.335 -0.3516  0.0402  1.2427
   70SLPC   H8Y 6069   1.716   1.815   9.410 -1.2933 -0.4265 -0.0011
   70SLPC   C39 6070   1.698   1.985   9.271  0.4108 -0.6931  0.1288
   70SLPC   H9X 6071   1.786   2.043   9.304  1.2818 -1.2274 -1.1701
   70SLPC   H9Y 6072   1.609   2.049   9.254  2.5897  2.4760 -0.1868
   70SLPC  C310 6073   1.727   1.911   9.137 -0.3505 -0.9053 -0.8461
   70SLPC  H10X 6074   1.638   1.858   9.097 -0.4558 -0.2538 -1.4998
   70SLPC  H10Y 6075   1.804   1.838   9.170 -2.8624 -3.1199  0.4787
   70SLPC  C311 6076   1.776   2.008   9.029 -0.4461 -0.3014 -0.1792
   70SLPC  H11X 6077   1.859   2.070   9.069 -1.0538 -0.3841  1.2625
   70SLPC  H11Y 6078   1.695   2.073   8.990 -1.4957 -1.7887 -0.5849
   70SLPC  C312 6079   1.838   1.939   8.910  0.5698  0.7451  0.0611
   70SLPC  H12X 6080   1.758   1.902   8.843 -0.2538  0.1306  1.3545
   70SLPC  H12Y 6081   1.912   1.863   8.942 -1.4919 -2.8423 -2.9279
   70SLPC  C313 6082   1.905   2.036   8.806 -0.2060  0.2717 -0.8620
   70SLPC  H13X 6083   1.998   2.073   8.853 -0.6498 -0.1777  0.4345
   70SLPC  H13Y 6084   1.837   2.123   8.793 -0.5423  0.0561 -0.5857
   70SLPC  C314 6085   1.929   1.980   8.670 -0.2060  0.0989 -0.7215
   70SLPC  H14X 6086   1.948   2.068   8.606  1.8675  0.9571  0.9565
   70SLPC  H14Y 6087   1.835   1.929   8.639 -0.1930 -1.5735  1.7173
   70SLPC  C315 6088   2.039   1.875   8.657  0.3054  0.1185 -0.0426
   70SLPC  H15X 6089   2.015   1.794   8.729  0.3173 -0.7365 -0.9634
   70SLPC  H15Y 6090   2.131   1.924   8.696 -0.0411 -0.1142  1.0932
   70SLPC  C316 6091   2.075   1.822   8.517 -0.1685  0.0019 -0.1842
   70SLPC  H16X 6092   2.090   1.907   8.447  1.0376 -2.3603 -3.0333
   70SLPC  H16Y 6093   1.984   1.766   8.486 -1.2178  0.1704  2.3652
   70SLPC  C317 6094   2.205   1.741   8.518 -0.5256 -0.8803  0.5078
   70SLPC  H17X 6095   2.290   1.803   8.550 -1.8836  0.6444  1.3054
   70SLPC  H17Y 6096   2.226   1.708   8.414 -0.1763 -1.6830  0.8250
   70SLPC  C318 6097   2.190   1.614   8.607 -0.2396  0.1012  0.3526
   70SLPC  H18X 6098   2.120   1.552   8.547  1.0242  1.0800 -2.2741
   70SLPC  H18Y 6099   2.139   1.628   8.705 -2.1596 -0.9987 -0.4294
   70SLPC  H18Z 6100   2.282   1.552   8.611 -0.8747 -0.8177  1.3579
   71SLPC     N 6101   4.540   1.331  11.019 -0.6007  0.8151 -0.2307
   71SLPC   C13 6102   4.522   1.190  11.075 -0.4301  0.0406 -0.3133
   71SLPC  H13A 6103   4.423   1.152  11.053 -0.3466  0.2280 -1.0446
   71SLPC  H13B 6104   4.595   1.123  11.033  1.4161  1.0719  1.1534
   71SLPC  H13C 6105   4.523   1.191  11.183  0.1019 -1.4612 -0.2895
   71SLPC   C14 6106   4.667   1.388  11.068  0.1200 -0.5910  0.8332
   71SLPC  H14A 6107   4.671   1.408  11.174  0.3464  0.3415  0.6608
   71SLPC  H14B 6108   4.745   1.315  11.050  1.2436  1.1251 -2.0012
   71SLPC  H14C 6109   4.682   1.477  11.009 -1.0776 -0.9909 -0.1290
   71SLPC   C15 6110   4.424   1.420  11.062 -0.6894 -0.4528 -0.3579
   71SLPC  H15A 6111   4.416   1.511  11.004 -3.6470 -0.7884 -0.6555
   71SLPC  H15B 6112   4.330   1.372  11.040  0.4394 -2.7209 -0.4365
   71SLPC  H15C 6113   4.428   1.450  11.166 -0.4851 -0.7515 -0.2806
   71SLPC   C12 6114   4.554   1.321  10.868  0.3410 -0.6954 -0.6851
   71SLPC  H12A 6115   4.650   1.284  10.835 -0.2010 -1.4789 -1.4688
   71SLPC  H12B 6116   4.530   1.409  10.811  0.0353  0.3282  0.9500
   71SLPC   C11 6117   4.454   1.221  10.806 -0.1466  0.1312  0.3096
   71SLPC  H11A 6118   4.426   1.246  10.702  0.5697 -1.6054 -0.3401
   71SLPC  H11B 6119   4.354   1.236  10.853 -1.0447  1.1654 -1.7940
   71SLPC     P 6120   4.593   1.019  10.727 -0.4139 -0.1264 -0.2887
   71SLPC   O13 6121   4.732   1.066  10.752  0.2151 -0.3023  0.3294
   71SLPC   O14 6122   4.580   0.870  10.730 -0.1557  0.7743 -0.1483
   71SLPC   O12 6123   4.493   1.088  10.828 -0.1277 -0.2348  0.0923
   71SLPC   O11 6124   4.530   1.070  10.589  0.2503 -0.6568 -0.4230
   71SLPC    C1 6125   4.423   0.994  10.541 -0.5429 -0.1638  1.4528
   71SLPC    HA 6126   4.361   0.950  10.623  0.9388  0.4521  2.9545
   71SLPC    HB 6127   4.361   1.056  10.473  0.0921 -0.9519  0.1168
   71SLPC    C2 6128   4.479   0.879  10.447  0.5926  0.1129  0.7206
   71SLPC    HS 6129   4.512   0.795  10.512  0.6225 -0.2053  0.3055
   71SLPC   O21 6130   4.591   0.917  10.365 -0.2160 -0.2465  0.1833
   71SLPC   C21 6131   4.659   0.815  10.308 -0.3673  0.0650  0.1287
   71SLPC   O22 6132   4.627   0.697  10.327  1.0109 -0.1536 -0.3712
   71SLPC   C22 6133   4.785   0.868  10.239  0.1905 -0.2586  0.8571
   71SLPC   H2R 6134   4.834   0.945  10.301  1.0613 -0.1257  0.0282
   71SLPC   H2S 6135   4.843   0.775  10.218 -0.4468 -0.1998 -1.4277
   71SLPC    C3 6136   4.361   0.828  10.360  0.0755  0.7397 -0.3104
   71SLPC    HX 6137   4.271   0.785  10.410 -1.4391  3.1947 -0.7346
   71SLPC    HY 6138   4.408   0.743  10.308 -0.5965 -0.7390  1.3868
   71SLPC   O31 6139   4.320   0.934  10.270 -0.3448  0.4374 -0.2642
   71SLPC   C31 6140   4.243   0.882  10.171 -0.1605  0.0055  0.3037
   71SLPC   O32 6141   4.211   0.761  10.165 -0.0234 -0.4413 -0.2456
   71SLPC   C32 6142   4.158   0.994  10.103 -0.2680  0.1497  0.6047
   71SLPC   H2X 6143   4.100   1.063  10.168  0.8242  0.7649  0.9577
   71SLPC   H2Y 6144   4.081   0.935  10.048  0.3978  0.4646 -0.6998
   71SLPC   C23 6145   4.769   0.914  10.100 -0.4405  0.4963  0.1314
   71SLPC   H3R 6146   4.711   1.008  10.098 -0.4739  0.4559 -1.2102
   71SLPC   H3S 6147   4.707   0.841  10.045  1.3353  0.3100 -1.7601
   71SLPC   C24 6148   4.895   0.945  10.007 -0.4290 -0.5362  0.0835
   71SLPC   H4R 6149   4.944   0.856   9.963  0.2086  1.2724 -3.1622
   71SLPC   H4S 6150   4.973   0.999  10.064 -0.7959  0.2213 -0.1094
   71SLPC   C25 6151   4.852   1.024   9.879 -0.2313  0.5973  0.0015
   71SLPC   H5R 6152   4.787   1.111   9.904 -0.6740  1.1830 -2.8187
   71SLPC   H5S 6153   4.794   0.946   9.826  2.6583 -1.8481  0.2132
   71SLPC   C26 6154   4.970   1.081   9.788  0.1997  0.4588  0.8655
   71SLPC   H6R 6155   5.035   0.998   9.753 -1.1896 -0.2396 -0.2074
   71SLPC   H6S 6156   5.035   1.147   9.848 -0.8405 -1.0457  3.8230
   71SLPC   C27 6157   4.915   1.155   9.666 -0.1448 -0.2221  0.0717
   71SLPC   H7R 6158   4.997   1.222   9.632 -0.3550  1.2012  2.1544
   71SLPC   H7S 6159   4.847   1.233   9.706  0.4763 -0.2229  1.1607
   71SLPC   C28 6160   4.868   1.056   9.558  0.1668  0.8880  0.1799
   71SLPC   H8R 6161   4.815   0.971   9.606  1.0060  0.1320 -0.1914
   71SLPC   H8S 6162   4.959   1.011   9.511  0.5258  1.4263  0.3496
   71SLPC   C29 6163   4.780   1.123   9.453  0.0299 -0.1649  0.2955
   71SLPC   H9R 6164   4.689   1.167   9.495  0.6192 -0.4480  1.9472
   71SLPC  C210 6165   4.809   1.130   9.321 -0.0358  0.0367 -0.2474
   71SLPC  H10R 6166   4.736   1.174   9.251  1.6488  1.1586 -1.4088
   71SLPC  C211 6167   4.928   1.074   9.255 -0.0112 -0.6843  0.1120
   71SLPC  H11R 6168   5.007   1.098   9.329 -1.2365 -0.4207  1.3915
   71SLPC  H11S 6169   4.947   1.124   9.158  0.3330 -0.8927  0.0717
   71SLPC  C212 6170   4.927   0.927   9.225  0.5252  0.3556 -0.6548
   71SLPC  H12R 6171   4.923   0.856   9.309 -1.4142 -0.9382 -1.7647
   71SLPC  C213 6172   4.954   0.877   9.100 -0.3954  0.2566  0.5140
   71SLPC  H13R 6173   4.943   0.768   9.087 -1.1752  0.4551 -0.6105
   71SLPC  C214 6174   4.985   0.944   8.965 -0.0733  0.1962 -0.0980
   71SLPC  H14R 6175   5.031   1.043   8.988  0.6706 -0.1691  0.0218
   71SLPC  H14S 6176   4.895   0.971   8.906 -0.5600  1.0322  0.9899
   71SLPC  C215 6177   5.079   0.872   8.867  0.1235  0.1094  0.1469
   71SLPC  H15R 6178   5.051   0.765   8.858  0.3138 -0.1263  2.0109
   71SLPC  H15S 6179   5.181   0.878   8.912 -0.0156 -0.9878  0.6493
   71SLPC  C216 6180   5.071   0.916   8.726 -0.6927 -0.6295  0.5896
   71SLPC  H16R 6181   5.070   1.027   8.728 -0.5482 -0.6321  2.2716
   71SLPC  H16S 6182   4.974   0.877   8.690 -0.5992 -1.8078  1.5485
   71SLPC  C217 6183   5.178   0.866   8.625 -0.0948 -0.4445 -0.7923
   71SLPC  H17R 6184   5.170   0.910   8.524  2.4508  2.4862  0.1079
   71SLPC  H17S 6185   5.172   0.756   8.612  1.3617 -0.9050  1.6589
   71SLPC  C218 6186   5.321   0.893   8.660 -0.7142 -0.2308 -0.5302
   71SLPC  H18R 6187   5.391   0.841   8.592 -2.5553 -1.2790 -1.7014
   71SLPC  H18S 6188   5.344   0.848   8.759  0.8002 -1.3165 -1.3369
   71SLPC  H18T 6189   5.340   1.002   8.649  2.2701 -0.6340 -0.0814
   71SLPC   C33 6190   4.248   1.090  10.010  0.7695  0.1552  0.7818
   71SLPC   H3X 6191   4.323   1.132  10.081 -0.8906  1.7348  1.6673
   71SLPC   H3Y 6192   4.193   1.181   9.978 -1.7481 -1.8662 -1.1072
   71SLPC   C34 6193   4.312   1.023   9.885 -0.4607  0.2373 -0.8404
   71SLPC   H4X 6194   4.232   1.009   9.809 -2.0024 -0.3690  0.8253
   71SLPC   H4Y 6195   4.346   0.922   9.918 -1.6865 -0.9030 -2.8491
   71SLPC   C35 6196   4.429   1.105   9.840 -0.4513 -0.4453  0.4773
   71SLPC   H5X 6197   4.501   1.123   9.922 -0.5064 -1.8724  0.8593
   71SLPC   H5Y 6198   4.392   1.203   9.804  0.6820 -0.7643 -1.7573
   71SLPC   C36 6199   4.515   1.039   9.724  0.7890 -0.0863 -0.0105
   71SLPC   H6X 6200   4.555   0.944   9.763 -1.4534 -0.7268  0.9301
   71SLPC   H6Y 6201   4.600   1.107   9.705  1.4955 -1.2328 -1.0730
   71SLPC   C37 6202   4.435   1.028   9.601  0.2870  0.0657  0.2497
   71SLPC   H7X 6203   4.344   0.963   9.603  1.1264 -1.3532 -2.3798
   71SLPC   H7Y 6204   4.485   0.971   9.519  1.6078 -0.3669  1.3226
   71SLPC   C38 6205   4.370   1.156   9.548  0.5047 -0.1154 -1.2906
   71SLPC   H8X 6206   4.444   1.238   9.553  1.1823 -0.6793 -1.7479
   71SLPC   H8Y 6207   4.284   1.167   9.618  0.8904 -2.4295 -0.3611
   71SLPC   C39 6208   4.314   1.140   9.401  0.1418 -0.7223 -0.5891
   71SLPC   H9X 6209   4.250   1.229   9.387  0.0787 -0.8443 -1.1085
   71SLPC   H9Y 6210   4.253   1.047   9.395  1.1815 -1.6184  1.4867
   71SLPC  C310 6211   4.430   1.126   9.301 -0.0649 -0.0211 -0.5160
   71SLPC  H10X 6212   4.470   1.024   9.313 -1.6558 -0.6829 -0.6455
   71SLPC  H10Y 6213   4.511   1.197   9.330  0.4395 -0.1027 -1.6464
   71SLPC  C311 6214   4.383   1.136   9.152 -0.4251  1.1548  0.8783
   71SLPC  H11X 6215   4.366   1.245   9.137  0.5979  0.9486 -2.6193
   71SLPC  H11Y 6216   4.283   1.090   9.139  0.0866  0.2690 -0.0053
   71SLPC  C312 6217   4.488   1.082   9.059 -0.4993  0.1153 -0.4590
   71SLPC  H12X 6218   4.504   0.973   9.077  1.1063  0.3872 -0.0513
   71SLPC  H12Y 6219   4.583   1.132   9.089 -1.8000  2.6217 -0.2923
   71SLPC  C313 6220   4.466   1.120   8.912  0.3233  0.4423  0.4626
   71SLPC  H13X 6221   4.360   1.153   8.904  0.7711  1.6980 -0.6542
   71SLPC  H13Y 6222   4.469   1.036   8.839 -2.7966  2.0323 -1.7139
   71SLPC  C314 6223   4.557   1.231   8.863  0.4549  0.2073  0.0308
   71SLPC  H14X 6224   4.655   1.182   8.882  1.2285  0.4609 -2.8248
   71SLPC  H14Y 6225   4.548   1.316   8.934 -0.3422 -1.0005  1.4220
   71SLPC  C315 6226   4.535   1.273   8.722  0.4562 -0.2020  0.0104
   71SLPC  H15X 6227   4.555   1.182   8.662  1.9783 -0.0702  0.2568
   71SLPC  H15Y 6228   4.620   1.340   8.695 -0.2184  0.8315  0.4102
   71SLPC  C316 6229   4.403   1.349   8.694  0.3966  0.1671  0.1636
   71SLPC  H16X 6230   4.372   1.418   8.775 -0.7698  0.4131 -0.4522
   71SLPC  H16Y 6231   4.324   1.272   8.676  0.2144  0.3166  0.3239
   71SLPC  C317 6232   4.418   1.425   8.562 -0.0750  0.0117  0.1547
   71SLPC  H17X 6233   4.492   1.508   8.563  1.5018 -1.3063 -1.2782
   71SLPC  H17Y 6234   4.317   1.460   8.534 -0.5096 -0.2883  1.2761
   71SLPC  C318 6235   4.465   1.334   8.446  0.4078  0.1744  0.3706
   71SLPC  H18X 6236   4.387   1.256   8.430 -0.1516  0.7638  0.2028
   71SLPC  H18Y 6237   4.565   1.293   8.472  0.2820  0.1805  0.8777
   71SLPC  H18Z 6238   4.467   1.389   8.350  1.8329  0.5212  0.5768
   72SLPC     N 6239   5.828   5.470  10.973  0.0962 -0.2341 -0.2407
   72SLPC   C13 6240   5.975   5.498  10.988  0.1633  0.6678 -0.5637
   72SLPC  H13A 6241   5.994   5.588  11.045 -0.7606  1.1554 -0.9998
   72SLPC  H13B 6242   6.018   5.411  11.036 -0.9002  0.5583  0.2385
   72SLPC  H13C 6243   6.025   5.509  10.893  1.6194 -0.8060 -0.0164
   72SLPC   C14 6244   5.760   5.574  10.895  0.0770  1.1822 -0.2905
   72SLPC  H14A 6245   5.750   5.661  10.959 -0.2652 -0.0274  1.4020
   72SLPC  H14B 6246   5.808   5.614  10.808  0.3098 -0.2855 -0.8579
   72SLPC  H14C 6247   5.660   5.535  10.880  1.0273 -0.6908 -2.2904
   72SLPC   C15 6248   5.770   5.478  11.119  0.4317  0.4950  0.6507
   72SLPC  H15A 6249   5.673   5.431  11.121  0.7797 -0.5351 -2.2844
   72SLPC  H15B 6250   5.828   5.424  11.193 -0.4167 -0.7019  0.4686
   72SLPC  H15C 6251   5.757   5.583  11.141  0.6306  0.4330  1.0915
   72SLPC   C12 6252   5.800   5.333  10.922  0.3901  0.3233 -0.0341
   72SLPC  H12A 6253   5.696   5.308  10.937  0.4312  0.7101  0.9966
   72SLPC  H12B 6254   5.851   5.266  10.989  1.6671  1.6875  0.4223
   72SLPC   C11 6255   5.841   5.304  10.777 -0.6085  0.1520 -0.3395
   72SLPC  H11A 6256   5.788   5.372  10.707  1.1455  0.8729 -1.0249
   72SLPC  H11B 6257   5.812   5.200  10.749 -1.3616  0.2089  0.1866
   72SLPC     P 6258   6.090   5.207  10.774  0.3743 -0.3152 -0.0429
   72SLPC   O13 6259   6.227   5.272  10.767  0.0055  0.5648  0.4453
   72SLPC   O14 6260   6.061   5.124  10.896  0.5217 -0.2105  0.0641
   72SLPC   O12 6261   5.982   5.325  10.751  0.2044 -0.5772  0.0084
   72SLPC   O11 6262   6.072   5.114  10.646 -0.1433  0.0139 -0.4172
   72SLPC    C1 6263   6.045   5.158  10.520 -0.6148  0.5430 -0.1833
   72SLPC    HA 6264   5.956   5.225  10.527 -1.5795 -0.7808  0.7110
   72SLPC    HB 6265   6.130   5.219  10.484 -0.6053  0.8948  0.4137
   72SLPC    C2 6266   6.031   5.043  10.405  0.5870 -0.3802 -0.4460
   72SLPC    HS 6267   5.935   4.991  10.426  0.4798 -0.3898 -0.9648
   72SLPC   O21 6268   6.139   4.951  10.406 -0.6030 -0.4550 -0.1849
   72SLPC   C21 6269   6.145   4.865  10.505 -0.0328  0.7527  0.1573
   72SLPC   O22 6270   6.055   4.831  10.582 -0.1552 -0.3543 -0.5329
   72SLPC   C22 6271   6.265   4.775  10.501  0.3120  0.2810  0.5155
   72SLPC   H2R 6272   6.351   4.830  10.457  0.2384  1.0113  1.2534
   72SLPC   H2S 6273   6.296   4.733  10.599  2.0694  0.9206  0.2749
   72SLPC    C3 6274   6.018   5.103  10.263 -0.0675 -0.7530  0.2527
   72SLPC    HX 6275   6.013   5.010  10.202  0.0357 -1.5819  1.4910
   72SLPC    HY 6276   6.111   5.152  10.227 -1.0141 -0.6343 -2.2287
   72SLPC   O31 6277   5.891   5.178  10.238 -0.2519 -0.1581  0.1211
   72SLPC   C31 6278   5.904   5.307  10.262 -0.0818 -0.0572  0.2734
   72SLPC   O32 6279   6.005   5.366  10.301 -0.2668 -0.4104  0.4999
   72SLPC   C32 6280   5.772   5.376  10.244 -0.6530  0.2894  0.2919
   72SLPC   H2X 6281   5.800   5.483  10.244 -0.5102  0.2520 -0.1196
   72SLPC   H2Y 6282   5.705   5.350  10.329 -1.0750  1.7129  0.4126
   72SLPC   C23 6283   6.239   4.653  10.415  0.1676  0.5040 -0.1593
   72SLPC   H3R 6284   6.144   4.602  10.442  0.4797 -0.3836 -0.6965
   72SLPC   H3S 6285   6.318   4.578  10.438 -0.3005  0.0550  0.0143
   72SLPC   C24 6286   6.241   4.697  10.273  0.3008  0.7217  0.3113
   72SLPC   H4R 6287   6.342   4.737  10.247 -0.2749  1.0027 -1.6101
   72SLPC   H4S 6288   6.168   4.779  10.261  1.4130  1.7144  0.1252
   72SLPC   C25 6289   6.210   4.585  10.168  0.0646 -0.1540  0.3489
   72SLPC   H5R 6290   6.114   4.536  10.193  0.6910 -1.9042 -0.4941
   72SLPC   H5S 6291   6.286   4.505  10.184  0.8946  0.6440  0.5308
   72SLPC   C26 6292   6.218   4.643  10.021 -1.4021  0.6079 -0.4627
   72SLPC   H6R 6293   6.320   4.685  10.006 -1.0380 -0.2743 -0.5704
   72SLPC   H6S 6294   6.139   4.720  10.021 -1.6911  0.3231 -1.0926
   72SLPC   C27 6295   6.187   4.535   9.914  0.4530  1.1038  0.4725
   72SLPC   H7R 6296   6.107   4.463   9.942  1.2656 -0.6368 -1.3461
   72SLPC   H7S 6297   6.276   4.469   9.916 -1.5312 -1.8071 -0.2161
   72SLPC   C28 6298   6.171   4.597   9.767 -0.0606  0.9940  0.2717
   72SLPC   H8R 6299   6.261   4.656   9.743  0.7629 -0.4845 -0.4601
   72SLPC   H8S 6300   6.086   4.668   9.773 -1.8813 -1.0464  0.3315
   72SLPC   C29 6301   6.165   4.495   9.652  0.1786 -0.1356 -0.7093
   72SLPC   H9R 6302   6.204   4.397   9.680  0.9765  0.5533  0.6768
   72SLPC  C210 6303   6.118   4.538   9.535 -0.4156  0.6808  0.6182
   72SLPC  H10R 6304   6.125   4.470   9.448  1.6822  1.9476 -0.2652
   72SLPC  C211 6305   6.079   4.678   9.496 -0.3759  0.3599 -0.3872
   72SLPC  H11R 6306   6.116   4.699   9.394 -0.5540  0.5183 -0.4205
   72SLPC  H11S 6307   6.126   4.751   9.565  0.2644  2.5904 -3.0346
   72SLPC  C212 6308   5.937   4.703   9.509 -0.2370 -0.6474 -0.0514
   72SLPC  H12R 6309   5.897   4.655   9.599  0.5569 -2.5044 -0.6487
   72SLPC  C213 6310   5.860   4.781   9.430 -0.1202  0.1469  0.6935
   72SLPC  H13R 6311   5.757   4.800   9.464 -0.1381  0.2292  0.5961
   72SLPC  C214 6312   5.899   4.855   9.308  0.5126 -0.8712  0.2683
   72SLPC  H14R 6313   6.010   4.861   9.296  0.3645 -1.3372 -1.6885
   72SLPC  H14S 6314   5.874   4.964   9.303  0.8659 -0.8345 -2.5367
   72SLPC  C215 6315   5.855   4.787   9.176  0.7645  0.2422  0.1514
   72SLPC  H15R 6316   5.900   4.686   9.166  0.0524 -0.0298 -0.4458
   72SLPC  H15S 6317   5.885   4.853   9.092 -3.0353 -0.0465 -1.6209
   72SLPC  C216 6318   5.703   4.788   9.159 -0.0950  0.2127 -0.6107
   72SLPC  H16R 6319   5.676   4.887   9.202 -1.6744 -0.5579  0.2580
   72SLPC  H16S 6320   5.655   4.711   9.223 -0.8679  1.1662 -0.0200
   72SLPC  C217 6321   5.657   4.777   9.008 -0.2877  0.1265  0.8191
   72SLPC  H17R 6322   5.734   4.834   8.952  0.1820 -0.2875  1.0349
   72SLPC  H17S 6323   5.558   4.821   8.983  0.5174  1.5495 -0.0437
   72SLPC  C218 6324   5.651   4.626   8.970 -0.0211 -0.4126 -0.4358
   72SLPC  H18R 6325   5.717   4.564   9.035 -0.8721 -2.0741 -1.1005
   72SLPC  H18S 6326   5.653   4.597   8.863 -1.7725 -2.9587  0.1265
   72SLPC  H18T 6327   5.546   4.596   8.993 -0.7213  0.8057 -1.8996
   72SLPC   C33 6328   5.694   5.343  10.111 -0.3516 -0.6188  0.2774
   72SLPC   H3X 6329   5.667   5.235  10.107 -0.1642 -0.7730  2.1225
   72SLPC   H3Y 6330   5.768   5.367  10.032  1.1509 -0.6973  1.5941
   72SLPC   C34 6331   5.582   5.444  10.103  0.2766 -0.4091  0.7741
   72SLPC   H4X 6332   5.620   5.549  10.097 -2.3761  0.5971  0.1491
   72SLPC   H4Y 6333   5.517   5.432  10.192 -2.2688 -0.6449 -1.0176
   72SLPC   C35 6334   5.493   5.440   9.970 -0.1935  0.1443 -0.4504
   72SLPC   H5X 6335   5.421   5.524   9.965 -1.0834 -0.6663 -2.2568
   72SLPC   H5Y 6336   5.427   5.352   9.953  1.3335 -0.8699 -1.3897
   72SLPC   C36 6337   5.579   5.474   9.843 -0.4468  0.8559 -0.3978
   72SLPC   H6X 6338   5.649   5.392   9.817 -1.0046  0.5759 -1.0613
   72SLPC   H6Y 6339   5.656   5.548   9.869  1.6046 -1.4874  0.6155
   72SLPC   C37 6340   5.493   5.530   9.726 -0.6913 -0.3298 -0.0952
   72SLPC   H7X 6341   5.418   5.598   9.771 -0.2175  0.5143 -0.5461
   72SLPC   H7Y 6342   5.442   5.442   9.683  1.5586 -2.0807  0.6321
   72SLPC   C38 6343   5.584   5.607   9.631  0.5684 -0.3922 -0.0133
   72SLPC   H8X 6344   5.684   5.561   9.614  1.1954  1.0183 -0.2516
   72SLPC   H8Y 6345   5.607   5.708   9.671 -0.1136  0.0824 -0.7846
   72SLPC   C39 6346   5.502   5.622   9.502 -0.4802  0.3619  0.6723
   72SLPC   H9X 6347   5.423   5.692   9.536 -0.1109  0.9257  0.3939
   72SLPC   H9Y 6348   5.451   5.528   9.475 -0.1397  0.5282 -0.5977
   72SLPC  C310 6349   5.595   5.658   9.387  0.4683  0.6525 -1.0839
   72SLPC  H10X 6350   5.682   5.589   9.374 -0.2743 -0.5810  0.1757
   72SLPC  H10Y 6351   5.643   5.756   9.406  2.3924  0.1318 -2.8633
   72SLPC  C311 6352   5.512   5.655   9.257 -0.5152 -0.3564  0.0682
   72SLPC  H11X 6353   5.445   5.743   9.252 -1.0458 -0.7447  0.2812
   72SLPC  H11Y 6354   5.443   5.568   9.250  1.1590 -2.0989  3.0060
   72SLPC  C312 6355   5.600   5.666   9.133  0.1750 -0.1596 -0.5869
   72SLPC  H12X 6356   5.678   5.588   9.144  0.0996 -0.0255  1.1811
   72SLPC  H12Y 6357   5.648   5.766   9.125 -0.8721  0.3621 -0.5058
   72SLPC  C313 6358   5.531   5.627   9.001 -0.8676  0.5737 -0.3290
   72SLPC  H13X 6359   5.483   5.529   9.024 -0.7652  0.9105  1.5336
   72SLPC  H13Y 6360   5.615   5.598   8.934 -0.5426 -1.8500  1.0266
   72SLPC  C314 6361   5.435   5.721   8.927  0.3680 -0.0554  0.4997
   72SLPC  H14X 6362   5.486   5.816   8.901 -0.2920  0.2881  0.4325
   72SLPC  H14Y 6363   5.352   5.739   8.999 -0.1898  1.4009 -0.4548
   72SLPC  C315 6364   5.381   5.644   8.798 -0.9102 -0.0040  0.5575
   72SLPC  H15X 6365   5.310   5.568   8.836 -2.1110  0.9703  0.3450
   72SLPC  H15Y 6366   5.461   5.591   8.742 -2.8703 -2.2780 -0.2573
   72SLPC  C316 6367   5.311   5.735   8.696 -0.0383 -0.2046 -0.0968
   72SLPC  H16X 6368   5.384   5.808   8.654  0.4116 -1.8279 -2.3468
   72SLPC  H16Y 6369   5.230   5.786   8.752 -0.6963  0.8674 -1.9249
   72SLPC  C317 6370   5.257   5.664   8.573  1.4810 -0.8144  0.3769
   72SLPC  H17X 6371   5.340   5.616   8.517  0.3583 -2.3967 -0.0022
   72SLPC  H17Y 6372   5.214   5.745   8.510  0.6535 -0.1837  1.7032
   72SLPC  C318 6373   5.138   5.574   8.596  0.2178  0.8077 -0.7280
   72SLPC  H18X 6374   5.055   5.635   8.638 -0.6882 -1.2279  0.6324
   72SLPC  H18Y 6375   5.170   5.487   8.658 -0.3210  0.9677 -0.2169
   72SLPC  H18Z 6376   5.112   5.530   8.497  0.6666 -0.4619 -0.3030
   73SLPC     N 6377   0.249   5.104  11.127  0.4344 -0.3665 -0.4832
   73SLPC   C13 6378   0.149   5.014  11.075  1.0556  0.0498  0.4885
   73SLPC  H13A 6379   0.181   4.959  10.988  1.0971  0.9337 -0.0663
   73SLPC  H13B 6380   0.119   4.946  11.154  0.4660  0.6492  0.7946
   73SLPC  H13C 6381   0.058   5.065  11.049  0.7328  0.0153  1.4935
   73SLPC   C14 6382   0.376   5.020  11.135  0.0389  0.2288  0.0853
   73SLPC  H14A 6383   0.354   4.939  11.202 -1.1326  0.1522 -0.3634
   73SLPC  H14B 6384   0.389   4.981  11.035  0.5863  0.9787 -0.1501
   73SLPC  H14C 6385   0.466   5.076  11.153  2.9017 -4.5928  2.6304
   73SLPC   C15 6386   0.206   5.164  11.261 -0.4415 -0.0854  0.1124
   73SLPC  H15A 6387   0.104   5.200  11.256 -0.7134 -0.4927  1.8791
   73SLPC  H15B 6388   0.208   5.081  11.331  0.6146 -0.3384 -0.1924
   73SLPC  H15C 6389   0.287   5.231  11.287 -1.0687  0.6993  0.0786
   73SLPC   C12 6390   0.274   5.212  11.022  0.3880  0.1828  0.7328
   73SLPC  H12A 6391   0.287   5.156  10.930 -0.3676 -0.6129  1.0921
   73SLPC  H12B 6392   0.370   5.255  11.046  0.6180  2.4304 -3.2791
   73SLPC   C11 6393   0.172   5.326  11.002 -0.5254 -0.2983 -0.6965
   73SLPC  H11A 6394   0.193   5.383  10.908  1.3135  0.6630  0.2226
   73SLPC  H11B 6395   0.190   5.406  11.077 -0.5167  0.1285 -1.1409
   73SLPC     P 6396  -0.075   5.275  10.900  0.2533  0.0713 -0.2403
   73SLPC   O13 6397  -0.110   5.136  10.879  0.5606  0.1458  0.0470
   73SLPC   O14 6398  -0.182   5.357  10.959  0.3979  0.3098 -0.0106
   73SLPC   O12 6399   0.041   5.283  11.010  0.2574  0.4220 -0.4529
   73SLPC   O11 6400  -0.021   5.349  10.770 -0.1022 -0.1911  0.4659
   73SLPC    C1 6401  -0.103   5.376  10.656  0.1466 -0.2249  0.3669
   73SLPC    HA 6402  -0.210   5.393  10.681 -0.4720  0.5907 -2.5303
   73SLPC    HB 6403  -0.069   5.468  10.606 -2.7253  0.4924 -0.4244
   73SLPC    C2 6404  -0.096   5.265  10.546  0.6940 -0.5247  0.1162
   73SLPC    HS 6405  -0.157   5.185  10.595  2.8579 -1.6005  1.1760
   73SLPC   O21 6406   0.042   5.222  10.534 -0.6045  0.6343  0.2408
   73SLPC   C21 6407   0.063   5.098  10.497  0.5505  1.0939 -0.3263
   73SLPC   O22 6408  -0.023   5.017  10.462 -0.6368  0.1325  0.7948
   73SLPC   C22 6409   0.215   5.061  10.498  0.0803 -0.3015  0.4808
   73SLPC   H2R 6410   0.260   5.070  10.599 -1.3772  0.4602  1.0906
   73SLPC   H2S 6411   0.228   4.956  10.463 -0.8019 -0.4133  0.4556
   73SLPC    C3 6412  -0.149   5.326  10.412 -0.1125  0.5514 -0.1827
   73SLPC    HX 6413  -0.077   5.397  10.367  0.0733  0.0825 -0.6371
   73SLPC    HY 6414  -0.242   5.382  10.437 -0.1522 -0.2457  1.5702
   73SLPC   O31 6415  -0.165   5.231  10.303  0.1306 -0.8281 -0.8272
   73SLPC   C31 6416  -0.277   5.151  10.307 -0.0976 -0.2126 -0.0546
   73SLPC   O32 6417  -0.368   5.165  10.382  0.4972 -0.4011 -0.1032
   73SLPC   C32 6418  -0.253   5.023  10.223 -0.0745  0.0712  0.0566
   73SLPC   H2X 6419  -0.233   4.945  10.299  0.5390  0.8025  0.6666
   73SLPC   H2Y 6420  -0.161   5.033  10.162  2.0401 -2.5398  2.5586
   73SLPC   C23 6421   0.290   5.162  10.405 -0.4244 -0.0892 -0.8234
   73SLPC   H3R 6422   0.397   5.155  10.435 -0.5534  0.2213 -0.2795
   73SLPC   H3S 6423   0.261   5.269  10.413  1.3466  0.3298  1.0480
   73SLPC   C24 6424   0.280   5.111  10.265 -0.2983  0.2415  0.9296
   73SLPC   H4R 6425   0.262   5.002  10.264 -1.9762  0.4531 -1.6632
   73SLPC   H4S 6426   0.369   5.132  10.202 -1.7131 -0.1187 -1.2809
   73SLPC   C25 6427   0.161   5.165  10.187  0.1097 -0.0412 -0.2012
   73SLPC   H5R 6428   0.175   5.272  10.211  1.4168 -0.0478 -0.8409
   73SLPC   H5S 6429   0.068   5.131  10.237  0.5645 -1.6688 -0.4131
   73SLPC   C26 6430   0.162   5.117  10.038  0.0849 -0.0203  0.7143
   73SLPC   H6R 6431   0.057   5.120  10.000  0.4227  0.7896 -0.2124
   73SLPC   H6S 6432   0.180   5.007  10.038  0.1613 -0.0243  2.1671
   73SLPC   C27 6433   0.249   5.200   9.950 -0.5730 -0.0244  0.3467
   73SLPC   H7R 6434   0.356   5.181   9.970 -0.7602 -0.3884  1.0533
   73SLPC   H7S 6435   0.230   5.302   9.989 -0.3580 -0.1712  0.8500
   73SLPC   C28 6436   0.229   5.180   9.799  0.2973  0.5898 -0.0582
   73SLPC   H8R 6437   0.268   5.268   9.745  1.5248  0.1029  0.0098
   73SLPC   H8S 6438   0.120   5.161   9.790  0.6291 -0.8626 -1.2660
   73SLPC   C29 6439   0.298   5.054   9.749 -0.1142  0.1536 -0.3437
   73SLPC   H9R 6440   0.368   5.003   9.816 -1.1897 -0.7983  0.0975
   73SLPC  C210 6441   0.274   5.000   9.630 -0.4432  0.2689 -0.3090
   73SLPC  H10R 6442   0.339   4.911   9.624 -0.8692 -0.3000  2.2059
   73SLPC  C211 6443   0.173   5.029   9.517 -0.2069  0.0483 -0.3814
   73SLPC  H11R 6444   0.170   5.138   9.495  0.9284  0.5860  1.8172
   73SLPC  H11S 6445   0.076   4.990   9.554 -0.0262  0.0513  0.0958
   73SLPC  C212 6446   0.190   4.942   9.392 -0.4710  0.0337  0.7672
   73SLPC  H12R 6447   0.187   4.832   9.393 -0.7793  0.0333  0.2250
   73SLPC  C213 6448   0.209   4.995   9.270  1.3343  0.6812  0.2391
   73SLPC  H13R 6449   0.202   4.924   9.186 -0.9015 -0.3189  1.1881
   73SLPC  C214 6450   0.222   5.143   9.226  0.1700  0.9813  0.0374
   73SLPC  H14R 6451   0.306   5.151   9.154 -0.5036 -1.9349 -1.2416
   73SLPC  H14S 6452   0.244   5.200   9.319  1.1251 -0.4714  0.7464
   73SLPC  C215 6453   0.102   5.199   9.144  0.2283 -0.4650 -0.0355
   73SLPC  H15R 6454   0.128   5.301   9.108 -0.0932 -0.1456  0.6396
   73SLPC  H15S 6455   0.012   5.205   9.208  0.1668 -0.2021 -0.1466
   73SLPC  C216 6456   0.063   5.108   9.019  0.1021 -0.4053  0.5063
   73SLPC  H16R 6457   0.018   5.010   9.046 -1.3945 -0.2199 -1.1496
   73SLPC  H16S 6458   0.160   5.088   8.970 -0.7761  0.1604 -1.5697
   73SLPC  C217 6459  -0.036   5.183   8.921 -0.1551  0.1911 -0.1497
   73SLPC  H17R 6460   0.012   5.276   8.883  0.7928 -0.7056 -1.1984
   73SLPC  H17S 6461  -0.129   5.214   8.974 -0.8064 -1.1401 -0.4885
   73SLPC  C218 6462  -0.075   5.106   8.800 -0.4378  0.0683 -0.1007
   73SLPC  H18R 6463   0.018   5.069   8.752 -0.5042 -1.5627  0.9598
   73SLPC  H18S 6464  -0.134   5.164   8.725 -1.3345 -1.9509 -1.0251
   73SLPC  H18T 6465  -0.129   5.011   8.822  0.7313 -0.4072  0.7748
   73SLPC   C33 6466  -0.382   4.993  10.144 -0.1909  0.4342  0.7047
   73SLPC   H3X 6467  -0.473   4.998  10.207  0.1271 -1.7793  1.4141
   73SLPC   H3Y 6468  -0.368   4.889  10.108 -0.2858  0.8653 -0.6659
   73SLPC   C34 6469  -0.391   5.069  10.010  0.1354  0.2030  0.6959
   73SLPC   H4X 6470  -0.309   5.022   9.953  1.0297  1.1228  1.1989
   73SLPC   H4Y 6471  -0.369   5.177  10.021  0.9885 -0.0881  2.0765
   73SLPC   C35 6472  -0.529   5.063   9.948  0.0824  0.4306  0.2793
   73SLPC   H5X 6473  -0.604   5.115  10.012  2.2219  4.1354  0.0298
   73SLPC   H5Y 6474  -0.565   4.958   9.942 -2.6241  1.3488 -0.7561
   73SLPC   C36 6475  -0.535   5.118   9.806 -0.2830  0.2704 -0.2455
   73SLPC   H6X 6476  -0.471   5.209   9.795 -0.2117  0.0822 -1.5407
   73SLPC   H6Y 6477  -0.637   5.161   9.799 -0.0809  1.3979  2.3490
   73SLPC   C37 6478  -0.518   5.016   9.692  0.0933 -0.0969  0.0711
   73SLPC   H7X 6479  -0.616   4.966   9.678  0.2223 -0.3920  0.1953
   73SLPC   H7Y 6480  -0.443   4.936   9.708 -0.5329 -0.9936 -1.3087
   73SLPC   C38 6481  -0.492   5.089   9.555 -0.5959 -0.4336 -0.2512
   73SLPC   H8X 6482  -0.401   5.152   9.569 -0.1668 -1.2806  0.9345
   73SLPC   H8Y 6483  -0.579   5.157   9.546 -0.3866 -0.4450 -6.1788
   73SLPC   C39 6484  -0.482   4.998   9.436 -0.1734 -0.4126 -1.0641
   73SLPC   H9X 6485  -0.560   4.919   9.425  0.2386 -1.1356  0.8307
   73SLPC   H9Y 6486  -0.385   4.948   9.455 -0.3555 -0.3257  0.1503
   73SLPC  C310 6487  -0.480   5.094   9.314 -0.1575 -0.2319 -0.0381
   73SLPC  H10X 6488  -0.390   5.159   9.319  0.4303 -0.8912 -1.4157
   73SLPC  H10Y 6489  -0.581   5.140   9.318 -0.6868 -1.0360 -2.3700
   73SLPC  C311 6490  -0.484   5.022   9.185  0.6220 -0.7690 -0.2916
   73SLPC  H11X 6491  -0.576   4.964   9.161  0.9593 -0.0498 -3.9998
   73SLPC  H11Y 6492  -0.397   4.954   9.188  1.3220  0.1373  0.4972
   73SLPC  C312 6493  -0.452   5.113   9.065  0.7125  0.7245 -0.3304
   73SLPC  H12X 6494  -0.351   5.155   9.083  0.7151  0.5498  0.0764
   73SLPC  H12Y 6495  -0.531   5.190   9.058  0.5864  0.6640  0.3614
   73SLPC  C313 6496  -0.451   5.036   8.935  0.5335  0.6284 -0.1288
   73SLPC  H13X 6497  -0.536   4.965   8.931  0.0572  1.0987  1.1122
   73SLPC  H13Y 6498  -0.354   4.983   8.928 -0.2057 -0.8887  0.6627
   73SLPC  C314 6499  -0.459   5.135   8.811 -0.3570 -0.1997 -0.7734
   73SLPC  H14X 6500  -0.364   5.193   8.810  0.0514 -0.5935  2.5686
   73SLPC  H14Y 6501  -0.544   5.205   8.823 -0.6407 -0.6305 -0.2178
   73SLPC  C315 6502  -0.480   5.058   8.675 -0.3455 -1.1538 -0.2099
   73SLPC  H15X 6503  -0.588   5.047   8.652 -1.1702  2.3323  1.3347
   73SLPC  H15Y 6504  -0.427   4.961   8.688  0.9416 -1.0241 -3.4956
   73SLPC  C316 6505  -0.423   5.138   8.555  0.4482 -0.0892 -0.1822
   73SLPC  H16X 6506  -0.314   5.159   8.560  0.3675  0.4831 -0.7101
   73SLPC  H16Y 6507  -0.463   5.241   8.545  0.6266 -0.1326 -1.5323
   73SLPC  C317 6508  -0.440   5.051   8.428 -0.3451 -0.1673  0.1485
   73SLPC  H17X 6509  -0.547   5.023   8.418 -0.9674  1.6328  1.2327
   73SLPC  H17Y 6510  -0.374   4.962   8.437  0.3062  0.0745 -1.7999
   73SLPC  C318 6511  -0.408   5.123   8.293  0.0438  0.0064  0.1807
   73SLPC  H18X 6512  -0.424   5.053   8.208  0.5901 -1.0994  0.9696
   73SLPC  H18Y 6513  -0.299   5.145   8.285 -0.1085  0.5764 -0.4557
   73SLPC  H18Z 6514  -0.458   5.221   8.279 -0.6110 -0.3797 -0.2532
   74SLPC     N 6515   5.589   6.646  11.029 -0.1242 -0.2214  0.1781
   74SLPC   C13 6516   5.447   6.683  11.027  0.6185  1.1529  0.6739
   74SLPC  H13A 6517   5.424   6.754  11.105  2.5388  0.4939  1.8882
   74SLPC  H13B 6518   5.418   6.723  10.930  0.7042  1.7801  0.8998
   74SLPC  H13C 6519   5.387   6.596  11.048 -0.7072  2.1326  1.1721
   74SLPC   C14 6520   5.624   6.597  11.167  0.0022  0.0417  0.7173
   74SLPC  H14A 6521   5.617   6.680  11.236 -0.7391  1.2439 -0.7619
   74SLPC  H14B 6522   5.557   6.521  11.206 -1.5558  1.5248  1.0399
   74SLPC  H14C 6523   5.726   6.562  11.163  0.1807  0.6876 -2.7938
   74SLPC   C15 6524   5.677   6.769  11.004 -0.0043  0.1949  0.4053
   74SLPC  H15A 6525   5.778   6.735  10.984  1.3053  1.3352  4.1124
   74SLPC  H15B 6526   5.648   6.823  10.915  0.9047 -2.1533 -1.4202
   74SLPC  H15C 6527   5.676   6.828  11.095 -1.7298 -0.9376  1.1789
   74SLPC   C12 6528   5.617   6.535  10.925  0.3615 -0.8632  0.1918
   74SLPC  H12A 6529   5.557   6.447  10.944  0.7303 -1.0240  0.6477
   74SLPC  H12B 6530   5.719   6.500  10.935  0.3914 -0.7646  0.2267
   74SLPC   C11 6531   5.601   6.568  10.768  0.6300 -0.2276  0.0262
   74SLPC  H11A 6532   5.652   6.487  10.712 -0.1867 -1.2170  0.6946
   74SLPC  H11B 6533   5.660   6.663  10.767 -0.0791  0.2485  0.9757
   74SLPC     P 6534   5.390   6.467  10.652  0.0850  0.0322 -0.3645
   74SLPC   O13 6535   5.423   6.340  10.716  0.0161 -0.2520  0.0281
   74SLPC   O14 6536   5.248   6.502  10.639  0.0591  0.5495 -0.8399
   74SLPC   O12 6537   5.464   6.586  10.729  0.0035  0.3030  0.4964
   74SLPC   O11 6538   5.461   6.465  10.514  0.0415  0.0164  0.1633
   74SLPC    C1 6539   5.444   6.580  10.431  0.2757 -0.0378  0.0808
   74SLPC    HA 6540   5.343   6.581  10.384 -0.2046  2.4659  1.0167
   74SLPC    HB 6541   5.446   6.674  10.490  4.0844  0.2841 -0.3175
   74SLPC    C2 6542   5.561   6.584  10.334  0.6555  0.0446 -0.1525
   74SLPC    HS 6543   5.554   6.681  10.280 -0.7053 -0.1267 -0.3044
   74SLPC   O21 6544   5.563   6.473  10.244  0.1128 -0.1601  0.7398
   74SLPC   C21 6545   5.459   6.462  10.156  0.1164 -0.2026 -0.5327
   74SLPC   O22 6546   5.378   6.554  10.138  0.2109 -0.1126  0.3151
   74SLPC   C22 6547   5.459   6.327  10.088  0.0663  0.3406  0.4401
   74SLPC   H2R 6548   5.444   6.250  10.167 -0.6375  1.6548  1.6400
   74SLPC   H2S 6549   5.363   6.324  10.033 -1.0996 -0.6648  2.3929
   74SLPC    C3 6550   5.693   6.587  10.411 -0.0178  0.4000  0.4280
   74SLPC    HX 6551   5.692   6.505  10.486  2.6323 -1.4620 -1.3742
   74SLPC    HY 6552   5.693   6.683  10.467 -2.7753  1.3401 -1.0195
   74SLPC   O31 6553   5.809   6.583  10.328 -0.3681  0.2335  0.7578
   74SLPC   C31 6554   5.879   6.470  10.316  0.3402 -0.0417 -0.8435
   74SLPC   O32 6555   5.828   6.361  10.342  0.1011  0.3572  0.1562
   74SLPC   C32 6556   6.012   6.493  10.262 -0.9282 -0.8021 -0.3926
   74SLPC   H2X 6557   6.063   6.395  10.267  1.6912  0.4762 -0.4444
   74SLPC   H2Y 6558   6.066   6.548  10.342 -1.1682  1.0620 -1.4494
   74SLPC   C23 6559   5.590   6.299  10.011 -0.3376  0.3084 -1.2966
   74SLPC   H3R 6560   5.579   6.196   9.971  0.0202 -0.1061 -0.3676
   74SLPC   H3S 6561   5.682   6.310  10.072  0.4458 -2.8759 -1.7137
   74SLPC   C24 6562   5.595   6.395   9.894 -0.0997 -0.5403  0.2986
   74SLPC   H4R 6563   5.627   6.497   9.926 -0.3822  0.4286 -2.2675
   74SLPC   H4S 6564   5.496   6.392   9.845  0.7089  0.3641 -1.4950
   74SLPC   C25 6565   5.703   6.355   9.795 -0.1909  0.3284 -0.1490
   74SLPC   H5R 6566   5.670   6.260   9.747  2.8819 -0.1627 -1.5212
   74SLPC   H5S 6567   5.798   6.325   9.845  0.2195  1.1500 -0.4142
   74SLPC   C26 6568   5.737   6.442   9.676  0.4095 -0.2101  0.1567
   74SLPC   H6R 6569   5.786   6.537   9.706 -0.1592  0.6838 -1.5860
   74SLPC   H6S 6570   5.643   6.477   9.629  1.1548  0.6124 -0.7781
   74SLPC   C27 6571   5.830   6.366   9.575  0.1770  0.1767  0.8461
   74SLPC   H7R 6572   5.768   6.281   9.539 -2.3433  2.5439 -0.8965
   74SLPC   H7S 6573   5.920   6.328   9.627 -0.8531 -2.9258  0.5851
   74SLPC   C28 6574   5.853   6.445   9.443  0.5688 -0.5870 -0.1370
   74SLPC   H8R 6575   5.932   6.395   9.383  1.2464 -0.0977  0.3323
   74SLPC   H8S 6576   5.897   6.539   9.482  0.3443 -0.3850 -0.3736
   74SLPC   C29 6577   5.721   6.462   9.369 -0.1312  0.9001 -0.3634
   74SLPC   H9R 6578   5.624   6.461   9.421 -0.2156  1.2573 -0.5097
   74SLPC  C210 6579   5.709   6.479   9.236 -0.1625  0.2270 -0.4647
   74SLPC  H10R 6580   5.614   6.518   9.197 -0.9765  1.1160  2.1885
   74SLPC  C211 6581   5.827   6.494   9.142  0.5831  0.5945  0.1024
   74SLPC  H11R 6582   5.906   6.554   9.193  1.4173  0.4912 -1.0186
   74SLPC  H11S 6583   5.796   6.564   9.061 -0.7240  0.4827  0.4955
   74SLPC  C212 6584   5.895   6.366   9.097  0.1787 -0.3347 -0.1096
   74SLPC  H12R 6585   5.856   6.272   9.137 -0.0954  0.6530  2.0668
   74SLPC  C213 6586   5.991   6.361   9.008  0.0333 -0.3191  0.2604
   74SLPC  H13R 6587   6.033   6.263   8.981  2.7391  0.6086  0.7981
   74SLPC  C214 6588   6.053   6.477   8.938 -0.2078 -0.3592 -0.4966
   74SLPC  H14R 6589   6.146   6.508   8.989 -0.3877  0.2206 -0.5126
   74SLPC  H14S 6590   5.986   6.565   8.948 -1.1448 -1.2181  1.1250
   74SLPC  C215 6591   6.096   6.445   8.795 -0.4644  0.3889 -0.4532
   74SLPC  H15R 6592   6.009   6.455   8.727 -1.4578 -1.5148  0.4413
   74SLPC  H15S 6593   6.147   6.346   8.784 -1.9976 -0.4764 -0.1427
   74SLPC  C216 6594   6.201   6.548   8.751 -0.0025 -0.2516  0.9743
   74SLPC  H16R 6595   6.291   6.534   8.814 -0.9358  0.0123  2.3993
   74SLPC  H16S 6596   6.158   6.649   8.768  3.8440  1.9511 -1.0198
   74SLPC  C217 6597   6.240   6.523   8.598  0.0436 -0.0369 -0.1872
   74SLPC  H17R 6598   6.157   6.551   8.529 -0.5552 -2.5648 -0.6229
   74SLPC  H17S 6599   6.266   6.415   8.584 -1.0465 -0.4019  0.4575
   74SLPC  C218 6600   6.365   6.601   8.557 -0.0883  0.1713  0.0466
   74SLPC  H18R 6601   6.326   6.705   8.556 -1.6329 -0.3752  0.4837
   74SLPC  H18S 6602   6.409   6.583   8.456  0.1081  1.0538 -0.0282
   74SLPC  H18T 6603   6.451   6.595   8.627  0.7698 -0.9703 -1.0609
   74SLPC   C33 6604   6.014   6.552  10.117 -0.2016  0.1419 -0.4586
   74SLPC   H3X 6605   6.116   6.595  10.106 -0.2623  0.9507  1.6877
   74SLPC   H3Y 6606   5.931   6.624  10.121 -0.0096  0.3138  0.6708
   74SLPC   C34 6607   5.988   6.446  10.006 -0.0381  1.1754 -0.9850
   74SLPC   H4X 6608   5.984   6.506   9.913  2.8954  1.0878 -1.2834
   74SLPC   H4Y 6609   5.890   6.404  10.036  0.9779  0.3327  1.3872
   74SLPC   C35 6610   6.098   6.342  10.008 -0.0919  0.3305  0.6606
   74SLPC   H5X 6611   6.069   6.253  10.069 -0.8192 -0.9357 -1.4197
   74SLPC   H5Y 6612   6.191   6.375  10.059 -0.3649  1.1412  0.6472
   74SLPC   C36 6613   6.142   6.281   9.871  0.3630  0.4238  0.5956
   74SLPC   H6X 6614   6.048   6.241   9.827 -1.0814  1.0832  2.9661
   74SLPC   H6Y 6615   6.212   6.194   9.877  0.6856  0.7008  0.9153
   74SLPC   C37 6616   6.185   6.379   9.756  0.2226  0.0722  0.1158
   74SLPC   H7X 6617   6.260   6.454   9.792  0.8500  0.4386 -1.8503
   74SLPC   H7Y 6618   6.094   6.437   9.732 -0.5767 -0.4177  1.8058
   74SLPC   C38 6619   6.243   6.301   9.630  0.2396  0.7397 -0.5749
   74SLPC   H8X 6620   6.158   6.239   9.594  0.4242  0.5898 -0.7512
   74SLPC   H8Y 6621   6.313   6.217   9.647 -0.5776  0.1796  0.1056
   74SLPC   C39 6622   6.291   6.400   9.522 -0.1155 -0.3131  0.3935
   74SLPC   H9X 6623   6.232   6.493   9.520  0.3396 -0.0087 -1.6424
   74SLPC   H9Y 6624   6.276   6.344   9.426 -0.1337  1.0489 -0.4228
   74SLPC  C310 6625   6.441   6.430   9.535  0.7923 -0.4556 -0.1919
   74SLPC  H10X 6626   6.490   6.336   9.503  2.0419 -0.0611  0.4675
   74SLPC  H10Y 6627   6.465   6.446   9.643 -1.7938 -2.5666  0.8185
   74SLPC  C311 6628   6.488   6.542   9.442 -0.7032 -0.2410  0.5226
   74SLPC  H11X 6629   6.579   6.589   9.485 -1.7610  4.0257 -1.3522
   74SLPC  H11Y 6630   6.405   6.616   9.446 -0.0059  0.6796 -1.0720
   74SLPC  C312 6631   6.532   6.498   9.302  0.7818 -0.5720  0.2892
   74SLPC  H12X 6632   6.453   6.436   9.253 -1.5761  3.1764 -1.0896
   74SLPC  H12Y 6633   6.622   6.433   9.307 -0.3127 -2.3449 -1.3493
   74SLPC  C313 6634   6.558   6.629   9.218 -0.1801  0.4952 -0.6040
   74SLPC  H13X 6635   6.640   6.688   9.264 -0.1702 -0.6018  0.8918
   74SLPC  H13Y 6636   6.465   6.690   9.222 -0.2756  0.4195 -1.5268
   74SLPC  C314 6637   6.609   6.587   9.073 -0.3896  0.2581 -0.7615
   74SLPC  H14X 6638   6.522   6.547   9.018 -0.4931  0.0991 -0.4823
   74SLPC  H14Y 6639   6.687   6.507   9.077 -0.3026  0.2569 -2.0398
   74SLPC  C315 6640   6.662   6.704   8.990  0.2619  1.0142 -0.2111
   74SLPC  H15X 6641   6.692   6.666   8.890 -0.6197 -1.8033  0.4977
   74SLPC  H15Y 6642   6.754   6.735   9.043  1.8520 -2.8393 -0.3572
   74SLPC  C316 6643   6.564   6.822   8.977  0.4163  0.4897 -0.6864
   74SLPC  H16X 6644   6.627   6.896   8.924  1.9354  1.5727  2.4117
   74SLPC  H16Y 6645   6.527   6.847   9.079 -1.5948  0.7166 -1.4213
   74SLPC  C317 6646   6.438   6.788   8.898 -0.4721  0.7280  0.5246
   74SLPC  H17X 6647   6.381   6.707   8.947 -2.2423  0.5076 -1.7140
   74SLPC  H17Y 6648   6.463   6.749   8.797 -1.0363 -0.3369  0.7785
   74SLPC  C318 6649   6.341   6.907   8.890  0.3298  0.1887 -0.2426
   74SLPC  H18X 6650   6.346   6.972   8.981 -0.0276  0.5693 -0.4906
   74SLPC  H18Y 6651   6.237   6.869   8.880 -0.3258  2.0418 -0.9856
   74SLPC  H18Z 6652   6.363   6.970   8.801 -1.0119  1.1383  0.0607
   75SLPC     N 6653   4.468   3.922   6.064 -0.3742 -0.0082 -0.0386
   75SLPC   C13 6654   4.542   4.049   6.068  0.0964 -0.0717 -0.0463
   75SLPC  H13A 6655   4.474   4.130   6.046 -0.8334 -0.6163  0.7505
   75SLPC  H13B 6656   4.588   4.061   6.165  1.7234  0.3851 -0.8446
   75SLPC  H13C 6657   4.625   4.035   6.001 -0.1250 -3.0070  0.1848
   75SLPC   C14 6658   4.561   3.809   6.093 -0.1527 -0.0488 -0.2606
   75SLPC  H14A 6659   4.505   3.725   6.133 -0.0160 -0.6029 -1.2102
   75SLPC  H14B 6660   4.614   3.776   6.005 -0.1528 -0.5016 -0.0943
   75SLPC  H14C 6661   4.626   3.830   6.177 -1.3640  2.7906  0.0760
   75SLPC   C15 6662   4.407   3.904   5.924 -0.2712  0.1350 -0.1653
   75SLPC  H15A 6663   4.355   3.809   5.920  1.2928 -0.7535 -0.0275
   75SLPC  H15B 6664   4.346   3.989   5.895  0.3315  0.4517 -0.5190
   75SLPC  H15C 6665   4.487   3.912   5.852 -0.8314  2.4279 -0.6217
   75SLPC   C12 6666   4.349   3.932   6.159 -0.3639 -0.0695 -0.5216
   75SLPC  H12A 6667   4.313   3.833   6.182 -0.6387 -0.4205 -2.3727
   75SLPC  H12B 6668   4.281   4.003   6.114 -0.3726  1.8742  2.2744
   75SLPC   C11 6669   4.368   3.994   6.305 -0.0955  0.5146  1.2875
   75SLPC  H11A 6670   4.266   4.004   6.349 -1.1652 -0.5229 -0.7954
   75SLPC  H11B 6671   4.400   4.100   6.296 -0.8170  0.5537 -3.0546
   75SLPC     P 6672   4.408   3.778   6.452  0.0768  0.3023  0.0794
   75SLPC   O13 6673   4.395   3.675   6.343 -0.0909  0.5928 -0.1896
   75SLPC   O14 6674   4.499   3.754   6.566  0.4608  0.1080  0.0342
   75SLPC   O12 6675   4.462   3.911   6.378 -0.4971 -0.3836  0.3693
   75SLPC   O11 6676   4.263   3.819   6.510  0.2780  0.6864 -0.2677
   75SLPC    C1 6677   4.248   3.894   6.632  0.4605 -0.1018  0.0594
   75SLPC    HA 6678   4.334   3.963   6.647  0.3943 -0.1183  0.5392
   75SLPC    HB 6679   4.166   3.968   6.626  1.0827  0.4912 -1.9168
   75SLPC    C2 6680   4.230   3.805   6.756 -0.2400  0.4317 -0.1486
   75SLPC    HS 6681   4.315   3.734   6.759 -0.2708  0.3869  2.8172
   75SLPC   O21 6682   4.102   3.729   6.745 -0.6712  0.3001  0.3630
   75SLPC   C21 6683   4.110   3.612   6.681  0.3789  0.2635 -0.6814
   75SLPC   O22 6684   4.214   3.556   6.636  0.2521  0.1029 -0.4258
   75SLPC   C22 6685   3.969   3.557   6.659  0.1909 -0.3476 -0.0726
   75SLPC   H2R 6686   3.892   3.633   6.633 -1.0346 -1.6094 -0.2555
   75SLPC   H2S 6687   3.976   3.478   6.582  1.9439  0.2668 -0.5772
   75SLPC    C3 6688   4.229   3.898   6.874  0.0988 -0.5879 -0.5477
   75SLPC    HX 6689   4.154   3.978   6.856 -1.2098 -0.6007  3.6330
   75SLPC    HY 6690   4.330   3.945   6.863  0.5175 -1.3282  0.0541
   75SLPC   O31 6691   4.208   3.835   7.002 -0.6105 -0.0363  0.2563
   75SLPC   C31 6692   4.297   3.867   7.088  0.4935 -0.1436  0.5574
   75SLPC   O32 6693   4.384   3.950   7.086 -0.5984  0.0590 -0.4282
   75SLPC   C32 6694   4.268   3.763   7.197 -0.2101 -0.0653 -0.4352
   75SLPC   H2X 6695   4.294   3.661   7.162  2.6968  0.0421  1.0826
   75SLPC   H2Y 6696   4.158   3.760   7.210 -0.4291  3.1166 -0.6970
   75SLPC   C23 6697   3.915   3.507   6.796 -0.0596  0.5317 -0.6711
   75SLPC   H3R 6698   3.939   3.583   6.873 -1.6454  0.0911  0.3134
   75SLPC   H3S 6699   3.965   3.413   6.828  0.1991  1.0664  0.5262
   75SLPC   C24 6700   3.759   3.476   6.800  0.5857  0.1153  0.5250
   75SLPC   H4R 6701   3.741   3.397   6.724 -0.2645  0.8696 -0.0662
   75SLPC   H4S 6702   3.709   3.566   6.760  0.2696 -0.0174  0.6169
   75SLPC   C25 6703   3.700   3.427   6.937 -0.6293 -0.0181  0.0331
   75SLPC   H5R 6704   3.722   3.319   6.942  1.8882  0.1548 -3.2416
   75SLPC   H5S 6705   3.593   3.455   6.930 -0.5629  1.0010  2.1517
   75SLPC   C26 6706   3.754   3.504   7.058  0.3578 -0.2622 -0.1507
   75SLPC   H6R 6707   3.756   3.611   7.026  1.0233  0.4938  2.2530
   75SLPC   H6S 6708   3.857   3.466   7.071  0.3088 -0.6622 -0.8810
   75SLPC   C27 6709   3.680   3.487   7.187  0.5435 -0.3908  0.2302
   75SLPC   H7R 6710   3.668   3.378   7.201  1.7744 -0.7751 -1.3778
   75SLPC   H7S 6711   3.582   3.539   7.181  0.3539 -0.9385 -2.6435
   75SLPC   C28 6712   3.757   3.550   7.314 -0.5654  0.3059 -0.5758
   75SLPC   H8R 6713   3.682   3.614   7.365  1.5391  2.5836 -0.1616
   75SLPC   H8S 6714   3.834   3.619   7.275 -0.6159  0.2894 -0.7049
   75SLPC   C29 6715   3.828   3.455   7.408  0.8070 -0.0526  0.1249
   75SLPC   H9R 6716   3.903   3.381   7.375 -0.8853 -3.0093  2.3810
   75SLPC  C210 6717   3.814   3.442   7.540 -0.4044 -0.0463 -0.2952
   75SLPC  H10R 6718   3.874   3.366   7.592 -2.1637 -1.2076  0.1238
   75SLPC  C211 6719   3.716   3.517   7.628 -0.0518  0.3061 -0.5719
   75SLPC  H11R 6720   3.617   3.532   7.579  0.4634  3.2583 -0.8737
   75SLPC  H11S 6721   3.749   3.622   7.641 -0.8968  0.4087  0.9315
   75SLPC  C212 6722   3.686   3.451   7.765  0.2429  0.6155  0.1080
   75SLPC  H12R 6723   3.663   3.344   7.758  0.5056  0.5943 -0.5347
   75SLPC  C213 6724   3.662   3.524   7.878  0.2564  0.3571  1.0392
   75SLPC  H13R 6725   3.647   3.479   7.977 -2.7306  2.7061  1.7988
   75SLPC  C214 6726   3.687   3.674   7.892  0.9204  0.5297  0.0779
   75SLPC  H14R 6727   3.617   3.702   7.974 -0.2435 -0.5637 -0.5193
   75SLPC  H14S 6728   3.640   3.726   7.805  0.8211 -0.3347 -0.3905
   75SLPC  C215 6729   3.825   3.714   7.921  0.1138  0.0112  0.1112
   75SLPC  H15R 6730   3.821   3.823   7.942 -3.7994 -0.0138  0.3477
   75SLPC  H15S 6731   3.896   3.698   7.837  0.2189  0.6962  0.0641
   75SLPC  C216 6732   3.888   3.650   8.054  0.4029  0.8401  0.8143
   75SLPC  H16R 6733   3.899   3.540   8.052 -0.8228  0.6628  2.0731
   75SLPC  H16S 6734   3.809   3.669   8.130  1.7648  0.3367  2.4141
   75SLPC  C217 6735   4.016   3.725   8.087 -0.2877  0.2399 -0.1152
   75SLPC  H17R 6736   4.054   3.691   8.185  1.5699 -0.4399 -1.0294
   75SLPC  H17S 6737   3.999   3.835   8.088  1.3972  0.5417 -1.1016
   75SLPC  C218 6738   4.141   3.697   7.998 -0.3459  0.3981 -0.0461
   75SLPC  H18R 6739   4.172   3.594   8.025  0.1206  1.3495  3.5432
   75SLPC  H18S 6740   4.216   3.779   8.005 -0.5773  0.5262  1.3077
   75SLPC  H18T 6741   4.112   3.676   7.893  1.0549  0.4106 -0.4512
   75SLPC   C33 6742   4.325   3.801   7.337 -0.1979  0.7514 -0.5388
   75SLPC   H3X 6743   4.339   3.909   7.357  1.7740  0.5187 -0.4662
   75SLPC   H3Y 6744   4.260   3.748   7.410  2.1157 -0.4553  0.7433
   75SLPC   C34 6745   4.470   3.736   7.346  0.6948  0.0822 -0.3993
   75SLPC   H4X 6746   4.529   3.786   7.267 -0.6058 -0.9557 -2.0878
   75SLPC   H4Y 6747   4.463   3.626   7.332  0.5386  0.3009 -2.2058
   75SLPC   C35 6748   4.530   3.775   7.483  0.0882 -0.3093 -0.2247
   75SLPC   H5X 6749   4.511   3.882   7.505 -2.2394 -0.7337  0.1261
   75SLPC   H5Y 6750   4.637   3.759   7.459  0.1919  1.7132 -1.3426
   75SLPC   C36 6751   4.481   3.673   7.586 -0.2081 -0.1726  0.0494
   75SLPC   H6X 6752   4.518   3.571   7.565  1.5508  0.1805  1.2490
   75SLPC   H6Y 6753   4.371   3.691   7.592 -0.3393 -0.1695 -1.7576
   75SLPC   C37 6754   4.545   3.721   7.722  0.1988  0.9131  0.5692
   75SLPC   H7X 6755   4.494   3.816   7.751 -1.3612 -0.1844  1.6238
   75SLPC   H7Y 6756   4.653   3.736   7.703 -0.1920  1.1727 -1.7013
   75SLPC   C38 6757   4.510   3.633   7.843  0.2338  0.0556 -0.0275
   75SLPC   H8X 6758   4.556   3.532   7.840  0.5133  0.0253  2.5841
   75SLPC   H8Y 6759   4.399   3.639   7.837  0.0015 -0.2500  2.6355
   75SLPC   C39 6760   4.548   3.709   7.972 -0.5478 -0.7515 -1.0005
   75SLPC   H9X 6761   4.516   3.815   7.973 -0.4971 -0.7210  0.8431
   75SLPC   H9Y 6762   4.658   3.724   7.980 -0.6581  3.1175 -4.0148
   75SLPC  C310 6763   4.506   3.626   8.092 -0.2274  0.3808 -0.0515
   75SLPC  H10X 6764   4.557   3.528   8.088 -2.5158 -0.8767 -0.0101
   75SLPC  H10Y 6765   4.397   3.608   8.085 -0.0769 -0.8432  0.4830
   75SLPC  C311 6766   4.548   3.682   8.233 -0.5756 -0.4368 -0.0705
   75SLPC  H11X 6767   4.478   3.767   8.245  0.3030  0.3853 -0.6928
   75SLPC  H11Y 6768   4.654   3.715   8.225  0.0212 -2.3369 -0.5836
   75SLPC  C312 6769   4.524   3.582   8.350  0.2617 -0.5022 -0.0465
   75SLPC  H12X 6770   4.422   3.538   8.343  0.5230 -1.0584 -0.4027
   75SLPC  H12Y 6771   4.530   3.652   8.436  2.4740 -1.1968  0.4132
   75SLPC  C313 6772   4.614   3.454   8.340 -0.5766  0.0450 -0.1224
   75SLPC  H13X 6773   4.717   3.490   8.325 -1.4249  2.8645  0.3232
   75SLPC  H13Y 6774   4.591   3.394   8.249  2.0743 -2.0249  0.4640
   75SLPC  C314 6775   4.610   3.375   8.474  0.5980 -0.0908  0.3872
   75SLPC  H14X 6776   4.503   3.349   8.489  1.1003 -0.8557  3.2242
   75SLPC  H14Y 6777   4.642   3.435   8.562  0.6306  2.4537 -1.2499
   75SLPC  C315 6778   4.687   3.246   8.466  0.4420 -0.8368  0.3100
   75SLPC  H15X 6779   4.797   3.265   8.468  0.9255 -2.8719 -2.0217
   75SLPC  H15Y 6780   4.653   3.198   8.372  1.5459  0.1962 -0.6523
   75SLPC  C316 6781   4.658   3.143   8.582  0.5186 -0.0067 -0.0653
   75SLPC  H16X 6782   4.548   3.128   8.577  0.2662  1.5751  0.0546
   75SLPC  H16Y 6783   4.684   3.182   8.682  1.9848  0.4728 -0.5956
   75SLPC  C317 6784   4.723   3.006   8.557 -0.1953  0.4404  0.3734
   75SLPC  H17X 6785   4.692   2.968   8.458 -3.0163  3.2626  0.0373
   75SLPC  H17Y 6786   4.683   2.939   8.636 -0.1223 -0.1500 -0.0832
   75SLPC  C318 6787   4.876   2.995   8.574  0.3916 -0.7942 -0.3712
   75SLPC  H18X 6788   4.927   3.082   8.528 -3.1621  1.7108 -0.0193
   75SLPC  H18Y 6789   4.922   2.898   8.550  1.9678 -0.8476  2.4405
   75SLPC  H18Z 6790   4.898   3.015   8.681 -0.0614 -2.2624  0.0123
   76SLPC     N 6791   0.352   3.525   6.529 -0.4810  0.3342  0.1051
   76SLPC   C13 6792   0.486   3.473   6.483  0.2037 -0.2523  0.2790
   76SLPC  H13A 6793   0.555   3.478   6.567  0.4313 -0.7073  0.1219
   76SLPC  H13B 6794   0.474   3.373   6.445 -0.6477  0.0588 -0.2762
   76SLPC  H13C 6795   0.520   3.540   6.406  1.0200  0.9208  1.5997
   76SLPC   C14 6796   0.279   3.572   6.406 -0.1654  0.0564  0.1816
   76SLPC  H14A 6797   0.245   3.485   6.351 -0.7265  0.4194 -0.0609
   76SLPC  H14B 6798   0.188   3.628   6.424 -0.3805  0.1355 -1.0645
   76SLPC  H14C 6799   0.345   3.623   6.338  0.0621  2.5179  2.0904
   76SLPC   C15 6800   0.376   3.626   6.629  0.2663 -0.3771 -0.1139
   76SLPC  H15A 6801   0.463   3.686   6.608 -0.2130  0.7242  0.9450
   76SLPC  H15B 6802   0.296   3.697   6.645  0.7448  0.2278 -0.3873
   76SLPC  H15C 6803   0.387   3.586   6.728  0.6376 -1.2636 -0.4983
   76SLPC   C12 6804   0.286   3.403   6.594  0.6193 -0.2359 -0.2762
   76SLPC  H12A 6805   0.359   3.361   6.661  3.1175  1.9317 -1.4458
   76SLPC  H12B 6806   0.254   3.333   6.518  0.8040  0.0985 -0.6646
   76SLPC   C11 6807   0.155   3.436   6.680 -0.8452  0.3091  0.3354
   76SLPC  H11A 6808   0.191   3.497   6.766  0.4833 -1.2850  0.9770
   76SLPC  H11B 6809   0.114   3.339   6.715 -2.5627  0.0293 -2.1806
   76SLPC     P 6810  -0.071   3.425   6.529  0.1458  0.5402 -0.0269
   76SLPC   O13 6811  -0.103   3.498   6.410 -0.4899  0.0476 -0.3370
   76SLPC   O14 6812  -0.046   3.280   6.517  0.5735  0.4076 -0.1795
   76SLPC   O12 6813   0.051   3.496   6.604  0.4155 -0.1520 -0.0877
   76SLPC   O11 6814  -0.199   3.438   6.616  0.9357 -0.4791  0.5837
   76SLPC    C1 6815  -0.222   3.540   6.715 -0.1983 -0.2165 -0.4006
   76SLPC    HA 6816  -0.123   3.576   6.753  0.7080 -1.4462 -1.5025
   76SLPC    HB 6817  -0.278   3.620   6.663  1.7703  1.0024 -0.7790
   76SLPC    C2 6818  -0.322   3.475   6.825  0.3891  0.3441  0.2138
   76SLPC    HS 6819  -0.406   3.443   6.760  2.0950 -3.3832 -0.4622
   76SLPC   O21 6820  -0.348   3.561   6.932 -0.3360 -0.3289 -0.3178
   76SLPC   C21 6821  -0.467   3.555   6.990  0.3252  0.7521 -0.3018
   76SLPC   O22 6822  -0.557   3.483   6.949 -0.3388 -0.4786  0.1970
   76SLPC   C22 6823  -0.475   3.636   7.108 -0.4350  0.1216 -0.0388
   76SLPC   H2R 6824  -0.390   3.607   7.174 -0.9512 -0.1884  0.4964
   76SLPC   H2S 6825  -0.469   3.742   7.076  1.6625  0.8236  2.3338
   76SLPC    C3 6826  -0.261   3.338   6.878 -0.4813 -0.3981 -0.4275
   76SLPC    HX 6827  -0.169   3.352   6.939 -0.7768  0.1343 -0.0969
   76SLPC    HY 6828  -0.231   3.283   6.786  0.8392 -0.6945  0.1513
   76SLPC   O31 6829  -0.348   3.245   6.945  0.3931  0.1435  0.7005
   76SLPC   C31 6830  -0.340   3.246   7.080  0.2766 -0.0913 -0.0086
   76SLPC   O32 6831  -0.247   3.298   7.143 -0.0684  0.4281 -0.1347
   76SLPC   C32 6832  -0.436   3.146   7.133 -0.7296  0.0830  0.1701
   76SLPC   H2X 6833  -0.391   3.046   7.154 -0.1740  0.3517  0.2708
   76SLPC   H2Y 6834  -0.510   3.117   7.055 -0.2263 -0.9265  0.0455
   76SLPC   C23 6835  -0.605   3.609   7.191 -0.1932 -0.1322  0.4280
   76SLPC   H3R 6836  -0.601   3.499   7.197  0.5137 -0.0982  0.6218
   76SLPC   H3S 6837  -0.696   3.644   7.136 -0.3406  0.1739  0.8600
   76SLPC   C24 6838  -0.605   3.668   7.340  0.1176 -0.0416  0.1450
   76SLPC   H4R 6839  -0.631   3.776   7.328  1.1821  0.0967 -1.1693
   76SLPC   H4S 6840  -0.504   3.670   7.386  0.1881  1.3124 -0.0194
   76SLPC   C25 6841  -0.706   3.603   7.436  0.4048 -0.3031 -0.0877
   76SLPC   H5R 6842  -0.698   3.493   7.427  0.7414 -0.3268  0.5025
   76SLPC   H5S 6843  -0.812   3.624   7.407  0.3003  1.5745  1.4028
   76SLPC   C26 6844  -0.697   3.660   7.573 -0.2814  0.3040  0.3671
   76SLPC   H6R 6845  -0.713   3.769   7.586 -1.7425  0.0736  0.7168
   76SLPC   H6S 6846  -0.589   3.652   7.598  0.2277  2.3068 -0.9447
   76SLPC   C27 6847  -0.778   3.586   7.677  0.0496 -0.0009  0.4943
   76SLPC   H7R 6848  -0.753   3.477   7.675 -1.4312 -0.3619 -1.2909
   76SLPC   H7S 6849  -0.877   3.582   7.626  0.3846  0.0036 -0.1688
   76SLPC   C28 6850  -0.791   3.646   7.815  0.1621 -0.2332 -0.0474
   76SLPC   H8R 6851  -0.851   3.738   7.801 -0.6903 -0.2491  2.9228
   76SLPC   H8S 6852  -0.856   3.571   7.864 -0.2204 -1.0821 -1.7646
   76SLPC   C29 6853  -0.665   3.668   7.887  0.1577 -0.2715  0.1028
   76SLPC   H9R 6854  -0.573   3.620   7.851  1.7241  0.7513  2.5083
   76SLPC  C210 6855  -0.650   3.750   7.993 -0.5243  0.0777 -0.1178
   76SLPC  H10R 6856  -0.547   3.769   8.029 -1.4096  1.3543  1.8987
   76SLPC  C211 6857  -0.757   3.837   8.050 -0.2667  0.8028 -0.7042
   76SLPC  H11R 6858  -0.854   3.830   7.996 -0.2352  1.8365 -0.9200
   76SLPC  H11S 6859  -0.726   3.939   8.020 -0.6916  0.7545 -1.3226
   76SLPC  C212 6860  -0.780   3.815   8.199 -0.5929 -0.0485  0.4159
   76SLPC  H12R 6861  -0.825   3.716   8.210 -0.0259 -0.5122 -1.1853
   76SLPC  C213 6862  -0.738   3.888   8.309 -0.4364 -0.9013  1.0341
   76SLPC  H13R 6863  -0.774   3.857   8.408 -4.0329  0.7976  0.4121
   76SLPC  C214 6864  -0.662   4.016   8.305  0.3058  0.3155 -0.6160
   76SLPC  H14R 6865  -0.720   4.107   8.278  0.1226  0.4009  0.0255
   76SLPC  H14S 6866  -0.571   4.011   8.242  1.9169  1.6363  1.4648
   76SLPC  C215 6867  -0.611   4.061   8.451 -0.2330  0.0652  0.5731
   76SLPC  H15R 6868  -0.568   4.161   8.429 -0.1894 -0.2220 -0.6933
   76SLPC  H15S 6869  -0.534   3.992   8.492  1.9440  3.0992  1.9705
   76SLPC  C216 6870  -0.720   4.069   8.559 -0.2433 -0.2902  0.4088
   76SLPC  H16R 6871  -0.762   3.972   8.592 -0.0374 -0.3833  0.3979
   76SLPC  H16S 6872  -0.805   4.122   8.510 -2.0972 -3.0528  0.4161
   76SLPC  C217 6873  -0.664   4.133   8.687  0.0895 -0.1278  0.2973
   76SLPC  H17R 6874  -0.626   4.234   8.658 -0.2349 -0.1735 -0.3002
   76SLPC  H17S 6875  -0.567   4.089   8.720  0.5828  1.4145  0.9804
   76SLPC  C218 6876  -0.764   4.137   8.807 -0.4910 -0.5582 -0.3620
   76SLPC  H18R 6877  -0.775   4.038   8.856  1.4004 -0.4345  0.3709
   76SLPC  H18S 6878  -0.861   4.179   8.771  0.9379  0.0097 -4.0816
   76SLPC  H18T 6879  -0.726   4.197   8.892  0.8879 -0.1698 -1.2109
   76SLPC   C33 6880  -0.527   3.202   7.244  0.1419 -0.3989  0.0770
   76SLPC   H3X 6881  -0.624   3.150   7.234 -1.3537  2.0203  1.1991
   76SLPC   H3Y 6882  -0.550   3.310   7.228  0.0245 -0.2377  1.2684
   76SLPC   C34 6883  -0.460   3.188   7.385 -0.2086  0.2917 -0.4357
   76SLPC   H4X 6884  -0.367   3.249   7.394  0.3183 -0.7231  1.7081
   76SLPC   H4Y 6885  -0.435   3.080   7.399 -0.3313  0.1116 -1.5258
   76SLPC   C35 6886  -0.560   3.230   7.490 -0.6441  0.2489 -0.4681
   76SLPC   H5X 6887  -0.661   3.187   7.476 -0.1353 -1.5301  0.9750
   76SLPC   H5Y 6888  -0.562   3.341   7.497  1.0550  0.2225  1.1485
   76SLPC   C36 6889  -0.514   3.179   7.629 -0.5463 -0.4246  0.3297
   76SLPC   H6X 6890  -0.404   3.164   7.630 -0.5265 -0.6190 -1.4804
   76SLPC   H6Y 6891  -0.557   3.076   7.630 -0.0488 -0.6379  1.3954
   76SLPC   C37 6892  -0.572   3.244   7.750 -0.0665 -0.8229  0.0138
   76SLPC   H7X 6893  -0.683   3.249   7.745  0.0166  1.4386 -0.9448
   76SLPC   H7Y 6894  -0.551   3.353   7.743 -0.1385 -0.7340  1.0472
   76SLPC   C38 6895  -0.529   3.193   7.884  0.4569  0.3007  0.0348
   76SLPC   H8X 6896  -0.420   3.213   7.897  0.5794 -1.6677  3.0867
   76SLPC   H8Y 6897  -0.530   3.082   7.880  1.9695  0.3133 -2.4688
   76SLPC   C39 6898  -0.614   3.255   7.995  0.2443 -0.1795 -0.1681
   76SLPC   H9X 6899  -0.702   3.189   8.008  0.4500 -0.0480  2.5216
   76SLPC   H9Y 6900  -0.668   3.347   7.963 -1.4521 -2.1619 -3.4551
   76SLPC  C310 6901  -0.532   3.269   8.127 -0.0764 -1.4528  0.5290
   76SLPC  H10X 6902  -0.438   3.326   8.108 -0.5655 -1.2036 -1.3261
   76SLPC  H10Y 6903  -0.484   3.173   8.156  0.9307 -0.4077  2.5174
   76SLPC  C311 6904  -0.614   3.339   8.241  0.1777 -0.0862 -0.3782
   76SLPC  H11X 6905  -0.699   3.270   8.255 -0.7817  1.4514  2.0339
   76SLPC  H11Y 6906  -0.664   3.432   8.205  1.8091  0.6857 -0.7598
   76SLPC  C312 6907  -0.539   3.387   8.361  0.1702  0.7184 -0.3609
   76SLPC  H12X 6908  -0.452   3.449   8.333  1.6089 -1.0424  0.0368
   76SLPC  H12Y 6909  -0.493   3.299   8.411 -3.9575 -1.1498  0.6059
   76SLPC  C313 6910  -0.626   3.473   8.449 -0.1835 -0.2579 -0.2245
   76SLPC  H13X 6911  -0.678   3.551   8.390  0.8523 -0.6555 -1.7177
   76SLPC  H13Y 6912  -0.562   3.530   8.520 -1.4501  1.2545 -0.2389
   76SLPC  C314 6913  -0.733   3.398   8.534 -0.7611 -0.2328 -1.1665
   76SLPC  H14X 6914  -0.805   3.347   8.466  0.1738 -1.8878 -0.9678
   76SLPC  H14Y 6915  -0.783   3.475   8.596 -1.5597 -1.8705  0.3092
   76SLPC  C315 6916  -0.659   3.308   8.638  0.2711 -0.7073 -0.4501
   76SLPC  H15X 6917  -0.590   3.240   8.583 -0.3900 -2.1031  0.3768
   76SLPC  H15Y 6918  -0.727   3.236   8.690 -1.9486  0.1438 -1.9881
   76SLPC  C316 6919  -0.579   3.386   8.742  0.4260 -0.1380  0.7276
   76SLPC  H16X 6920  -0.643   3.472   8.772 -1.5120 -1.9977  2.2265
   76SLPC  H16Y 6921  -0.491   3.430   8.690 -1.1497 -0.7201 -2.7914
   76SLPC  C317 6922  -0.525   3.311   8.870 -0.4138 -0.0460  0.5415
   76SLPC  H17X 6923  -0.450   3.239   8.831 -3.3343 -2.0908 -1.8470
   76SLPC  H17Y 6924  -0.612   3.250   8.900 -2.8617  2.1134 -1.6178
   76SLPC  C318 6925  -0.467   3.391   8.985  0.0618  0.5961 -0.4968
   76SLPC  H18X 6926  -0.375   3.448   8.959 -0.1618  0.4807 -1.5621
   76SLPC  H18Y 6927  -0.439   3.314   9.060  0.6009  0.5094 -0.7857
   76SLPC  H18Z 6928  -0.534   3.473   9.020 -0.4042  0.7101 -1.5973
   77SLPC     N 6929   2.128   1.302   5.976  0.2290 -0.1788 -0.3195
   77SLPC   C13 6930   2.132   1.268   5.827 -0.5347 -0.7728 -0.8363
   77SLPC  H13A 6931   2.058   1.329   5.778 -0.2353  0.9939  0.7553
   77SLPC  H13B 6932   2.232   1.289   5.792 -1.1729  1.1927 -1.6589
   77SLPC  H13C 6933   2.108   1.164   5.819  1.6523 -1.3329 -0.8327
   77SLPC   C14 6934   2.124   1.449   6.000 -0.0278  0.1219 -0.0511
   77SLPC  H14A 6935   2.033   1.481   5.953  1.0330  1.0131 -1.5768
   77SLPC  H14B 6936   2.129   1.472   6.105 -1.9310  0.4877 -0.0155
   77SLPC  H14C 6937   2.207   1.505   5.960 -0.7385  1.4045  0.2253
   77SLPC   C15 6938   2.250   1.242   6.049 -0.3932 -0.4808  0.0688
   77SLPC  H15A 6939   2.339   1.296   6.017  0.0263 -0.5761  1.0361
   77SLPC  H15B 6940   2.233   1.244   6.155 -2.0098  0.0363 -0.1694
   77SLPC  H15C 6941   2.261   1.139   6.020  0.1852 -0.0041 -1.5750
   77SLPC   C12 6942   1.998   1.245   6.021  0.6208  0.2429  0.0931
   77SLPC  H12A 6943   1.997   1.247   6.129 -0.1006  1.3469  0.0798
   77SLPC  H12B 6944   1.996   1.139   6.002  2.1544 -0.0454  1.2823
   77SLPC   C11 6945   1.866   1.320   6.005 -0.1206  0.0276 -0.1101
   77SLPC  H11A 6946   1.783   1.246   6.004  1.1936 -1.4829 -0.5656
   77SLPC  H11B 6947   1.867   1.361   5.901 -0.5191 -0.9685 -0.5256
   77SLPC     P 6948   1.763   1.427   6.209 -0.3830 -0.0339  0.2949
   77SLPC   O13 6949   1.625   1.465   6.172  0.0359  0.3284  0.2762
   77SLPC   O14 6950   1.783   1.295   6.272  0.1632 -0.8463 -0.2454
   77SLPC   O12 6951   1.853   1.436   6.085  0.0131  0.4473 -0.4509
   77SLPC   O11 6952   1.835   1.529   6.308 -0.9549  0.4037 -0.1506
   77SLPC    C1 6953   1.970   1.496   6.354 -0.0795 -0.0359 -0.2558
   77SLPC    HA 6954   1.997   1.389   6.347  4.2043  0.8203  0.2901
   77SLPC    HB 6955   2.051   1.548   6.298  0.3948  1.8419  1.9920
   77SLPC    C2 6956   1.990   1.535   6.504 -0.4795  0.0047  0.2993
   77SLPC    HS 6957   2.097   1.531   6.533  0.1979 -0.1618 -2.0034
   77SLPC   O21 6958   1.905   1.459   6.591  0.1057 -0.4355 -0.3285
   77SLPC   C21 6959   1.970   1.349   6.628 -0.1983 -0.1735  0.2935
   77SLPC   O22 6960   2.073   1.306   6.585 -0.3278 -0.0392 -0.2360
   77SLPC   C22 6961   1.899   1.289   6.747  0.2060 -0.6848  1.0879
   77SLPC   H2R 6962   1.801   1.262   6.703  1.5792 -0.9772 -2.0616
   77SLPC   H2S 6963   1.949   1.198   6.786 -0.1302 -2.0202 -1.4013
   77SLPC    C3 6964   1.945   1.679   6.531  0.6027  0.2146 -0.2448
   77SLPC    HX 6965   1.834   1.677   6.520  0.7019  1.0911 -1.5653
   77SLPC    HY 6966   1.989   1.750   6.459 -0.4402  1.8458  0.6634
   77SLPC   O31 6967   1.987   1.727   6.655  0.0492 -0.5112  0.1508
   77SLPC   C31 6968   1.890   1.744   6.752  0.5774 -0.2926  0.4324
   77SLPC   O32 6969   1.778   1.705   6.752 -0.3000 -0.2150 -0.5540
   77SLPC   C32 6970   1.949   1.829   6.859 -0.3247 -0.1201  0.4645
   77SLPC   H2X 6971   1.942   1.935   6.828  0.8725 -0.1019  0.2138
   77SLPC   H2Y 6972   2.055   1.799   6.869 -0.1395  0.6241  0.8051
   77SLPC   C23 6973   1.882   1.384   6.863 -0.2064  0.4195  0.0079
   77SLPC   H3R 6974   1.821   1.330   6.938 -0.8539 -0.5869 -1.2197
   77SLPC   H3S 6975   1.824   1.472   6.827  1.3407  0.9197 -1.4034
   77SLPC   C24 6976   2.012   1.426   6.931 -0.4877 -0.0342  0.0414
   77SLPC   H4R 6977   2.064   1.505   6.874 -3.1578  2.7444  1.2246
   77SLPC   H4S 6978   2.067   1.329   6.935 -3.9314 -2.1287  0.2799
   77SLPC   C25 6979   1.997   1.483   7.069  0.2039  0.5768  0.1474
   77SLPC   H5R 6980   1.898   1.530   7.085 -0.1830  0.2677 -1.2577
   77SLPC   H5S 6981   2.077   1.560   7.077  0.2784  1.0223 -3.3646
   77SLPC   C26 6982   2.022   1.373   7.175  0.2029 -0.3424 -0.4414
   77SLPC   H6R 6983   2.096   1.298   7.141  1.1322  1.0617 -1.6051
   77SLPC   H6S 6984   1.925   1.330   7.209  0.2811 -0.1219  0.0773
   77SLPC   C27 6985   2.102   1.434   7.295 -0.8391  0.2862 -0.2313
   77SLPC   H7R 6986   2.198   1.477   7.262 -0.6144  0.8313  1.0790
   77SLPC   H7S 6987   2.135   1.347   7.356 -1.0066  1.0108  0.9243
   77SLPC   C28 6988   2.030   1.537   7.388 -0.5129  0.2445  0.4272
   77SLPC   H8R 6989   1.936   1.488   7.420  0.6355 -2.0424  0.5423
   77SLPC   H8S 6990   1.996   1.626   7.330  1.1218 -0.9907 -2.6935
   77SLPC   C29 6991   2.111   1.580   7.509 -0.3102 -0.9087  0.0172
   77SLPC   H9R 6992   2.203   1.640   7.503 -1.2708  0.6942  0.7704
   77SLPC  C210 6993   2.082   1.533   7.634 -0.7391 -0.0243  0.1862
   77SLPC  H10R 6994   2.129   1.573   7.725  0.3860 -1.7531  0.4296
   77SLPC  C211 6995   1.972   1.431   7.668  0.9523 -0.5392 -0.2850
   77SLPC  H11R 6996   1.979   1.349   7.593  0.3040  0.4983 -1.5119
   77SLPC  H11S 6997   1.877   1.484   7.648  0.9432 -0.2066  0.6246
   77SLPC  C212 6998   1.975   1.372   7.815 -0.0208 -0.0229 -0.1817
   77SLPC  H12R 6999   2.064   1.401   7.874 -0.4662 -0.6825  0.8549
   77SLPC  C213 7000   1.882   1.294   7.873 -0.0910  0.0462  0.0303
   77SLPC  H13R 7001   1.899   1.257   7.976 -2.1648 -0.9463  0.0672
   77SLPC  C214 7002   1.760   1.239   7.806  0.6445  0.6154  0.2462
   77SLPC  H14R 7003   1.762   1.128   7.819 -5.1564  0.2174  0.0496
   77SLPC  H14S 7004   1.754   1.258   7.697 -2.5586 -0.8152  0.0750
   77SLPC  C215 7005   1.619   1.287   7.865 -0.7479 -0.6381  0.0446
   77SLPC  H15R 7006   1.553   1.274   7.777 -0.6521 -1.9879  0.1572
   77SLPC  H15S 7007   1.638   1.394   7.890 -3.6493 -0.1552  0.4815
   77SLPC  C216 7008   1.575   1.212   7.988  0.2876  0.2116 -0.6057
   77SLPC  H16R 7009   1.663   1.224   8.055 -0.1882  0.6201 -0.0373
   77SLPC  H16S 7010   1.559   1.103   7.973  1.0848 -0.2093  1.2832
   77SLPC  C217 7011   1.468   1.280   8.055  1.2365 -0.3029 -0.0634
   77SLPC  H17R 7012   1.394   1.317   7.981  1.4089 -1.2021 -0.7126
   77SLPC  H17S 7013   1.509   1.372   8.103  2.3224 -1.4546  1.3172
   77SLPC  C218 7014   1.388   1.190   8.147 -0.3214 -0.4690  0.5028
   77SLPC  H18R 7015   1.297   1.246   8.177  0.0150  0.7194 -0.6182
   77SLPC  H18S 7016   1.445   1.164   8.239 -1.0333  0.7798  1.3103
   77SLPC  H18T 7017   1.356   1.091   8.106  0.5718 -0.8024  0.5794
   77SLPC   C33 7018   1.878   1.823   6.996  0.0058 -0.1752  0.3958
   77SLPC   H3X 7019   1.852   1.720   7.029  0.9791 -0.8697 -0.9173
   77SLPC   H3Y 7020   1.785   1.884   6.988 -0.4907 -0.8730  0.7500
   77SLPC   C34 7021   1.972   1.874   7.110  0.2210 -0.0836 -0.4460
   77SLPC   H4X 7022   2.000   1.980   7.093 -0.6733 -0.0036 -1.5627
   77SLPC   H4Y 7023   2.054   1.801   7.128 -1.0401 -1.9643 -1.8596
   77SLPC   C35 7024   1.898   1.877   7.249  0.1422  0.3137 -0.0981
   77SLPC   H5X 7025   1.853   1.778   7.274  0.7691 -0.2328 -1.0962
   77SLPC   H5Y 7026   1.816   1.950   7.266 -0.9612 -0.9230 -0.0026
   77SLPC   C36 7027   1.992   1.905   7.372  0.5571  0.1786 -0.2535
   77SLPC   H6X 7028   2.030   2.009   7.368 -0.3836  0.5408 -0.0234
   77SLPC   H6Y 7029   2.067   1.823   7.380  1.3073  0.8893  0.2397
   77SLPC   C37 7030   1.905   1.900   7.496  0.4595 -0.8942  0.4366
   77SLPC   H7X 7031   1.900   1.792   7.519 -1.6821 -0.6529  1.2576
   77SLPC   H7Y 7032   1.803   1.941   7.486  1.3258  1.2311 -0.2507
   77SLPC   C38 7033   1.971   1.964   7.615 -0.5480 -0.4876  0.0617
   77SLPC   H8X 7034   1.970   2.074   7.599 -0.4680 -0.4212  0.5005
   77SLPC   H8Y 7035   2.077   1.932   7.611 -0.0350  0.2769  4.0975
   77SLPC   C39 7036   1.910   1.920   7.751  0.1137 -0.6029  0.2959
   77SLPC   H9X 7037   1.953   1.822   7.783  2.4280 -0.6773 -2.5749
   77SLPC   H9Y 7038   1.802   1.915   7.728  0.4669 -0.6533 -1.5397
   77SLPC  C310 7039   1.923   2.026   7.867 -0.9434  0.7113 -0.2824
   77SLPC  H10X 7040   1.905   2.131   7.837  1.3610  2.1799  2.8732
   77SLPC  H10Y 7041   2.027   2.035   7.905 -1.3122 -0.1287  1.0151
   77SLPC  C311 7042   1.822   1.987   7.985 -0.5924 -0.4735  0.4148
   77SLPC  H11X 7043   1.847   1.883   8.015 -0.3617 -0.4437  0.3268
   77SLPC  H11Y 7044   1.722   1.994   7.937  0.2002  0.5580 -1.1829
   77SLPC  C312 7045   1.831   2.083   8.105  0.0352 -0.1528  0.0583
   77SLPC  H12X 7046   1.785   2.179   8.071  0.9589  0.3256  0.1499
   77SLPC  H12Y 7047   1.937   2.106   8.125  0.0639 -0.7969  0.6756
   77SLPC  C313 7048   1.766   2.026   8.228  0.6605 -0.0115 -0.4303
   77SLPC  H13X 7049   1.827   1.936   8.252  1.8071  1.2477  1.7952
   77SLPC  H13Y 7050   1.663   2.008   8.193  0.0140  2.3502  0.0487
   77SLPC  C314 7051   1.768   2.140   8.333 -0.2117  0.2762 -0.5818
   77SLPC  H14X 7052   1.742   2.238   8.288 -0.3423 -0.5736 -2.4496
   77SLPC  H14Y 7053   1.871   2.142   8.374  0.7060  0.9313 -2.7910
   77SLPC  C315 7054   1.662   2.114   8.447  0.2525 -0.4104  0.3391
   77SLPC  H15X 7055   1.691   2.160   8.543  1.1229 -0.5894  0.1637
   77SLPC  H15Y 7056   1.667   2.005   8.463  1.9808 -0.1254  2.0733
   77SLPC  C316 7057   1.518   2.154   8.411 -0.1035  0.4210 -0.7241
   77SLPC  H16X 7058   1.499   2.105   8.313 -0.1499 -0.8903 -0.0874
   77SLPC  H16Y 7059   1.514   2.265   8.405  2.6838  0.6304 -0.1206
   77SLPC  C317 7060   1.411   2.103   8.515  0.1657 -0.4624 -0.2676
   77SLPC  H17X 7061   1.422   2.153   8.613  1.9875  1.7843 -1.5189
   77SLPC  H17Y 7062   1.433   1.994   8.520 -3.1017 -1.1560  1.6978
   77SLPC  C318 7063   1.272   2.115   8.460  0.7366 -0.2726 -0.8682
   77SLPC  H18X 7064   1.197   2.062   8.523  1.1832 -1.2913 -1.1864
   77SLPC  H18Y 7065   1.259   2.083   8.355  1.0884  1.4440 -1.4742
   77SLPC  H18Z 7066   1.227   2.217   8.457 -0.1545 -0.5426  1.3920
   78SLPC     N 7067   4.744   2.438   6.036  0.0692  0.5830  0.4756
   78SLPC   C13 7068   4.883   2.480   6.066  0.6526 -0.9101  0.4678
   78SLPC  H13A 7069   4.884   2.588   6.072 -1.9177 -0.6282 -2.0901
   78SLPC  H13B 7070   4.915   2.431   6.157  0.5187 -0.3488  0.8231
   78SLPC  H13C 7071   4.952   2.438   5.995  1.1302  0.0037  0.3798
   78SLPC   C14 7072   4.710   2.315   6.111 -0.7483  0.3408  1.3299
   78SLPC  H14A 7073   4.709   2.332   6.218 -2.7786 -0.0761  1.4123
   78SLPC  H14B 7074   4.614   2.270   6.093 -0.3434  0.0610 -0.3810
   78SLPC  H14C 7075   4.781   2.235   6.092 -1.6867 -0.1892 -0.0666
   78SLPC   C15 7076   4.743   2.409   5.886 -0.0293  0.2887 -0.1574
   78SLPC  H15A 7077   4.762   2.495   5.824 -0.3764  1.2338  1.0097
   78SLPC  H15B 7078   4.821   2.336   5.872  1.4724  2.0479 -1.4990
   78SLPC  H15C 7079   4.648   2.359   5.875  0.6489 -0.8666 -0.9781
   78SLPC   C12 7080   4.648   2.552   6.071  0.2100 -0.9343 -0.5329
   78SLPC  H12A 7081   4.548   2.517   6.051 -0.2449  0.3292 -0.5758
   78SLPC  H12B 7082   4.666   2.636   6.005  0.3939 -0.5705 -0.0284
   78SLPC   C11 7083   4.657   2.607   6.221  0.1127 -0.7021  0.7307
   78SLPC  H11A 7084   4.665   2.524   6.294 -2.7562 -0.8506  0.9987
   78SLPC  H11B 7085   4.558   2.655   6.237  0.5160  0.6358 -0.5433
   78SLPC     P 7086   4.744   2.840   6.164  0.2763  0.0443 -0.3844
   78SLPC   O13 7087   4.879   2.886   6.133 -0.4151 -0.5868 -0.4706
   78SLPC   O14 7088   4.637   2.834   6.062  0.1852  0.1519 -1.0382
   78SLPC   O12 7089   4.753   2.706   6.239  0.5058  0.4279  0.3590
   78SLPC   O11 7090   4.700   2.942   6.280  0.2727  1.0650 -0.0386
   78SLPC    C1 7091   4.739   2.934   6.420 -0.2624 -0.4629  0.2284
   78SLPC    HA 7092   4.845   2.903   6.425  1.0198  2.9855 -1.9061
   78SLPC    HB 7093   4.730   3.036   6.462 -0.4642  0.2247 -1.4102
   78SLPC    C2 7094   4.657   2.829   6.508 -0.1439 -0.5050 -0.3268
   78SLPC    HS 7095   4.682   2.727   6.472 -0.7688 -0.1468 -1.8439
   78SLPC   O21 7096   4.517   2.863   6.499  0.5186 -0.6759 -0.6301
   78SLPC   C21 7097   4.429   2.754   6.509 -0.2963  0.1655 -0.1710
   78SLPC   O22 7098   4.465   2.640   6.509  0.2882 -0.1696  0.1052
   78SLPC   C22 7099   4.280   2.798   6.522  0.2633 -0.4393 -0.1812
   78SLPC   H2R 7100   4.280   2.904   6.557 -0.8152 -0.6192  0.4006
   78SLPC   H2S 7101   4.235   2.789   6.422 -2.0750 -0.5123  0.8193
   78SLPC    C3 7102   4.683   2.840   6.660  0.3530  0.2285 -0.1094
   78SLPC    HX 7103   4.641   2.933   6.703  2.2192  1.7484 -1.4228
   78SLPC    HY 7104   4.794   2.851   6.666  0.4049  0.4595 -1.2364
   78SLPC   O31 7105   4.640   2.718   6.736 -0.0582  0.0390  0.3651
   78SLPC   C31 7106   4.716   2.608   6.724 -0.3945  0.4342 -0.1862
   78SLPC   O32 7107   4.825   2.602   6.665 -0.6260 -0.2009 -0.2015
   78SLPC   C32 7108   4.637   2.487   6.789 -0.2796 -0.0298  0.3858
   78SLPC   H2X 7109   4.581   2.442   6.705  0.2408 -0.1870  0.1186
   78SLPC   H2Y 7110   4.570   2.524   6.870  0.8805 -0.5447  1.6293
   78SLPC   C23 7111   4.202   2.698   6.613  0.7055 -0.2741 -0.4609
   78SLPC   H3R 7112   4.205   2.599   6.564  2.2511 -0.7117  0.4340
   78SLPC   H3S 7113   4.097   2.730   6.625  1.1177  1.2147 -0.5315
   78SLPC   C24 7114   4.259   2.682   6.756  0.2487 -0.3515  0.5111
   78SLPC   H4R 7115   4.320   2.770   6.787  0.1337 -0.0274 -0.1647
   78SLPC   H4S 7116   4.328   2.597   6.743  1.2946  0.7975 -2.0904
   78SLPC   C25 7117   4.155   2.648   6.860  0.3920 -0.7740  0.4461
   78SLPC   H5R 7118   4.090   2.563   6.831 -1.5879  0.3074  1.5355
   78SLPC   H5S 7119   4.095   2.742   6.860 -0.1049 -1.0694 -0.9519
   78SLPC   C26 7120   4.200   2.630   7.001  0.5327 -0.3740 -0.1905
   78SLPC   H6R 7121   4.257   2.538   7.027  1.8277  0.3534 -0.3937
   78SLPC   H6S 7122   4.104   2.618   7.056 -0.8321 -4.0011 -2.9743
   78SLPC   C27 7123   4.279   2.748   7.062 -0.2913 -0.2303  0.2401
   78SLPC   H7R 7124   4.237   2.842   7.021  0.1894  1.4153  3.2155
   78SLPC   H7S 7125   4.382   2.744   7.021 -0.8419  1.7400 -1.4684
   78SLPC   C28 7126   4.270   2.758   7.212  0.2558 -0.7557  0.0848
   78SLPC   H8R 7127   4.161   2.769   7.228  0.1231  2.9536 -2.1630
   78SLPC   H8S 7128   4.315   2.854   7.245 -2.1216  0.5046 -0.1697
   78SLPC   C29 7129   4.326   2.640   7.281 -0.4268 -0.3694  0.1285
   78SLPC   H9R 7130   4.370   2.564   7.216 -0.3126 -2.0422  2.0672
   78SLPC  C210 7131   4.293   2.620   7.410  0.3838 -0.5017  0.5011
   78SLPC  H10R 7132   4.349   2.538   7.458  1.7303 -0.5403 -1.0757
   78SLPC  C211 7133   4.216   2.707   7.504  0.5004 -0.6548  0.6026
   78SLPC  H11R 7134   4.111   2.675   7.515  0.4847 -1.8437 -2.2390
   78SLPC  H11S 7135   4.200   2.804   7.452  1.4234 -0.4574  0.6628
   78SLPC  C212 7136   4.300   2.731   7.635  0.0326  0.5936 -0.4251
   78SLPC  H12R 7137   4.382   2.795   7.600 -2.7675  0.9915 -8.1717
   78SLPC  C213 7138   4.272   2.699   7.760  0.6885  0.2111  0.4426
   78SLPC  H13R 7139   4.332   2.721   7.849 -1.4247  1.1151  1.7262
   78SLPC  C214 7140   4.146   2.623   7.800  0.0168  0.2630  0.2213
   78SLPC  H14R 7141   4.111   2.563   7.714 -0.8297 -0.8808  1.3283
   78SLPC  H14S 7142   4.063   2.689   7.833 -0.1628  0.7258 -1.0977
   78SLPC  C215 7143   4.178   2.531   7.917  0.3451  0.2207  0.1562
   78SLPC  H15R 7144   4.271   2.475   7.892 -0.5055 -0.3492 -1.9337
   78SLPC  H15S 7145   4.104   2.448   7.924  3.0726 -2.3046  2.1555
   78SLPC  C216 7146   4.193   2.595   8.054  0.2462 -0.1970  0.5381
   78SLPC  H16R 7147   4.244   2.692   8.032 -2.3074  1.3810  1.2223
   78SLPC  H16S 7148   4.253   2.528   8.119  0.9245  0.1213  0.2567
   78SLPC  C217 7149   4.051   2.628   8.097  0.3457 -0.3239 -0.5103
   78SLPC  H17R 7150   3.995   2.532   8.091 -0.4619  0.0365  0.9237
   78SLPC  H17S 7151   3.992   2.698   8.035  0.1844  0.9050  0.9869
   78SLPC  C218 7152   4.049   2.689   8.236  0.2539  0.0472  0.8019
   78SLPC  H18R 7153   4.087   2.793   8.224  1.5093 -0.4693  0.0099
   78SLPC  H18S 7154   4.122   2.632   8.297  1.1595  0.4423  0.1154
   78SLPC  H18T 7155   3.943   2.692   8.268 -0.4488  0.4261 -1.3837
   78SLPC   C33 7156   4.724   2.388   6.861 -0.8793  1.0418  0.2692
   78SLPC   H3X 7157   4.805   2.347   6.796 -0.0419  0.6662  1.5000
   78SLPC   H3Y 7158   4.667   2.298   6.895  2.3701 -1.0662  0.5860
   78SLPC   C34 7159   4.806   2.453   6.980 -0.7274 -0.0255  0.3672
   78SLPC   H4X 7160   4.854   2.549   6.954 -1.2867  0.5954  1.5477
   78SLPC   H4Y 7161   4.889   2.389   7.019  0.6501  1.3652 -0.1954
   78SLPC   C35 7162   4.706   2.482   7.093  0.3099 -0.3108 -0.2838
   78SLPC   H5X 7163   4.656   2.387   7.121  0.8255 -0.0578  1.6590
   78SLPC   H5Y 7164   4.630   2.558   7.064  0.1364 -1.0263 -1.8397
   78SLPC   C36 7165   4.780   2.536   7.226  0.1449  0.9193  0.9273
   78SLPC   H6X 7166   4.836   2.626   7.192 -0.2743  0.5040 -0.9548
   78SLPC   H6Y 7167   4.854   2.462   7.263  0.9750  1.1439 -0.1991
   78SLPC   C37 7168   4.682   2.563   7.339 -0.1963 -0.3909 -0.4058
   78SLPC   H7X 7169   4.606   2.484   7.322 -1.8370  1.0050  0.1733
   78SLPC   H7Y 7170   4.632   2.661   7.330  0.2045  0.5753  4.7601
   78SLPC   C38 7171   4.744   2.540   7.477 -0.2198  0.3030 -1.0783
   78SLPC   H8X 7172   4.832   2.606   7.485  0.9617 -1.1698 -1.4192
   78SLPC   H8Y 7173   4.775   2.433   7.485 -0.3346  0.3320 -0.1503
   78SLPC   C39 7174   4.637   2.569   7.586 -0.0671 -0.5636  0.0607
   78SLPC   H9X 7175   4.549   2.505   7.564 -0.4816 -0.3502  1.0917
   78SLPC   H9Y 7176   4.595   2.671   7.576  0.7648  0.1659  3.0415
   78SLPC  C310 7177   4.688   2.535   7.722 -0.2988  0.3317 -0.0688
   78SLPC  H10X 7178   4.793   2.564   7.745  0.0011 -0.1435 -0.8198
   78SLPC  H10Y 7179   4.695   2.426   7.741 -0.0706  0.2629 -0.5307
   78SLPC  C311 7180   4.602   2.588   7.843 -0.8585  0.3054  0.0105
   78SLPC  H11X 7181   4.496   2.555   7.845 -0.5515 -0.6553  1.4469
   78SLPC  H11Y 7182   4.605   2.697   7.822  0.2561  0.6480  1.7520
   78SLPC  C312 7183   4.643   2.562   7.989  0.0304 -0.6098 -0.0425
   78SLPC  H12X 7184   4.571   2.621   8.049 -0.3045  0.7286 -1.6746
   78SLPC  H12Y 7185   4.744   2.606   8.004 -0.8456  2.1072 -1.3505
   78SLPC  C313 7186   4.632   2.408   8.023 -0.7444  0.1176 -0.1274
   78SLPC  H13X 7187   4.722   2.361   7.978  0.0933 -1.2631  2.7513
   78SLPC  H13Y 7188   4.536   2.363   7.989  0.3607 -2.0759 -0.5224
   78SLPC  C314 7189   4.640   2.373   8.173 -0.7969 -0.1976  0.0719
   78SLPC  H14X 7190   4.736   2.401   8.222 -0.4279 -2.0376  0.4521
   78SLPC  H14Y 7191   4.650   2.264   8.160 -0.2099  0.1216 -2.7474
   78SLPC  C315 7192   4.519   2.418   8.252 -0.0444  0.5814  0.5637
   78SLPC  H15X 7193   4.431   2.374   8.200  0.2808  0.9637 -0.3379
   78SLPC  H15Y 7194   4.503   2.528   8.242 -2.8234  0.1659 -0.5464
   78SLPC  C316 7195   4.525   2.368   8.396 -0.0337  0.4553  0.3734
   78SLPC  H16X 7196   4.630   2.387   8.427 -0.3061  0.3379  1.4087
   78SLPC  H16Y 7197   4.501   2.260   8.392 -2.1821  0.8742  0.9945
   78SLPC  C317 7198   4.422   2.445   8.479 -0.9485 -0.6838  0.0354
   78SLPC  H17X 7199   4.451   2.551   8.497  1.7201 -1.3811  0.3197
   78SLPC  H17Y 7200   4.432   2.410   8.584 -3.5949  1.2786  1.0527
   78SLPC  C318 7201   4.277   2.433   8.444  0.5103  0.3769 -0.7759
   78SLPC  H18X 7202   4.225   2.489   8.524  1.7760 -1.9268  1.8185
   78SLPC  H18Y 7203   4.237   2.330   8.456 -0.1785  0.8372  1.3486
   78SLPC  H18Z 7204   4.250   2.471   8.343 -3.1810 -0.9167 -0.4400
   79SLPC     N 7205   2.032   4.926   5.899  0.3864 -0.2818 -0.0797
   79SLPC   C13 7206   1.888   4.883   5.913 -0.1589 -0.4384 -0.1038
   79SLPC  H13A 7207   1.836   4.879   5.819  0.3115 -0.1586 -0.3782
   79SLPC  H13B 7208   1.870   4.784   5.954 -2.0278  0.4978  1.5129
   79SLPC  H13C 7209   1.830   4.960   5.962  1.6138 -0.8785  2.9616
   79SLPC   C14 7210   2.036   5.049   5.817 -0.2398  0.7618  0.1944
   79SLPC  H14A 7211   1.969   5.125   5.855 -0.0260 -0.3510  2.9856
   79SLPC  H14B 7212   2.136   5.087   5.799 -0.5684  1.2100 -0.8064
   79SLPC  H14C 7213   2.003   5.024   5.717 -2.1461 -0.0854  0.9976
   79SLPC   C15 7214   2.101   4.805   5.835  0.5868 -0.8236  0.0094
   79SLPC  H15A 7215   2.052   4.788   5.741  1.7652  0.7078 -0.9212
   79SLPC  H15B 7216   2.203   4.816   5.801 -0.2288 -1.0767 -2.7369
   79SLPC  H15C 7217   2.091   4.717   5.898  2.0308 -0.1673  1.2246
   79SLPC   C12 7218   2.093   4.957   6.035  0.5945 -0.3441 -0.4487
   79SLPC  H12A 7219   2.196   4.981   6.017  0.2148  1.9958  0.1880
   79SLPC  H12B 7220   2.080   4.876   6.106 -1.8300 -0.0619 -0.4876
   79SLPC   C11 7221   2.041   5.075   6.118 -0.6910 -0.5678 -0.3834
   79SLPC  H11A 7222   2.043   5.164   6.050  1.1974  0.6736  1.1841
   79SLPC  H11B 7223   2.106   5.094   6.206  0.8357  2.8194 -2.0362
   79SLPC     P 7224   1.801   5.150   6.196  0.0602  0.0322 -0.2154
   79SLPC   O13 7225   1.764   5.226   6.076  0.6970 -0.1770  1.0857
   79SLPC   O14 7226   1.696   5.075   6.273 -0.6698  0.3861  0.3948
   79SLPC   O12 7227   1.910   5.045   6.165 -0.6693  0.2023  0.1719
   79SLPC   O11 7228   1.875   5.255   6.290 -0.1641 -0.9483  0.2317
   79SLPC    C1 7229   1.941   5.215   6.404  0.0156 -0.1726  0.0854
   79SLPC    HA 7230   1.922   5.115   6.448 -0.6172  0.9663  2.5836
   79SLPC    HB 7231   2.050   5.222   6.380 -0.3618  1.2757 -1.3092
   79SLPC    C2 7232   1.918   5.321   6.524 -0.2510  0.4849 -0.5955
   79SLPC    HS 7233   1.988   5.284   6.602  0.6637  0.9843 -1.1556
   79SLPC   O21 7234   1.777   5.318   6.561 -1.2375 -0.2270  0.6158
   79SLPC   C21 7235   1.747   5.228   6.649  0.5684 -0.0553 -0.4011
   79SLPC   O22 7236   1.815   5.134   6.684  0.3701 -0.1682 -0.3609
   79SLPC   C22 7237   1.612   5.259   6.714  0.2564 -0.3324 -0.7541
   79SLPC   H2R 7238   1.538   5.275   6.634  0.9186  1.5145 -1.0513
   79SLPC   H2S 7239   1.597   5.172   6.782  0.3249 -0.4689 -0.9131
   79SLPC    C3 7240   1.972   5.461   6.477 -0.0621  1.1601  0.3738
   79SLPC    HX 7241   1.946   5.474   6.370 -1.2583 -1.5592  0.2507
   79SLPC    HY 7242   2.082   5.452   6.491 -0.1026  3.2767  2.6714
   79SLPC   O31 7243   1.930   5.569   6.554  0.3110  0.0468 -0.4227
   79SLPC   C31 7244   1.820   5.633   6.505 -0.3826  0.8403 -0.6138
   79SLPC   O32 7245   1.748   5.608   6.409  0.2609 -0.0068 -0.2945
   79SLPC   C32 7246   1.802   5.754   6.595 -0.4476 -0.1796  0.1636
   79SLPC   H2X 7247   1.700   5.758   6.639 -1.1466  2.1756 -1.4822
   79SLPC   H2Y 7248   1.804   5.842   6.527  2.6422 -1.0969 -1.1256
   79SLPC   C23 7249   1.605   5.385   6.804  0.1090  0.0410 -0.1307
   79SLPC   H3R 7250   1.505   5.411   6.844  0.8951 -0.4188  2.2619
   79SLPC   H3S 7251   1.633   5.476   6.747 -1.7409  0.1920 -0.8586
   79SLPC   C24 7252   1.702   5.372   6.925  0.0806  0.8203  0.5216
   79SLPC   H4R 7253   1.807   5.368   6.887 -0.4938 -4.7429 -1.3475
   79SLPC   H4S 7254   1.680   5.279   6.983  1.0371  0.2946  0.0743
   79SLPC   C25 7255   1.683   5.485   7.025  0.4599 -0.2832  0.0973
   79SLPC   H5R 7256   1.573   5.501   7.030  0.1670 -1.9558 -0.1355
   79SLPC   H5S 7257   1.728   5.580   6.991  1.7127 -1.0425 -0.4350
   79SLPC   C26 7258   1.756   5.448   7.155  0.5926  0.0795 -0.9845
   79SLPC   H6R 7259   1.858   5.414   7.129  1.0319 -0.5283  1.3099
   79SLPC   H6S 7260   1.704   5.358   7.194 -1.5706  1.9467  0.7745
   79SLPC   C27 7261   1.745   5.554   7.262 -0.0920 -0.2538  0.4018
   79SLPC   H7R 7262   1.634   5.563   7.270  0.0155  1.1751  0.5582
   79SLPC   H7S 7263   1.790   5.649   7.227 -0.5091 -0.2686 -0.1913
   79SLPC   C28 7264   1.792   5.515   7.402  0.0395  0.3977  0.7809
   79SLPC   H8R 7265   1.901   5.537   7.404 -0.4177  3.2760 -0.5553
   79SLPC   H8S 7266   1.789   5.405   7.419  2.0905  0.1341 -0.2653
   79SLPC   C29 7267   1.730   5.595   7.517 -0.1984  0.7368  0.0747
   79SLPC   H9R 7268   1.700   5.698   7.492 -0.6373  0.7231  0.5174
   79SLPC  C210 7269   1.728   5.551   7.649 -0.2022  0.8518  0.3882
   79SLPC  H10R 7270   1.697   5.616   7.732 -2.2021  1.5675 -0.8478
   79SLPC  C211 7271   1.777   5.410   7.698 -0.6117  0.3681  0.2236
   79SLPC  H11R 7272   1.879   5.411   7.742  0.3688 -2.0846 -1.7990
   79SLPC  H11S 7273   1.787   5.343   7.611  0.8570  1.8649 -0.8130
   79SLPC  C212 7274   1.669   5.361   7.782  0.1448 -0.4040 -0.7722
   79SLPC  H12R 7275   1.570   5.349   7.735  0.1286 -0.3083 -0.7640
   79SLPC  C213 7276   1.680   5.331   7.915 -0.0832  0.0712  0.4479
   79SLPC  H13R 7277   1.582   5.312   7.961  0.1463 -0.5935  0.6718
   79SLPC  C214 7278   1.798   5.330   8.006  0.2687 -0.3366  0.5674
   79SLPC  H14R 7279   1.797   5.418   8.073  2.6281  0.4164 -0.2992
   79SLPC  H14S 7280   1.888   5.333   7.941  0.0114  1.9201  0.2568
   79SLPC  C215 7281   1.805   5.201   8.096  0.7015  0.2065  0.0143
   79SLPC  H15R 7282   1.804   5.111   8.031 -0.2542  0.3442 -0.1804
   79SLPC  H15S 7283   1.712   5.202   8.157  1.1981  0.4649  0.7756
   79SLPC  C216 7284   1.916   5.193   8.197 -0.2374 -0.1029  0.1807
   79SLPC  H16R 7285   1.914   5.281   8.265  0.8777 -0.9824  1.3892
   79SLPC  H16S 7286   2.017   5.209   8.153 -0.2300  0.4745  0.3980
   79SLPC  C217 7287   1.921   5.064   8.272 -0.1197  0.3367 -0.8255
   79SLPC  H17R 7288   2.012   5.067   8.337  0.7697  1.6381 -2.0581
   79SLPC  H17S 7289   1.927   4.978   8.202 -0.1197 -0.4094  0.0690
   79SLPC  C218 7290   1.801   5.045   8.362 -0.6162  0.1637  0.1424
   79SLPC  H18R 7291   1.815   4.975   8.447 -1.3754 -0.3633 -0.1516
   79SLPC  H18S 7292   1.706   5.033   8.304  0.3441 -0.5475 -1.3468
   79SLPC  H18T 7293   1.779   5.146   8.402 -1.1602 -0.1813  0.7397
   79SLPC   C33 7294   1.910   5.780   6.703 -0.4066 -0.8241 -0.2412
   79SLPC   H3X 7295   2.010   5.800   6.659  0.0768 -0.0264  1.1634
   79SLPC   H3Y 7296   1.919   5.691   6.768  0.1821 -2.3232 -2.2636
   79SLPC   C34 7297   1.885   5.905   6.786 -0.4903 -0.2583 -0.0570
   79SLPC   H4X 7298   1.786   5.892   6.835 -0.8440 -0.5372 -0.8292
   79SLPC   H4Y 7299   1.884   5.993   6.719  0.0858 -0.0928  0.1399
   79SLPC   C35 7300   1.999   5.917   6.889  0.3731 -0.2821 -0.2957
   79SLPC   H5X 7301   2.006   6.022   6.927 -1.0834  0.4422 -1.8906
   79SLPC   H5Y 7302   2.097   5.896   6.842  0.1585  0.0661 -0.9120
   79SLPC   C36 7303   1.974   5.833   7.014  0.2887  0.6148  0.0900
   79SLPC   H6X 7304   1.987   5.726   6.987 -1.2392  0.4373 -0.0582
   79SLPC   H6Y 7305   1.871   5.852   7.052  0.0439  1.5347 -0.9702
   79SLPC   C37 7306   2.061   5.868   7.136  0.1017  0.4636  0.1828
   79SLPC   H7X 7307   2.057   5.976   7.162  1.7101  0.9569 -1.4171
   79SLPC   H7Y 7308   2.165   5.843   7.107  1.4229  1.2374  3.8535
   79SLPC   C38 7309   2.015   5.810   7.272 -0.1901  0.3954 -0.4301
   79SLPC   H8X 7310   2.002   5.701   7.256  1.9445 -0.1577  1.2054
   79SLPC   H8Y 7311   1.914   5.849   7.297 -1.1256 -1.5447 -0.9956
   79SLPC   C39 7312   2.115   5.822   7.381 -0.2956  0.1167 -0.1692
   79SLPC   H9X 7313   2.129   5.931   7.398  0.3508  0.0026  0.0639
   79SLPC   H9Y 7314   2.213   5.783   7.349 -0.0287  1.0985 -0.6036
   79SLPC  C310 7315   2.062   5.756   7.504 -1.2022  0.7377 -0.2796
   79SLPC  H10X 7316   2.059   5.647   7.485 -0.9931  0.8977 -1.2870
   79SLPC  H10Y 7317   1.956   5.787   7.517 -1.5619  0.3393 -2.0039
   79SLPC  C311 7318   2.133   5.769   7.637  0.5139 -0.2028  0.5206
   79SLPC  H11X 7319   2.136   5.872   7.678  1.6732  0.1406 -0.3576
   79SLPC  H11Y 7320   2.238   5.736   7.619  0.7020  0.6457 -0.0074
   79SLPC  C312 7321   2.071   5.673   7.744 -0.2979 -0.2803 -0.4804
   79SLPC  H12X 7322   2.047   5.572   7.703 -0.2688  0.2100 -1.7292
   79SLPC  H12Y 7323   1.974   5.717   7.776  0.3866  1.8118 -1.1283
   79SLPC  C313 7324   2.144   5.664   7.874  0.5311 -0.5031 -0.0304
   79SLPC  H13X 7325   2.172   5.767   7.904  0.6659 -0.1806 -1.2008
   79SLPC  H13Y 7326   2.239   5.607   7.869  0.0278 -1.3360 -0.2458
   79SLPC  C314 7327   2.053   5.593   7.972  0.1109  0.0615  0.7433
   79SLPC  H14X 7328   2.054   5.484   7.949 -1.7971  0.3600 -1.1621
   79SLPC  H14Y 7329   1.943   5.609   7.960  0.2283  0.0885 -0.4021
   79SLPC  C315 7330   2.108   5.629   8.110 -1.4297  0.1504  0.1345
   79SLPC  H15X 7331   2.095   5.736   8.134 -1.2567  0.8015 -2.4189
   79SLPC  H15Y 7332   2.215   5.600   8.104 -1.9676 -2.0053 -0.0092
   79SLPC  C316 7333   2.024   5.542   8.212 -0.7058  0.3917 -0.7618
   79SLPC  H16X 7334   2.026   5.434   8.187 -0.3423 -0.4910  2.5341
   79SLPC  H16Y 7335   1.917   5.574   8.213 -1.4054 -1.7920 -0.3071
   79SLPC  C317 7336   2.077   5.567   8.351 -1.0271 -0.3764 -0.7545
   79SLPC  H17X 7337   2.052   5.673   8.373 -1.0150 -0.3599 -0.8246
   79SLPC  H17Y 7338   2.187   5.550   8.354 -0.7195  1.4644  1.6147
   79SLPC  C318 7339   2.019   5.480   8.463  0.4809 -0.3998  0.0876
   79SLPC  H18X 7340   2.064   5.504   8.562 -0.6880 -1.4686  0.9212
   79SLPC  H18Y 7341   2.059   5.377   8.446  0.7380 -0.3226  0.2244
   79SLPC  H18Z 7342   1.908   5.488   8.474  0.6131  0.6195  0.8132
   80SLPC     N 7343   3.687   1.376   6.317  0.0180  0.1609 -0.4330
   80SLPC   C13 7344   3.745   1.475   6.411 -0.7818  0.2518 -0.0681
   80SLPC  H13A 7345   3.817   1.543   6.366 -2.3245  0.5291 -2.2458
   80SLPC  H13B 7346   3.668   1.538   6.454  0.6761  2.0918 -0.0184
   80SLPC  H13C 7347   3.797   1.433   6.496 -0.2925  1.1112  0.0673
   80SLPC   C14 7348   3.794   1.271   6.276 -0.2928  0.1078 -0.2384
   80SLPC  H14A 7349   3.759   1.212   6.193  2.4418 -1.0454 -0.6738
   80SLPC  H14B 7350   3.885   1.322   6.251 -0.9516  1.4178 -0.0703
   80SLPC  H14C 7351   3.813   1.199   6.354  0.2337 -0.2106 -0.6625
   80SLPC   C15 7352   3.651   1.456   6.194 -0.0041  0.1283 -0.1493
   80SLPC  H15A 7353   3.747   1.492   6.158  0.3776 -0.7136  0.0174
   80SLPC  H15B 7354   3.608   1.390   6.120 -2.7823  1.0634  0.5198
   80SLPC  H15C 7355   3.582   1.539   6.202  0.2028  0.6357 -2.6564
   80SLPC   C12 7356   3.561   1.308   6.380  0.2950  0.0316  0.0958
   80SLPC  H12A 7357   3.594   1.231   6.448  2.6913  0.3799 -0.5899
   80SLPC  H12B 7358   3.505   1.256   6.304  0.0318  0.4756 -0.0197
   80SLPC   C11 7359   3.463   1.402   6.450 -0.4633  0.0674  0.6434
   80SLPC  H11A 7360   3.525   1.444   6.533  0.2776 -3.5882  2.1135
   80SLPC  H11B 7361   3.393   1.336   6.505 -0.2004 -0.5504  0.2418
   80SLPC     P 7362   3.275   1.455   6.283 -0.1990  0.3260  0.1118
   80SLPC   O13 7363   3.256   1.537   6.164 -0.1791 -0.4115  0.0099
   80SLPC   O14 7364   3.265   1.309   6.258 -0.2580 -0.4843  0.2756
   80SLPC   O12 7365   3.411   1.495   6.351  0.0690 -0.0625  0.0893
   80SLPC   O11 7366   3.168   1.491   6.392  0.1916 -0.3344 -0.0056
   80SLPC    C1 7367   3.156   1.626   6.434 -0.0882 -0.3440  0.1984
   80SLPC    HA 7368   3.219   1.699   6.377  1.4269 -1.5180  0.3049
   80SLPC    HB 7369   3.049   1.652   6.425  0.1323  0.8403  0.7614
   80SLPC    C2 7370   3.172   1.644   6.585 -0.3225  0.2237 -0.3344
   80SLPC    HS 7371   3.106   1.729   6.611  0.9115  1.4081 -0.9523
   80SLPC   O21 7372   3.315   1.675   6.621 -0.0169  0.2586 -0.4692
   80SLPC   C21 7373   3.336   1.803   6.610 -0.4732 -0.2905 -0.0528
   80SLPC   O22 7374   3.265   1.887   6.561  0.5448 -0.5205 -0.1649
   80SLPC   C22 7375   3.466   1.839   6.669 -0.1581 -0.3544  0.2858
   80SLPC   H2R 7376   3.507   1.751   6.724 -0.1179 -0.8088 -0.4514
   80SLPC   H2S 7377   3.538   1.858   6.587  0.4709 -1.9556  0.4266
   80SLPC    C3 7378   3.135   1.518   6.666  0.3223  0.3824  0.0207
   80SLPC    HX 7379   3.200   1.437   6.627 -0.3263 -1.1278  1.9472
   80SLPC    HY 7380   3.030   1.488   6.642  0.4417  0.1135 -0.1712
   80SLPC   O31 7381   3.161   1.532   6.808  0.4631 -0.1895  0.8332
   80SLPC   C31 7382   3.054   1.569   6.880  0.5536 -0.2658 -0.0207
   80SLPC   O32 7383   2.943   1.582   6.833 -0.2801  0.0580 -0.6261
   80SLPC   C32 7384   3.105   1.576   7.022  0.8011  0.6108  0.0660
   80SLPC   H2X 7385   3.171   1.663   7.044  0.8242  0.2746  1.4289
   80SLPC   H2Y 7386   3.159   1.482   7.043  0.2946 -0.1069 -1.6717
   80SLPC   C23 7387   3.458   1.955   6.772  0.9021 -0.1753 -0.5586
   80SLPC   H3R 7388   3.389   2.032   6.732  0.4947  0.2958  0.9908
   80SLPC   H3S 7389   3.558   2.002   6.770  0.7447  0.1607 -1.8901
   80SLPC   C24 7390   3.415   1.908   6.909 -0.3545 -0.0868  0.7610
   80SLPC   H4R 7391   3.493   1.847   6.960  0.4034  0.4824  0.2927
   80SLPC   H4S 7392   3.328   1.840   6.892  0.8394 -1.9596  1.7903
   80SLPC   C25 7393   3.352   2.013   6.998 -0.0463  0.6603 -0.1382
   80SLPC   H5R 7394   3.254   2.055   6.967 -0.1339  0.9534  0.5059
   80SLPC   H5S 7395   3.418   2.100   6.979  1.2298 -0.3661 -0.5038
   80SLPC   C26 7396   3.363   1.976   7.148  0.1301 -0.2218  0.2295
   80SLPC   H6R 7397   3.464   1.930   7.157  0.0384 -0.5205 -0.2624
   80SLPC   H6S 7398   3.279   1.904   7.153  0.3403 -0.8548 -3.0936
   80SLPC   C27 7399   3.335   2.085   7.246  0.2788 -0.2144 -0.4903
   80SLPC   H7R 7400   3.225   2.098   7.237  0.0059 -1.1337  1.0294
   80SLPC   H7S 7401   3.386   2.181   7.220 -0.0997  1.0402  2.8387
   80SLPC   C28 7402   3.380   2.048   7.395  0.7287 -0.3603  0.6687
   80SLPC   H8R 7403   3.394   2.147   7.444  1.2161 -0.1734  0.1572
   80SLPC   H8S 7404   3.479   1.999   7.383  2.7692  3.0890  2.1354
   80SLPC   C29 7405   3.287   1.963   7.479 -0.4030  0.1823  0.3586
   80SLPC   H9R 7406   3.198   1.920   7.432 -0.6361 -2.6044  3.0350
   80SLPC  C210 7407   3.301   1.939   7.609  0.3078  0.5302  0.4570
   80SLPC  H10R 7408   3.241   1.859   7.654 -0.8238  0.5236 -1.0170
   80SLPC  C211 7409   3.426   1.975   7.691  0.6099  0.1952 -0.3108
   80SLPC  H11R 7410   3.518   2.000   7.635  1.6242  0.2438  1.2889
   80SLPC  H11S 7411   3.454   1.884   7.749 -0.5095  0.4305  0.6531
   80SLPC  C212 7412   3.390   2.096   7.781  0.3613 -0.2895 -0.2925
   80SLPC  H12R 7413   3.355   2.189   7.735 -0.3151 -0.6596 -0.5345
   80SLPC  C213 7414   3.416   2.093   7.918  0.4932  0.4785  0.1742
   80SLPC  H13R 7415   3.383   2.171   7.988  0.3644 -1.1508  2.0356
   80SLPC  C214 7416   3.467   1.983   8.003 -0.6964  0.0838  0.8346
   80SLPC  H14R 7417   3.428   1.890   7.956 -5.3009  2.5931 -0.9108
   80SLPC  H14S 7418   3.409   1.994   8.097 -0.1549  0.9891  1.0716
   80SLPC  C215 7419   3.621   1.998   8.042 -0.4834 -0.3454  0.0604
   80SLPC  H15R 7420   3.686   2.017   7.954  0.2709  2.3476  1.1152
   80SLPC  H15S 7421   3.650   1.908   8.101 -1.0630 -2.6239 -2.8575
   80SLPC  C216 7422   3.650   2.128   8.126 -0.0702  0.4347  0.8179
   80SLPC  H16R 7423   3.577   2.130   8.210 -0.2846 -1.8212  0.7358
   80SLPC  H16S 7424   3.641   2.216   8.058  0.7758  0.6161  0.9294
   80SLPC  C217 7425   3.781   2.141   8.194 -0.1463  0.6195 -0.6245
   80SLPC  H17R 7426   3.861   2.114   8.122  0.0714 -1.0044  0.1891
   80SLPC  H17S 7427   3.779   2.081   8.287  0.8908 -0.7744 -1.4760
   80SLPC  C218 7428   3.806   2.289   8.236  0.6317  0.1953  0.0657
   80SLPC  H18R 7429   3.718   2.331   8.289 -0.0238 -0.6189 -0.3484
   80SLPC  H18S 7430   3.836   2.358   8.154 -0.4599 -0.1591 -0.6603
   80SLPC  H18T 7431   3.891   2.296   8.306 -0.1776 -1.6455  1.3173
   80SLPC   C33 7432   2.993   1.584   7.130  0.1189  0.3635  0.3228
   80SLPC   H3X 7433   2.930   1.493   7.125  0.8123 -0.1387  0.5364
   80SLPC   H3Y 7434   2.932   1.673   7.102  2.4411  1.1132 -2.9541
   80SLPC   C34 7435   3.028   1.624   7.280  0.2770 -0.0086  0.1175
   80SLPC   H4X 7436   3.071   1.726   7.271  3.2912 -1.1818 -0.1515
   80SLPC   H4Y 7437   3.113   1.556   7.302  3.6036  3.0990 -1.9987
   80SLPC   C35 7438   2.906   1.604   7.371 -0.1316  0.2479 -0.0748
   80SLPC   H5X 7439   2.868   1.499   7.376 -1.4812  0.3831 -3.8272
   80SLPC   H5Y 7440   2.812   1.649   7.333 -0.8019 -1.1145 -0.1208
   80SLPC   C36 7441   2.923   1.640   7.522 -0.1747 -0.1686 -0.0790
   80SLPC   H6X 7442   2.896   1.746   7.537  0.9443  0.3255 -1.3964
   80SLPC   H6Y 7443   3.032   1.644   7.545 -0.1090  0.3675 -0.4712
   80SLPC   C37 7444   2.854   1.541   7.618 -0.3530 -0.9644 -0.7298
   80SLPC   H7X 7445   2.876   1.436   7.589 -3.2519 -2.0344  0.6339
   80SLPC   H7Y 7446   2.744   1.548   7.610 -0.3659  1.7175  0.6991
   80SLPC   C38 7447   2.895   1.576   7.761  0.1688  0.3741  0.4041
   80SLPC   H8X 7448   2.837   1.663   7.798 -2.1674 -1.1003  0.4795
   80SLPC   H8Y 7449   3.002   1.602   7.770  0.6787 -0.5106 -2.2513
   80SLPC   C39 7450   2.847   1.461   7.854 -0.4530 -0.0878 -0.2303
   80SLPC   H9X 7451   2.889   1.365   7.817 -1.9524 -0.5710 -0.7434
   80SLPC   H9Y 7452   2.736   1.456   7.846 -0.4614  1.3325 -1.3241
   80SLPC  C310 7453   2.894   1.487   7.996 -0.0803 -0.2374  0.3072
   80SLPC  H10X 7454   2.826   1.570   8.024 -0.4014 -0.3249 -0.2081
   80SLPC  H10Y 7455   3.003   1.507   7.997 -0.3264  1.1586  1.1134
   80SLPC  C311 7456   2.866   1.366   8.097  0.2307  0.0175  0.3828
   80SLPC  H11X 7457   2.930   1.281   8.065 -0.4033 -0.1996 -0.3511
   80SLPC  H11Y 7458   2.761   1.334   8.082  0.4385 -1.1357  1.2571
   80SLPC  C312 7459   2.898   1.408   8.243  0.6984 -0.3774 -0.3724
   80SLPC  H12X 7460   2.845   1.502   8.270  1.4364  0.3977 -1.5512
   80SLPC  H12Y 7461   3.006   1.416   8.265  0.5306  3.0835 -0.3342
   80SLPC  C313 7462   2.844   1.313   8.357 -0.4695  0.1115 -0.1837
   80SLPC  H13X 7463   2.870   1.210   8.324 -1.3015  0.1290 -0.9446
   80SLPC  H13Y 7464   2.733   1.311   8.357 -0.5284 -2.4681 -2.4871
   80SLPC  C314 7465   2.902   1.350   8.493  0.6261  0.2410  0.3060
   80SLPC  H14X 7466   3.009   1.374   8.478  1.0405 -0.6397  1.6236
   80SLPC  H14Y 7467   2.892   1.270   8.569 -0.1525 -1.0317 -1.1002
   80SLPC  C315 7468   2.835   1.472   8.561  0.4237 -0.2317  0.0808
   80SLPC  H15X 7469   2.821   1.553   8.487  0.2263 -0.6619 -0.3600
   80SLPC  H15Y 7470   2.898   1.518   8.639 -1.9167  0.9554  1.3792
   80SLPC  C316 7471   2.698   1.441   8.628 -0.1070  0.1593  0.5091
   80SLPC  H16X 7472   2.719   1.363   8.704  0.3151  0.9844  1.2505
   80SLPC  H16Y 7473   2.628   1.401   8.551  1.6713  0.3641 -1.3161
   80SLPC  C317 7474   2.627   1.552   8.711 -0.2667  0.0002 -0.5002
   80SLPC  H17X 7475   2.545   1.507   8.771  1.0847 -0.2002  1.2794
   80SLPC  H17Y 7476   2.581   1.625   8.641 -1.6281  1.0220  1.3724
   80SLPC  C318 7477   2.722   1.629   8.806  0.8504 -0.6673 -0.5414
   80SLPC  H18X 7478   2.811   1.668   8.752  0.7904  1.4543  0.7694
   80SLPC  H18Y 7479   2.745   1.566   8.894  0.4720 -1.1756 -0.8024
   80SLPC  H18Z 7480   2.673   1.718   8.852  0.2971 -1.0695 -0.3442
   81SAPS     N 7481   4.758   3.425  10.774  0.6713  0.0050 -0.2332
   81SAPS   HN1 7482   4.826   3.504  10.769  0.5555  0.2322  1.4844
   81SAPS   HN2 7483   4.779   3.356  10.698 -0.2612 -0.9169  0.3307
   81SAPS   HN3 7484   4.661   3.459  10.760  1.0250  0.7893 -0.8851
   81SAPS   C12 7485   4.762   3.354  10.899 -0.3770 -0.0739 -0.4229
   81SAPS  H12A 7486   4.864   3.354  10.936 -0.0686  2.2870 -1.1049
   81SAPS   C13 7487   4.688   3.426  11.012 -0.8871 -0.2119 -0.2321
   81SAPS  O13A 7488   4.614   3.528  10.982  0.0839  0.3084  0.1445
   81SAPS  O13B 7489   4.712   3.390  11.131 -0.0550  0.9094 -0.1990
   81SAPS   C11 7490   4.691   3.214  10.886 -0.8420  0.5362 -0.0421
   81SAPS  H11A 7491   4.584   3.239  10.868 -1.8753 -2.2811  1.4614
   81SAPS  H11B 7492   4.696   3.150  10.977 -1.3761 -0.6280 -0.8176
   81SAPS     P 7493   4.888   3.059  10.798 -0.0908  0.1288  0.1928
   81SAPS   O13 7494   4.988   3.157  10.841  0.4908 -0.0400 -0.2268
   81SAPS   O14 7495   4.863   2.932  10.876  0.7543 -0.1255  0.2302
   81SAPS   O12 7496   4.750   3.142  10.779  0.7451  0.1919  0.3207
   81SAPS   O11 7497   4.905   3.008  10.647 -0.0584 -0.0588  0.1840
   81SAPS    C1 7498   5.027   2.998  10.585 -0.9487 -0.1320 -0.4132
   81SAPS    HA 7499   5.105   2.951  10.649 -2.2692 -1.5067  0.2633
   81SAPS    HB 7500   5.029   2.950  10.485 -0.2622  1.7486 -1.3359
   81SAPS    C2 7501   5.075   3.136  10.527 -0.4589 -0.2683  0.7021
   81SAPS    HS 7502   5.068   3.214  10.607  1.4875  0.7291 -0.0304
   81SAPS   O21 7503   4.987   3.164  10.411 -0.3131  0.7702 -0.1706
   81SAPS   C21 7504   4.875   3.238  10.436 -0.2940  0.7691 -0.0448
   81SAPS   O22 7505   4.851   3.292  10.538  0.5637  0.1612 -0.2367
   81SAPS   C22 7506   4.780   3.232  10.313  0.3078  0.1879 -0.6773
   81SAPS   H2R 7507   4.781   3.129  10.272 -2.1184 -0.1907  0.0710
   81SAPS   H2S 7508   4.682   3.267  10.350  0.8506  2.4937 -1.2143
   81SAPS    C3 7509   5.216   3.159  10.485 -0.5985 -0.4663 -0.0518
   81SAPS    HX 7510   5.272   3.166  10.580  0.9568  1.5203 -1.0572
   81SAPS    HY 7511   5.225   3.258  10.435 -1.4894 -0.0222  0.6342
   81SAPS   O31 7512   5.269   3.049  10.404  0.3296 -0.1680 -0.0720
   81SAPS   C31 7513   5.396   3.052  10.389  0.5822 -0.0717 -0.5749
   81SAPS   O32 7514   5.467   3.131  10.444 -0.5420 -0.4930  0.3006
   81SAPS   C32 7515   5.446   2.945  10.291 -0.2304  0.4202  0.4661
   81SAPS   H2X 7516   5.366   2.934  10.214 -1.1672  2.1781  1.1349
   81SAPS   H2Y 7517   5.457   2.848  10.343  1.5323 -0.4302 -1.3510
   81SAPS   C23 7518   4.840   3.331  10.206 -0.4073 -0.0942 -0.3219
   81SAPS   H3R 7519   4.927   3.285  10.155 -1.3497 -1.0128 -1.1622
   81SAPS   H3S 7520   4.878   3.420  10.259  1.3358 -0.6030 -0.6494
   81SAPS   C24 7521   4.736   3.379  10.102 -0.2403  0.0661 -0.0742
   81SAPS   H4R 7522   4.647   3.396  10.166 -1.2564  0.3274 -1.5076
   81SAPS   H4S 7523   4.708   3.292  10.038 -0.4911  1.3941 -1.8350
   81SAPS   C25 7524   4.789   3.497  10.027 -0.4709  0.3579  0.1398
   81SAPS   H5R 7525   4.817   3.575  10.100 -2.1144 -0.8465  2.1901
   81SAPS   C26 7526   4.818   3.511   9.898 -0.0115  0.1590  0.4612
   81SAPS   H6R 7527   4.853   3.611   9.868 -0.3538  0.7333  1.8809
   81SAPS   C27 7528   4.798   3.417   9.780  0.1898  0.1214 -0.4741
   81SAPS   H7R 7529   4.767   3.480   9.694 -1.1125 -1.3807 -1.1645
   81SAPS   H7S 7530   4.707   3.357   9.800  0.7639 -0.8447 -0.6859
   81SAPS   C28 7531   4.898   3.316   9.732  0.0720  0.0140  0.6869
   81SAPS   H8R 7532   4.966   3.272   9.807  1.6975  0.8941 -0.2144
   81SAPS   C29 7533   4.916   3.279   9.603 -0.5370  0.0076 -0.0174
   81SAPS   H9R 7534   4.993   3.202   9.584 -0.1725  0.4629 -0.4189
   81SAPS  C210 7535   4.840   3.338   9.478 -0.3169 -1.0808 -0.0257
   81SAPS  H10R 7536   4.734   3.358   9.503  0.1427 -0.8543  1.8790
   81SAPS  H10S 7537   4.842   3.253   9.406 -0.1743 -2.7529  1.8685
   81SAPS  C211 7538   4.907   3.461   9.424  0.6084 -0.0225  0.0919
   81SAPS  H11R 7539   4.948   3.530   9.499 -0.6995  0.0209  0.7913
   81SAPS  C212 7540   4.921   3.497   9.295  0.0584 -0.0583 -0.8378
   81SAPS  H12R 7541   4.956   3.600   9.283  0.4416 -0.0171  0.5370
   81SAPS  C213 7542   4.874   3.413   9.173  0.5652 -0.3094  0.3981
   81SAPS  H13R 7543   4.849   3.309   9.203  2.3959 -1.1832 -0.9576
   81SAPS  H13S 7544   4.954   3.409   9.097  0.5149 -0.1400  0.3336
   81SAPS  C214 7545   4.750   3.480   9.101 -0.3619  0.4341  0.0744
   81SAPS  H14R 7546   4.659   3.485   9.163  0.1785 -1.5771  1.1321
   81SAPS  C215 7547   4.746   3.543   8.982 -0.4936  0.5251 -0.3346
   81SAPS  H15R 7548   4.664   3.611   8.957  0.9993  2.4980 -0.1040
   81SAPS  C216 7549   4.862   3.565   8.893  0.4966  0.5090 -0.7814
   81SAPS  H16R 7550   4.839   3.498   8.807 -3.7444 -0.9901  1.2027
   81SAPS  H16S 7551   4.958   3.554   8.947  0.6472 -0.9684 -1.3130
   81SAPS  C217 7552   4.847   3.712   8.844  0.6678 -0.3914  0.0197
   81SAPS  H17R 7553   4.944   3.744   8.800  0.9920 -0.8125  0.4286
   81SAPS  H17S 7554   4.825   3.784   8.926  0.4512 -0.3992 -0.0321
   81SAPS  C218 7555   4.743   3.736   8.730  0.3075 -0.0870 -0.3311
   81SAPS  H18R 7556   4.640   3.743   8.772  1.0682 -2.1872  2.1409
   81SAPS  H18S 7557   4.749   3.655   8.653  0.7347  0.2025 -0.6054
   81SAPS  C219 7558   4.774   3.871   8.665 -0.2012  0.1536 -0.0551
   81SAPS  H19R 7559   4.869   3.865   8.608 -0.0155  0.1641  0.2519
   81SAPS  H19S 7560   4.806   3.945   8.741 -1.1306 -1.2909  1.8322
   81SAPS  C220 7561   4.660   3.923   8.579  0.5654 -0.7308  0.0884
   81SAPS  H20R 7562   4.566   3.930   8.638  1.2239  0.2531  1.0550
   81SAPS  H20S 7563   4.648   3.869   8.483 -1.9709  2.3777 -1.5608
   81SAPS  H20T 7564   4.678   4.028   8.548  0.3004 -0.1022  1.9339
   81SAPS   C33 7565   5.578   2.972  10.217  0.6399  0.0660 -1.1085
   81SAPS   H3X 7566   5.612   2.871  10.183  0.3045 -0.6301  0.5171
   81SAPS   H3Y 7567   5.657   3.005  10.288 -0.8541 -1.2291  1.2758
   81SAPS   C34 7568   5.560   3.056  10.101 -0.4192 -0.2938  0.5507
   81SAPS   H4X 7569   5.604   3.158  10.103 -2.2565  0.5597 -0.3480
   81SAPS   H4Y 7570   5.451   3.062  10.082 -0.4799  0.3758  1.0966
   81SAPS   C35 7571   5.612   2.991   9.969 -0.2488  0.4570 -0.4891
   81SAPS   H5X 7572   5.602   2.880   9.965  2.0565  0.1559  0.4575
   81SAPS   H5Y 7573   5.721   3.010   9.977 -0.0498 -0.3822 -1.0546
   81SAPS   C36 7574   5.570   3.064   9.846 -0.0483  0.1268 -0.0569
   81SAPS   H6X 7575   5.597   3.171   9.855  1.1001 -0.2354  1.0439
   81SAPS   H6Y 7576   5.459   3.057   9.835 -0.1399  1.2644  0.0819
   81SAPS   C37 7577   5.645   3.020   9.723 -0.3967  0.1862  0.9280
   81SAPS   H7X 7578   5.642   2.909   9.724  1.1400  0.1293  1.3213
   81SAPS   H7Y 7579   5.753   3.039   9.706 -0.0685 -3.4901 -2.8910
   81SAPS   C38 7580   5.581   3.070   9.590 -0.1437  0.0444  0.0180
   81SAPS   H8X 7581   5.583   3.181   9.598  0.2367  0.0627 -0.3056
   81SAPS   H8Y 7582   5.475   3.039   9.581 -0.2776  0.1514  1.0645
   81SAPS   C39 7583   5.665   3.033   9.463 -0.0160  0.0932 -0.1789
   81SAPS   H9X 7584   5.662   2.922   9.464 -3.2147  0.0144 -2.3605
   81SAPS   H9Y 7585   5.768   3.069   9.485 -0.0208  0.3251 -0.5207
   81SAPS  C310 7586   5.591   3.087   9.330 -0.2042 -0.0441  0.0579
   81SAPS  H10X 7587   5.658   3.161   9.282  0.2055 -0.3242  0.1874
   81SAPS  H10Y 7588   5.504   3.148   9.360  1.8697  2.9153  0.4993
   81SAPS  C311 7589   5.546   2.977   9.228 -0.4784 -0.1403  0.4046
   81SAPS  H11X 7590   5.470   2.920   9.286  1.3519 -0.4488  2.6575
   81SAPS  H11Y 7591   5.625   2.903   9.202  0.1783  0.5485  0.4185
   81SAPS  C312 7592   5.485   3.033   9.095 -0.4949 -0.1544 -0.8216
   81SAPS  H12X 7593   5.560   3.108   9.060  0.2568  0.2096  1.3936
   81SAPS  H12Y 7594   5.390   3.083   9.125 -0.1173 -0.1767  0.5005
   81SAPS  C313 7595   5.437   2.937   8.989  0.0657  0.2595 -1.0021
   81SAPS  H13X 7596   5.349   2.878   9.022  0.0770  1.1370  0.7152
   81SAPS  H13Y 7597   5.516   2.864   8.962 -1.5023 -2.7019  1.6949
   81SAPS  C314 7598   5.387   3.014   8.860 -0.6172  0.3176  0.7410
   81SAPS  H14X 7599   5.469   3.081   8.825  0.6870 -0.4992  2.1393
   81SAPS  H14Y 7600   5.288   3.062   8.879 -0.6330  1.9090 -2.6262
   81SAPS  C315 7601   5.364   2.922   8.743 -0.1241 -0.2374 -0.2479
   81SAPS  H15X 7602   5.437   2.839   8.729 -0.6615 -0.5297 -1.4756
   81SAPS  H15Y 7603   5.376   2.986   8.653 -0.2447 -0.0890 -0.1596
   81SAPS  C316 7604   5.223   2.864   8.751 -0.1538  0.5720  0.4124
   81SAPS  H16X 7605   5.150   2.947   8.740  0.0583  0.6572 -0.4445
   81SAPS  H16Y 7606   5.207   2.819   8.851  1.1194 -0.5654  0.1314
   81SAPS  C317 7607   5.185   2.754   8.656  0.4791 -0.3876 -0.3333
   81SAPS  H17X 7608   5.248   2.662   8.656  0.8237 -0.1521 -1.1813
   81SAPS  H17Y 7609   5.200   2.802   8.558  4.1366  1.5097  1.0046
   81SAPS  C318 7610   5.040   2.701   8.678  0.1890 -0.6599  0.5094
   81SAPS  H18X 7611   5.034   2.636   8.768 -1.1595  1.9962  2.4893
   81SAPS  H18Y 7612   5.004   2.649   8.587 -1.0707  0.7879  0.1177
   81SAPS  H18Z 7613   4.965   2.778   8.708  2.5567  1.0518  2.4030
   82SAPS     N 7614   4.540   1.823  10.735  0.2281 -0.5945  0.0393
   82SAPS   HN1 7615   4.483   1.902  10.699 -1.0140 -0.4591  2.1723
   82SAPS   HN2 7616   4.635   1.858  10.756 -0.4279  1.0544  0.4131
   82SAPS   HN3 7617   4.549   1.740  10.672 -1.3938  0.4624 -1.7071
   82SAPS   C12 7618   4.476   1.779  10.866  0.3525 -0.8419 -1.1768
   82SAPS  H12A 7619   4.542   1.704  10.909 -0.6186 -0.2299  1.5785
   82SAPS   C13 7620   4.462   1.889  10.981 -0.5170 -0.5200  0.3396
   82SAPS  O13A 7621   4.509   2.003  10.955  0.0167 -1.1501  0.2098
   82SAPS  O13B 7622   4.404   1.851  11.086 -1.0460 -0.5135  0.4239
   82SAPS   C11 7623   4.336   1.717  10.838  0.1717  0.2878  0.5690
   82SAPS  H11A 7624   4.265   1.795  10.805  1.4023  1.1365 -0.1770
   82SAPS  H11B 7625   4.305   1.677  10.937  2.3471  2.7931  2.4198
   82SAPS     P 7626   4.227   1.545  10.666  0.6608  0.1013 -0.2639
   82SAPS   O13 7627   4.283   1.443  10.578  0.0101  0.0847  0.4254
   82SAPS   O14 7628   4.131   1.507  10.770 -0.2190 -0.4073  0.4126
   82SAPS   O12 7629   4.342   1.619  10.735  1.2984 -0.0311 -0.5206
   82SAPS   O11 7630   4.170   1.662  10.568 -0.0101 -0.2997  0.0034
   82SAPS    C1 7631   4.232   1.775  10.511  0.1981 -0.5631  0.0067
   82SAPS    HA 7632   4.164   1.863  10.519  0.9662  0.1148 -0.7830
   82SAPS    HB 7633   4.332   1.796  10.554  0.3167 -1.7688  0.3355
   82SAPS    C2 7634   4.261   1.759  10.359  0.0116 -0.0810  0.7260
   82SAPS    HS 7635   4.324   1.844  10.326  1.7950 -1.9132 -0.7890
   82SAPS   O21 7636   4.136   1.748  10.273  0.1920  0.2716  0.0246
   82SAPS   C21 7637   4.104   1.859  10.211 -1.3839 -0.1389 -0.5096
   82SAPS   O22 7638   4.162   1.964  10.212  0.0836 -0.5602 -0.1160
   82SAPS   C22 7639   3.967   1.842  10.143  0.5970 -0.0558  0.1215
   82SAPS   H2R 7640   3.959   1.750  10.082 -2.0076  1.0035 -1.2630
   82SAPS   H2S 7641   3.890   1.830  10.222  0.1853  1.3765 -0.0366
   82SAPS    C3 7642   4.346   1.641  10.332 -0.0623  0.0966 -0.4105
   82SAPS    HX 7643   4.291   1.551  10.368  1.4679 -0.6123  0.2680
   82SAPS    HY 7644   4.437   1.651  10.395 -1.3270 -0.0269  1.5252
   82SAPS   O31 7645   4.375   1.650  10.193 -0.2592 -0.4780  0.0694
   82SAPS   C31 7646   4.425   1.540  10.139 -0.8392 -0.5924  0.1101
   82SAPS   O32 7647   4.441   1.438  10.201 -0.3056  0.6024  0.5958
   82SAPS   C32 7648   4.422   1.558   9.989 -0.3923  0.9103  0.8246
   82SAPS   H2X 7649   4.458   1.656   9.951  2.2889  0.0026  0.7843
   82SAPS   H2Y 7650   4.321   1.536   9.949  0.3087 -2.8599  0.7473
   82SAPS   C23 7651   3.919   1.962  10.052  0.3045 -0.0744  0.5596
   82SAPS   H3R 7652   3.999   1.986   9.978 -1.1186  0.4325 -0.8689
   82SAPS   H3S 7653   3.898   2.053  10.112  2.1887 -0.6798  2.2379
   82SAPS   C24 7654   3.794   1.921   9.973  0.0331  0.4995 -0.5034
   82SAPS   H4R 7655   3.820   1.829   9.915  1.0944 -0.4638  1.3996
   82SAPS   H4S 7656   3.761   2.001   9.904 -0.5720  1.1705  0.5517
   82SAPS   C25 7657   3.675   1.894  10.067 -0.2022  0.4581 -0.3864
   82SAPS   H5R 7658   3.683   1.968  10.149  1.3599  1.4091 -1.3298
   82SAPS   C26 7659   3.587   1.794  10.063 -0.0789 -0.1468 -0.3318
   82SAPS   H6R 7660   3.516   1.785  10.146  0.6462  1.1111  0.4546
   82SAPS   C27 7661   3.594   1.689   9.960 -0.0877 -0.7001  0.4144
   82SAPS   H7R 7662   3.695   1.652   9.931  0.5914  1.1842  0.2611
   82SAPS   H7S 7663   3.573   1.739   9.864  0.8328 -0.0385  0.5512
   82SAPS   C28 7664   3.511   1.565   9.997 -0.4275 -0.1017  0.0361
   82SAPS   H8R 7665   3.483   1.544  10.101 -2.6254  1.0922 -0.2548
   82SAPS   C29 7666   3.451   1.482   9.912 -0.1798 -0.7858 -0.7222
   82SAPS   H9R 7667   3.395   1.395   9.949  2.0154 -1.0512  2.3834
   82SAPS  C210 7668   3.459   1.504   9.763  0.0225 -0.3846 -0.2287
   82SAPS  H10R 7669   3.477   1.610   9.735  0.8875 -0.5666 -0.3975
   82SAPS  H10S 7670   3.361   1.479   9.717 -0.1245  1.4535 -1.0247
   82SAPS  C211 7671   3.560   1.427   9.691 -0.0316 -0.1893  0.1361
   82SAPS  H11R 7672   3.620   1.356   9.750  0.5418  0.2328  0.0706
   82SAPS  C212 7673   3.578   1.442   9.557  0.0318 -0.2872 -0.6154
   82SAPS  H12R 7674   3.655   1.381   9.507 -0.9084 -2.9030  0.9839
   82SAPS  C213 7675   3.510   1.535   9.461 -0.4221 -0.1985 -0.2044
   82SAPS  H13R 7676   3.420   1.588   9.498  0.1015 -0.5378  1.6426
   82SAPS  H13S 7677   3.459   1.460   9.396  1.6565 -0.8548 -1.1660
   82SAPS  C214 7678   3.590   1.637   9.383 -0.0623 -0.2563 -1.1272
   82SAPS  H14R 7679   3.649   1.704   9.447  0.5552 -0.4154 -1.5189
   82SAPS  C215 7680   3.598   1.653   9.250 -0.4811 -0.3452 -0.2760
   82SAPS  H15R 7681   3.670   1.724   9.206 -1.5487 -0.4649 -2.3317
   82SAPS  C216 7682   3.526   1.566   9.153  0.9241 -0.2206  0.7690
   82SAPS  H16R 7683   3.447   1.632   9.111  1.3109  0.0587  0.4704
   82SAPS  H16S 7684   3.476   1.480   9.203  0.3540  0.7516  1.9222
   82SAPS  C217 7685   3.629   1.519   9.048 -0.8487 -0.8019  0.5570
   82SAPS  H17R 7686   3.705   1.459   9.102  0.4339  1.2666  1.1661
   82SAPS  H17S 7687   3.701   1.589   9.000 -1.3889  1.0336  2.2633
   82SAPS  C218 7688   3.554   1.443   8.925 -0.2002 -0.4608  0.2820
   82SAPS  H18R 7689   3.445   1.431   8.947 -0.3294 -1.1650 -0.6616
   82SAPS  H18S 7690   3.591   1.339   8.941  1.7910  0.1697  0.0285
   82SAPS  C219 7691   3.576   1.474   8.779  0.6582 -0.1809  0.6141
   82SAPS  H19R 7692   3.683   1.477   8.752  0.0705  2.0677 -1.8424
   82SAPS  H19S 7693   3.537   1.574   8.752  0.2957  0.1699  2.3327
   82SAPS  C220 7694   3.514   1.368   8.683  0.5459 -0.0170  0.6132
   82SAPS  H20R 7695   3.518   1.400   8.576 -0.7868 -1.7390  0.0071
   82SAPS  H20S 7696   3.409   1.358   8.718  1.1046 -0.7399  2.1684
   82SAPS  H20T 7697   3.563   1.269   8.693  1.4977  0.2088 -1.3013
   82SAPS   C33 7698   4.519   1.459   9.918  0.8092  0.1568  0.0958
   82SAPS   H3X 7699   4.481   1.361   9.953 -0.0151  0.5828  0.4304
   82SAPS   H3Y 7700   4.624   1.484   9.946  0.7757 -0.1124  0.4597
   82SAPS   C34 7701   4.491   1.459   9.767 -0.0048 -0.4299 -0.0147
   82SAPS   H4X 7702   4.387   1.497   9.758  0.2718  1.3588  2.9472
   82SAPS   H4Y 7703   4.501   1.360   9.718  1.1063  0.3499 -1.4621
   82SAPS   C35 7704   4.581   1.554   9.687  0.5178 -0.6251 -0.6663
   82SAPS   H5X 7705   4.683   1.515   9.672  0.9430  0.3082 -0.2872
   82SAPS   H5Y 7706   4.598   1.638   9.758 -1.2521 -0.7803  0.0143
   82SAPS   C36 7707   4.516   1.608   9.559  0.0327  0.8486  0.5690
   82SAPS   H6X 7708   4.595   1.667   9.508  1.7126 -1.8550 -0.1702
   82SAPS   H6Y 7709   4.432   1.677   9.580  0.8702  1.6496  1.3928
   82SAPS   C37 7710   4.489   1.495   9.453 -0.1603  0.8242 -0.4624
   82SAPS   H7X 7711   4.414   1.423   9.494  1.0933  0.2332  0.8889
   82SAPS   H7Y 7712   4.577   1.431   9.427 -0.6830  0.2325 -0.8047
   82SAPS   C38 7713   4.420   1.537   9.318 -0.2874 -0.6434 -0.0009
   82SAPS   H8X 7714   4.311   1.552   9.335 -0.3298 -0.9325 -0.0006
   82SAPS   H8Y 7715   4.442   1.456   9.245  1.8918 -1.9037  1.8943
   82SAPS   C39 7716   4.476   1.672   9.257  0.3091 -0.3584  0.2060
   82SAPS   H9X 7717   4.586   1.679   9.270  0.3699 -1.6396  0.5251
   82SAPS   H9Y 7718   4.426   1.757   9.307  2.5560  0.4555  1.2010
   82SAPS  C310 7719   4.446   1.670   9.105 -0.3074 -0.0498 -0.0592
   82SAPS  H10X 7720   4.491   1.583   9.055 -0.6512  0.0057 -0.4682
   82SAPS  H10Y 7721   4.486   1.757   9.049 -0.0316  0.1963  0.5118
   82SAPS  C311 7722   4.300   1.671   9.065  0.1696  0.0913  0.4237
   82SAPS  H11X 7723   4.234   1.737   9.125 -0.7948 -1.9814  1.7570
   82SAPS  H11Y 7724   4.249   1.574   9.082  2.2070 -1.5534 -2.1239
   82SAPS  C312 7725   4.289   1.714   8.919  0.6371  0.3891 -0.2190
   82SAPS  H12X 7726   4.369   1.673   8.854  0.1696 -1.6952  0.4320
   82SAPS  H12Y 7727   4.307   1.823   8.924  2.5862  0.0342  2.4908
   82SAPS  C313 7728   4.154   1.677   8.854 -0.2132  0.2968 -0.2105
   82SAPS  H13X 7729   4.069   1.735   8.895  0.4373  1.7710 -0.8880
   82SAPS  H13Y 7730   4.126   1.570   8.869 -2.1367  1.1047  2.7301
   82SAPS  C314 7731   4.168   1.689   8.695  0.0311 -0.1104 -0.4886
   82SAPS  H14X 7732   4.253   1.635   8.648  0.8240  1.3338 -0.7584
   82SAPS  H14Y 7733   4.178   1.793   8.659 -3.4459  0.7215  0.5871
   82SAPS  C315 7734   4.038   1.637   8.633 -0.8423  1.0399  0.0012
   82SAPS  H15X 7735   4.000   1.543   8.678  1.8116 -1.2686 -2.2177
   82SAPS  H15Y 7736   4.056   1.612   8.526  0.7929 -1.6829  0.8135
   82SAPS  C316 7737   3.924   1.737   8.639  0.2456  0.0951  0.0168
   82SAPS  H16X 7738   3.960   1.832   8.593  2.4769  0.5295  2.4368
   82SAPS  H16Y 7739   3.906   1.761   8.746 -0.1692 -2.1252  0.4821
   82SAPS  C317 7740   3.803   1.673   8.571  0.4602  0.0522  0.5368
   82SAPS  H17X 7741   3.715   1.738   8.587  0.5281  0.9152 -2.1878
   82SAPS  H17Y 7742   3.785   1.567   8.601  4.5184 -1.2331 -0.8118
   82SAPS  C318 7743   3.809   1.676   8.414  0.4468 -0.2967  0.2106
   82SAPS  H18X 7744   3.885   1.601   8.383  1.0220  1.1441 -2.1212
   82SAPS  H18Y 7745   3.819   1.779   8.372  2.9062  0.1745  1.7343
   82SAPS  H18Z 7746   3.711   1.638   8.378  1.4518 -1.8547 -1.0008
   83SAPS     N 7747   1.245   4.913  10.897 -0.1687  0.0249 -0.4997
   83SAPS   HN1 7748   1.314   4.973  10.946  1.7137 -1.3933 -1.2835
   83SAPS   HN2 7749   1.302   4.836  10.856  0.9621  0.4240  0.2937
   83SAPS   HN3 7750   1.194   4.975  10.831 -0.2579  1.8949  1.2538
   83SAPS   C12 7751   1.150   4.848  10.993 -0.6490 -0.1961 -0.5241
   83SAPS  H12A 7752   1.100   4.768  10.940 -1.1109 -1.1285  1.2252
   83SAPS   C13 7753   1.221   4.782  11.111 -0.9581  0.3116 -0.1863
   83SAPS  O13A 7754   1.348   4.785  11.112  0.6821 -0.5964  0.0108
   83SAPS  O13B 7755   1.152   4.729  11.202  0.3100  0.3720 -0.4512
   83SAPS   C11 7756   1.057   4.961  11.037 -0.2264 -0.3770 -0.1319
   83SAPS  H11A 7757   1.126   5.033  11.086  0.2431  0.2620 -1.6913
   83SAPS  H11B 7758   0.976   4.930  11.107 -1.2617 -0.4758 -1.3490
   83SAPS     P 7759   0.906   5.149  10.922  0.2092 -0.2472  0.1086
   83SAPS   O13 7760   0.800   5.142  11.025  0.6787  0.6203 -0.0482
   83SAPS   O14 7761   0.993   5.265  10.938 -0.0825 -0.0482 -0.1648
   83SAPS   O12 7762   0.997   5.018  10.918  0.0297 -0.3902 -0.0680
   83SAPS   O11 7763   0.842   5.153  10.780 -0.0510 -0.4379  0.1229
   83SAPS    C1 7764   0.937   5.148  10.669  0.4417 -0.5389 -0.7658
   83SAPS    HA 7765   1.041   5.142  10.708  0.0077 -1.2983  0.3126
   83SAPS    HB 7766   0.917   5.066  10.597 -1.1558 -0.2679 -0.6752
   83SAPS    C2 7767   0.919   5.278  10.587  0.2057 -0.0118 -0.1740
   83SAPS    HS 7768   0.910   5.356  10.665  1.2774 -1.5363  1.5464
   83SAPS   O21 7769   0.798   5.254  10.523  0.3536 -0.1570 -0.0445
   83SAPS   C21 7770   0.744   5.367  10.480  0.6127  0.6617 -0.4314
   83SAPS   O22 7771   0.782   5.479  10.512  1.1375  0.2369 -0.2916
   83SAPS   C22 7772   0.630   5.344  10.381  0.1629  0.5050 -0.8384
   83SAPS   H2R 7773   0.654   5.258  10.316  0.8840 -0.5573  0.7696
   83SAPS   H2S 7774   0.538   5.325  10.439  0.5067 -0.5295 -0.6104
   83SAPS    C3 7775   1.028   5.325  10.496  0.0271 -0.3785 -0.3174
   83SAPS    HX 7776   1.118   5.332  10.562 -1.2560  2.6355  1.3215
   83SAPS    HY 7777   1.004   5.423  10.451 -0.2639 -0.6400 -0.7325
   83SAPS   O31 7778   1.053   5.233  10.386 -0.7249 -0.5603 -0.0753
   83SAPS   C31 7779   1.034   5.285  10.258 -0.4853  0.5090 -0.2175
   83SAPS   O32 7780   0.993   5.392  10.236  0.1591  0.1757 -0.2426
   83SAPS   C32 7781   1.065   5.175  10.161 -0.1746  0.5780  0.6394
   83SAPS   H2X 7782   0.985   5.098  10.152  0.0285  0.4894 -0.7195
   83SAPS   H2Y 7783   1.164   5.137  10.195 -0.8928 -1.8805  0.2231
   83SAPS   C23 7784   0.615   5.483  10.309  0.2828 -0.8776  0.0634
   83SAPS   H3R 7785   0.707   5.519  10.259  0.2182  0.0440  0.5887
   83SAPS   H3S 7786   0.580   5.554  10.387  0.6952 -1.2751  0.6167
   83SAPS   C24 7787   0.509   5.486  10.200 -0.0229 -0.0034 -0.6690
   83SAPS   H4R 7788   0.509   5.590  10.164  2.3921  1.2333  2.4141
   83SAPS   H4S 7789   0.411   5.475  10.251 -0.5423  3.6780 -0.6563
   83SAPS   C25 7790   0.519   5.368  10.110 -0.4051  0.1911  0.0618
   83SAPS   H5R 7791   0.469   5.272  10.128  0.1244 -0.1555 -0.2924
   83SAPS   C26 7792   0.581   5.375   9.994 -0.2637  0.0696 -0.2590
   83SAPS   H6R 7793   0.580   5.287   9.929  1.1421 -0.1264 -0.0533
   83SAPS   C27 7794   0.650   5.498   9.938 -0.2300  0.7566 -0.5017
   83SAPS   H7R 7795   0.702   5.553  10.019  1.1932  0.8075 -1.4166
   83SAPS   H7S 7796   0.577   5.567   9.890 -1.8696 -0.7820 -0.3423
   83SAPS   C28 7797   0.770   5.467   9.843  1.5243 -0.4303 -0.2467
   83SAPS   H8R 7798   0.860   5.432   9.895  0.9735 -1.1744  0.2340
   83SAPS   C29 7799   0.757   5.458   9.712 -0.9033 -0.2657  0.1196
   83SAPS   H9R 7800   0.843   5.423   9.655 -0.3413  0.3445  0.5804
   83SAPS  C210 7801   0.633   5.495   9.634  0.1985 -1.2852  0.0337
   83SAPS  H10R 7802   0.674   5.526   9.535  1.2118  1.0023  1.0991
   83SAPS  H10S 7803   0.582   5.579   9.687  0.5331 -0.0835 -1.4568
   83SAPS  C211 7804   0.525   5.384   9.625  0.1369 -0.1389 -0.4540
   83SAPS  H11R 7805   0.511   5.339   9.724  1.5260 -1.9265 -1.0106
   83SAPS  C212 7806   0.450   5.347   9.518 -0.0634  0.3307  1.0557
   83SAPS  H12R 7807   0.365   5.278   9.532  0.4420 -0.0635  2.2428
   83SAPS  C213 7808   0.457   5.408   9.380  0.2735  0.3892  0.0943
   83SAPS  H13R 7809   0.473   5.315   9.321 -0.2037  0.4863 -0.1851
   83SAPS  H13S 7810   0.548   5.471   9.371  0.0112  0.5287 -1.9603
   83SAPS  C214 7811   0.327   5.479   9.343 -0.7899 -0.2841 -0.3510
   83SAPS  H14R 7812   0.250   5.466   9.420 -2.7337  0.9223 -2.0019
   83SAPS  C215 7813   0.298   5.541   9.227 -0.6065  0.4976 -0.0253
   83SAPS  H15R 7814   0.203   5.588   9.198 -0.6260  0.2039 -0.4523
   83SAPS  C216 7815   0.397   5.552   9.110  0.2860  0.2652 -0.2421
   83SAPS  H16R 7816   0.494   5.502   9.127  1.4760  2.9133  1.3317
   83SAPS  H16S 7817   0.413   5.659   9.081  0.7902  0.3225  0.2495
   83SAPS  C217 7818   0.354   5.492   8.975 -0.1602 -0.0503  0.5746
   83SAPS  H17R 7819   0.360   5.381   8.972 -1.8378 -0.2114  1.9064
   83SAPS  H17S 7820   0.414   5.541   8.896 -1.8285 -0.2601 -0.8914
   83SAPS  C218 7821   0.211   5.527   8.932  0.0355  0.3049  0.7916
   83SAPS  H18R 7822   0.192   5.635   8.944 -1.0879  0.0400  1.5378
   83SAPS  H18S 7823   0.137   5.477   8.998  1.2064 -1.1369  1.0773
   83SAPS  C219 7824   0.177   5.503   8.782 -0.9479 -0.5005 -0.6433
   83SAPS  H19R 7825   0.072   5.532   8.760 -0.6733  0.0388 -1.2790
   83SAPS  H19S 7826   0.188   5.396   8.758 -1.8496 -0.3215 -1.9337
   83SAPS  C220 7827   0.269   5.575   8.679  0.7676  0.5185  0.4494
   83SAPS  H20R 7828   0.275   5.685   8.689 -0.2676  0.7360 -1.1521
   83SAPS  H20S 7829   0.215   5.566   8.583  1.6435 -2.2982  0.1264
   83SAPS  H20T 7830   0.373   5.536   8.681  1.3744  2.0817  2.2840
   83SAPS   C33 7831   1.078   5.248  10.027  0.2150  0.3731 -0.1200
   83SAPS   H3X 7832   1.144   5.337  10.032  0.6851 -0.0367  1.5073
   83SAPS   H3Y 7833   0.976   5.279   9.997  0.0513 -1.1870 -1.3567
   83SAPS   C34 7834   1.119   5.145   9.914  0.8256  0.0125 -0.2022
   83SAPS   H4X 7835   1.042   5.065   9.907  1.9593 -1.2516  1.0238
   83SAPS   H4Y 7836   1.220   5.107   9.941  0.8998  1.1397  1.2420
   83SAPS   C35 7837   1.132   5.208   9.776 -0.5752  0.2029 -0.3258
   83SAPS   H5X 7838   1.211   5.286   9.776 -0.9338  0.5747  0.3552
   83SAPS   H5Y 7839   1.037   5.260   9.753 -0.3732 -0.4957 -3.0320
   83SAPS   C36 7840   1.157   5.111   9.662  0.2370  0.1258  0.2228
   83SAPS   H6X 7841   1.054   5.082   9.632  0.3468 -1.5697  1.3772
   83SAPS   H6Y 7842   1.226   5.027   9.684  0.2074 -0.8366 -2.8669
   83SAPS   C37 7843   1.219   5.178   9.541 -0.8784 -0.6046  0.4743
   83SAPS   H7X 7844   1.230   5.099   9.463 -0.0056 -0.3561  0.3450
   83SAPS   H7Y 7845   1.319   5.220   9.562 -0.7160 -0.6230 -0.2247
   83SAPS   C38 7846   1.146   5.299   9.496  0.5047 -1.1013 -0.0702
   83SAPS   H8X 7847   1.216   5.354   9.429 -0.6606  1.9527  1.0452
   83SAPS   H8Y 7848   1.126   5.369   9.579  2.1989 -1.2478  0.4965
   83SAPS   C39 7849   1.015   5.265   9.422  0.0122 -0.0885  1.2896
   83SAPS   H9X 7850   0.952   5.214   9.497 -0.5102 -1.6897 -0.1780
   83SAPS   H9Y 7851   1.032   5.199   9.335 -1.3406 -1.6982  2.2017
   83SAPS  C310 7852   0.963   5.396   9.363 -0.1732 -0.1485  0.3152
   83SAPS  H10X 7853   1.035   5.447   9.295 -0.5682 -0.4860 -0.3653
   83SAPS  H10Y 7854   0.935   5.465   9.446 -1.7690 -1.0470  0.5480
   83SAPS  C311 7855   0.835   5.368   9.287 -0.4141 -0.5238 -0.3378
   83SAPS  H11X 7856   0.779   5.464   9.283  1.0405  0.4892  1.6839
   83SAPS  H11Y 7857   0.775   5.300   9.352 -0.3068 -2.0371 -1.7471
   83SAPS  C312 7858   0.841   5.313   9.140  0.1611  0.5517  0.2658
   83SAPS  H12X 7859   0.863   5.206   9.159  0.7817  0.7821  0.9026
   83SAPS  H12Y 7860   0.926   5.365   9.089  0.0714  0.4255 -0.0149
   83SAPS  C313 7861   0.707   5.312   9.066  0.4674  0.1558  0.3149
   83SAPS  H13X 7862   0.687   5.419   9.042  1.4240  0.1167 -0.7463
   83SAPS  H13Y 7863   0.638   5.257   9.133 -1.7570  1.0968 -1.0658
   83SAPS  C314 7864   0.701   5.226   8.936 -0.4949 -0.5177 -1.1540
   83SAPS  H14X 7865   0.728   5.125   8.973  3.0372  1.3318  2.1625
   83SAPS  H14Y 7866   0.788   5.262   8.877 -0.2392 -2.4414 -1.9925
   83SAPS  C315 7867   0.584   5.228   8.848  0.4242 -0.1323  0.0894
   83SAPS  H15X 7868   0.567   5.330   8.807  0.7081 -0.6402 -1.3450
   83SAPS  H15Y 7869   0.484   5.210   8.893  1.2852 -1.4484  1.5502
   83SAPS  C316 7870   0.600   5.130   8.730  0.9459 -0.0767 -0.2843
   83SAPS  H16X 7871   0.620   5.031   8.777 -0.6740 -0.1476  0.3516
   83SAPS  H16Y 7872   0.683   5.163   8.665  0.6208 -2.2057 -1.8873
   83SAPS  C317 7873   0.479   5.106   8.645 -0.2147 -0.2060 -0.0301
   83SAPS  H17X 7874   0.458   5.208   8.607  2.1933  0.5854  0.5703
   83SAPS  H17Y 7875   0.390   5.069   8.700 -0.9642 -0.4111 -1.3214
   83SAPS  C318 7876   0.495   5.002   8.533 -0.0593 -0.4651 -0.1780
   83SAPS  H18X 7877   0.570   5.029   8.457  0.1483 -1.8745 -0.4975
   83SAPS  H18Y 7878   0.393   4.996   8.490 -0.8756 -1.0828  1.6944
   83SAPS  H18Z 7879   0.521   4.903   8.577 -2.6055 -0.0657  2.5364
   84SAPS     N 7880   0.628   3.869  11.238 -0.1464  0.4445  0.2881
   84SAPS   HN1 7881   0.574   3.877  11.149 -1.3178 -1.9285  0.7049
   84SAPS   HN2 7882   0.612   3.962  11.282 -0.3131  1.2584 -1.3864
   84SAPS   HN3 7883   0.729   3.846  11.229 -0.9450 -3.9869  0.2802
   84SAPS   C12 7884   0.552   3.755  11.308  0.5341  0.5108  0.2759
   84SAPS  H12A 7885   0.552   3.662  11.253 -0.2486  0.6447  0.0389
   84SAPS   C13 7886   0.607   3.731  11.455  0.4859  0.5971  0.7293
   84SAPS  O13A 7887   0.722   3.773  11.484  0.5705 -0.1560  0.4748
   84SAPS  O13B 7888   0.540   3.643  11.519 -0.0937  0.0397 -0.4961
   84SAPS   C11 7889   0.398   3.782  11.291  0.1250 -0.2657 -0.3364
   84SAPS  H11A 7890   0.369   3.873  11.349  0.7752 -0.2474 -0.0367
   84SAPS  H11B 7891   0.352   3.700  11.351  0.5748  0.1859  0.6554
   84SAPS     P 7892   0.284   3.674  11.073  0.1107 -0.7180 -0.1684
   84SAPS   O13 7893   0.386   3.595  11.004 -0.5348 -0.3660  0.3217
   84SAPS   O14 7894   0.202   3.594  11.162 -0.8697  0.2091  0.3088
   84SAPS   O12 7895   0.348   3.792  11.154 -0.1208  0.4760 -0.4387
   84SAPS   O11 7896   0.194   3.740  10.967  0.2380  0.2698 -0.4844
   84SAPS    C1 7897   0.220   3.829  10.860 -0.2712  0.0616 -0.4232
   84SAPS    HA 7898   0.174   3.924  10.893 -0.2583 -0.4104  1.0247
   84SAPS    HB 7899   0.328   3.854  10.850  0.1104 -1.4795 -0.3866
   84SAPS    C2 7900   0.163   3.794  10.725 -0.0717  0.4058  0.0811
   84SAPS    HS 7901   0.053   3.804  10.741 -0.0203  0.9941  0.0842
   84SAPS   O21 7902   0.217   3.668  10.682  0.4589  0.0719 -0.3592
   84SAPS   C21 7903   0.161   3.551  10.718  0.6913  0.1058  0.8461
   84SAPS   O22 7904   0.066   3.538  10.789 -0.4635 -0.1717  0.8840
   84SAPS   C22 7905   0.224   3.437  10.636 -0.0559  0.4932 -0.2709
   84SAPS   H2R 7906   0.326   3.423  10.678  0.4200  1.7251 -0.9623
   84SAPS   H2S 7907   0.172   3.342  10.662  1.5517 -0.3139  0.1167
   84SAPS    C3 7908   0.220   3.885  10.620  0.4418  0.2492  0.5060
   84SAPS    HX 7909   0.331   3.884  10.633  0.7368  0.1347 -1.6538
   84SAPS    HY 7910   0.190   3.990  10.640 -0.1836  0.3541 -0.8709
   84SAPS   O31 7911   0.181   3.838  10.486  0.2410  0.4262 -0.2221
   84SAPS   C31 7912   0.062   3.893  10.450  0.0439 -0.2030  0.3790
   84SAPS   O32 7913   0.019   4.001  10.495 -0.0056  0.5978 -0.0017
   84SAPS   C32 7914   0.005   3.816  10.333  0.5160  0.1446 -0.6180
   84SAPS   H2X 7915  -0.090   3.867  10.308 -1.3577 -1.3379  2.8087
   84SAPS   H2Y 7916  -0.029   3.715  10.365  1.2583  0.9902  3.4044
   84SAPS   C23 7917   0.227   3.472  10.484 -0.1847 -0.1588  0.8268
   84SAPS   H3R 7918   0.294   3.561  10.472 -0.3700 -0.1382 -0.1518
   84SAPS   H3S 7919   0.124   3.507  10.460 -0.6320 -0.3534  2.3264
   84SAPS   C24 7920   0.255   3.358  10.392 -0.4047 -0.2450  0.1605
   84SAPS   H4R 7921   0.176   3.280  10.384  0.4679 -1.1258 -0.1922
   84SAPS   H4S 7922   0.343   3.318  10.447 -0.5758 -0.3059  0.3909
   84SAPS   C25 7923   0.292   3.418  10.259 -0.5925 -0.2306  0.2443
   84SAPS   H5R 7924   0.376   3.487  10.275  0.6611 -1.6347  0.0607
   84SAPS   C26 7925   0.237   3.395  10.137 -1.0821  1.1240  0.4329
   84SAPS   H6R 7926   0.280   3.445  10.049 -3.1613  1.2492 -0.5887
   84SAPS   C27 7927   0.127   3.299  10.103  0.5320  0.8099 -0.3922
   84SAPS   H7R 7928   0.167   3.199  10.127  0.0963  0.5221 -0.8310
   84SAPS   H7S 7929   0.107   3.271   9.997 -3.1861 -0.8645  0.5865
   84SAPS   C28 7930  -0.004   3.329  10.176  0.1939 -0.1290 -0.5217
   84SAPS   H8R 7931   0.004   3.338  10.286 -0.1486  3.6974 -0.6775
   84SAPS   C29 7932  -0.119   3.367  10.116  0.0200 -0.3466  0.4062
   84SAPS   H9R 7933  -0.199   3.391  10.187  0.5322 -1.7295  1.4939
   84SAPS  C210 7934  -0.145   3.387   9.964 -0.0387 -0.1307  0.0894
   84SAPS  H10R 7935  -0.050   3.358   9.914  0.0310  0.4016 -0.0958
   84SAPS  H10S 7936  -0.158   3.496   9.946 -1.4988  0.3069  3.0605
   84SAPS  C211 7937  -0.270   3.316   9.914 -0.4002  0.5987  0.5747
   84SAPS  H11R 7938  -0.300   3.238   9.986  1.5233  0.0006  0.7889
   84SAPS  C212 7939  -0.345   3.350   9.804 -0.4794  0.7127  0.4146
   84SAPS  H12R 7940  -0.441   3.298   9.796  0.1433 -0.2382 -1.4337
   84SAPS  C213 7941  -0.310   3.459   9.710 -0.0329 -0.9611  0.7230
   84SAPS  H13R 7942  -0.277   3.548   9.768 -1.3061  0.4610 -0.6383
   84SAPS  H13S 7943  -0.404   3.488   9.659 -0.0942 -2.3631 -0.0031
   84SAPS  C214 7944  -0.207   3.442   9.599  0.8575 -0.3708  0.1423
   84SAPS  H14R 7945  -0.107   3.407   9.630  1.7710  0.4717 -1.6605
   84SAPS  C215 7946  -0.221   3.485   9.472 -0.4309  0.5426  0.3134
   84SAPS  H15R 7947  -0.139   3.487   9.399 -1.2771 -1.3046 -0.7553
   84SAPS  C216 7948  -0.343   3.562   9.422 -0.1503 -0.5637 -0.8113
   84SAPS  H16R 7949  -0.346   3.654   9.485  3.0271 -1.2072  0.4811
   84SAPS  H16S 7950  -0.441   3.511   9.429 -1.5038  1.8033 -1.1805
   84SAPS  C217 7951  -0.332   3.596   9.276  0.1632  0.4071  0.2761
   84SAPS  H17R 7952  -0.345   3.510   9.206 -0.9871  0.6043  0.2259
   84SAPS  H17S 7953  -0.226   3.628   9.263  1.2769 -1.9475  2.5874
   84SAPS  C218 7954  -0.428   3.709   9.234 -0.0591  0.2567  0.5102
   84SAPS  H18R 7955  -0.417   3.799   9.299 -0.1363  1.5256 -1.1416
   84SAPS  H18S 7956  -0.534   3.679   9.242 -0.6364  2.0060  0.0002
   84SAPS  C219 7957  -0.401   3.769   9.096  0.1853 -0.8134  0.4654
   84SAPS  H19R 7958  -0.416   3.699   9.011  1.1914 -1.0134  0.4421
   84SAPS  H19S 7959  -0.297   3.807   9.097  0.0813 -0.5156  2.4248
   84SAPS  C220 7960  -0.483   3.892   9.074 -0.6479  0.0357 -0.0547
   84SAPS  H20R 7961  -0.473   3.928   8.969 -3.4086 -0.0544 -0.4021
   84SAPS  H20S 7962  -0.471   3.968   9.153  0.8959 -1.3217  1.1011
   84SAPS  H20T 7963  -0.586   3.853   9.062 -0.4412 -0.4428 -0.3184
   84SAPS   C33 7964   0.106   3.802  10.215 -0.0965 -0.4719  0.0575
   84SAPS   H3X 7965   0.202   3.748  10.233  0.1780 -1.2722 -3.1590
   84SAPS   H3Y 7966   0.127   3.904  10.176  3.6267 -1.4041 -0.8123
   84SAPS   C34 7967   0.041   3.734  10.096 -0.3903 -0.1003 -0.7705
   84SAPS   H4X 7968  -0.062   3.774  10.087  0.5867  2.0955 -3.7879
   84SAPS   H4Y 7969   0.040   3.622  10.099 -0.2915 -0.1190 -1.3510
   84SAPS   C35 7970   0.123   3.755   9.970 -0.2964 -0.3983 -0.2818
   84SAPS   H5X 7971   0.216   3.697   9.989  0.6137  0.3902 -2.1098
   84SAPS   H5Y 7972   0.158   3.859   9.951  0.3904 -0.4830  0.4450
   84SAPS   C36 7973   0.076   3.682   9.839 -0.3147 -0.2962 -0.2191
   84SAPS   H6X 7974  -0.021   3.734   9.821 -0.6173 -1.0624 -0.8622
   84SAPS   H6Y 7975   0.055   3.575   9.861 -2.7451  0.4161  1.4399
   84SAPS   C37 7976   0.165   3.701   9.717 -0.4745 -0.1098 -0.7177
   84SAPS   H7X 7977   0.252   3.631   9.715 -0.2978  0.1105 -1.5116
   84SAPS   H7Y 7978   0.205   3.805   9.714 -2.9841  0.8923 -1.8122
   84SAPS   C38 7979   0.091   3.695   9.583  0.0396 -0.3196  0.0720
   84SAPS   H8X 7980   0.031   3.788   9.570  1.3018  0.4941 -0.1099
   84SAPS   H8Y 7981   0.016   3.615   9.596 -1.2535  1.2781  4.4052
   84SAPS   C39 7982   0.178   3.674   9.461  0.2787 -0.9965  0.1921
   84SAPS   H9X 7983   0.203   3.566   9.458  1.3214 -0.8129  1.3908
   84SAPS   H9Y 7984   0.273   3.728   9.479 -0.7666  0.9029  0.3097
   84SAPS  C310 7985   0.111   3.716   9.337  0.6230 -0.2508  0.1713
   84SAPS  H10X 7986   0.060   3.814   9.341  0.2595 -0.4209 -0.1995
   84SAPS  H10Y 7987   0.023   3.652   9.313 -1.3899  2.3730  0.1088
   84SAPS  C311 7988   0.204   3.716   9.226 -0.1198 -0.4685 -0.0230
   84SAPS  H11X 7989   0.266   3.624   9.228  4.0381  2.0722  2.4770
   84SAPS  H11Y 7990   0.276   3.799   9.241 -1.5375  0.6013  1.1726
   84SAPS  C312 7991   0.140   3.749   9.088 -0.4120  0.3047 -0.4408
   84SAPS  H12X 7992   0.218   3.750   9.009 -0.9053 -0.8741 -0.9486
   84SAPS  H12Y 7993   0.104   3.855   9.088 -2.0050 -0.2085 -0.7938
   84SAPS  C313 7994   0.025   3.663   9.045 -0.5801  0.2139  0.1215
   84SAPS  H13X 7995  -0.066   3.678   9.108  0.4961 -1.2933  2.1623
   84SAPS  H13Y 7996   0.057   3.557   9.054 -0.6561  0.1386 -0.4608
   84SAPS  C314 7997  -0.022   3.670   8.905  0.3694 -0.6998 -0.7346
   84SAPS  H14X 7998   0.051   3.722   8.839  0.1425  0.4577 -0.0938
   84SAPS  H14Y 7999  -0.116   3.727   8.892 -0.5355 -1.8674  0.4581
   84SAPS  C315 8000  -0.062   3.535   8.852 -1.4428  0.1655 -0.1203
   84SAPS  H15X 8001  -0.143   3.484   8.908 -0.6579 -0.0485  0.8429
   84SAPS  H15Y 8002   0.022   3.462   8.854 -1.3478  0.2770  1.2697
   84SAPS  C316 8003  -0.098   3.554   8.704 -0.0721  0.4175 -0.1575
   84SAPS  H16X 8004  -0.012   3.589   8.644 -0.0680  2.8263  1.1148
   84SAPS  H16Y 8005  -0.163   3.643   8.687 -0.2849 -0.0251 -1.8320
   84SAPS  C317 8006  -0.183   3.438   8.652 -0.3307  1.2566  0.7958
   84SAPS  H17X 8007  -0.282   3.424   8.700 -0.8098 -1.5636 -0.7799
   84SAPS  H17Y 8008  -0.124   3.347   8.676  0.2521  1.2921 -0.4114
   84SAPS  C318 8009  -0.202   3.459   8.504 -0.6553 -0.4388 -0.9164
   84SAPS  H18X 8010  -0.104   3.453   8.451  0.3689 -0.0737  0.8457
   84SAPS  H18Y 8011  -0.248   3.557   8.477  1.2581  0.1554 -2.2254
   84SAPS  H18Z 8012  -0.271   3.380   8.468 -0.9418 -0.7947  0.3640
   85SAPS     N 8013   5.833   4.108  11.164 -0.5045  0.3389  0.5144
   85SAPS   HN1 8014   5.749   4.133  11.221 -1.6340 -0.4139 -0.7523
   85SAPS   HN2 8015   5.800   4.072  11.072 -0.4172 -2.6565  1.5217
   85SAPS   HN3 8016   5.881   4.030  11.213  2.8760  2.1990  0.4454
   85SAPS   C12 8017   5.937   4.216  11.158 -0.9607 -0.7830 -0.8978
   85SAPS  H12A 8018   5.908   4.303  11.101 -0.0887 -0.9362 -1.5970
   85SAPS   C13 8019   5.983   4.269  11.295  0.1368  0.2404  0.3671
   85SAPS  O13A 8020   5.961   4.209  11.401 -0.1640  0.0433 -0.0604
   85SAPS  O13B 8021   6.056   4.370  11.293  0.3626  0.1456  0.5616
   85SAPS   C11 8022   6.068   4.155  11.085  0.5323 -0.9282  0.1658
   85SAPS  H11A 8023   6.121   4.090  11.158  2.2509  0.7137  0.4461
   85SAPS  H11B 8024   6.128   4.245  11.059 -1.2243  0.2997  0.1521
   85SAPS     P 8025   6.153   4.014  10.880  0.0984 -0.1176 -0.3569
   85SAPS   O13 8026   6.255   3.948  10.966  0.1079  0.3346 -0.1690
   85SAPS   O14 8027   6.087   3.942  10.774 -0.0161  0.3628 -1.0007
   85SAPS   O12 8028   6.036   4.089  10.965  0.5096  0.5972 -0.7798
   85SAPS   O11 8029   6.240   4.133  10.823 -0.5048  0.2317  0.2764
   85SAPS    C1 8030   6.189   4.234  10.737 -0.5359 -0.2405 -0.0742
   85SAPS    HA 8031   6.090   4.271  10.769  0.0005  0.5223  0.7219
   85SAPS    HB 8032   6.251   4.326  10.738 -3.4383  2.0802 -3.7244
   85SAPS    C2 8033   6.180   4.193  10.591  0.2438 -0.3384 -0.6694
   85SAPS    HS 8034   6.104   4.111  10.585 -0.1481 -0.1532  1.2418
   85SAPS   O21 8035   6.309   4.156  10.544  0.5995  0.1013 -0.2368
   85SAPS   C21 8036   6.319   4.046  10.463 -0.2072 -0.6927 -0.2316
   85SAPS   O22 8037   6.232   3.966  10.445  0.3802 -0.4172  0.1143
   85SAPS   C22 8038   6.436   4.064  10.371  0.2921 -0.4217  0.6294
   85SAPS   H2R 8039   6.520   4.099  10.434  0.3196  0.5386  0.0715
   85SAPS   H2S 8040   6.466   3.964  10.332  2.7177 -0.1297  1.5921
   85SAPS    C3 8041   6.110   4.312  10.501  0.4038 -0.2000  0.3124
   85SAPS    HX 8042   6.181   4.396  10.512  0.0013  0.4235 -1.5396
   85SAPS    HY 8043   6.014   4.339  10.550  0.2759  0.5176 -0.3260
   85SAPS   O31 8044   6.092   4.269  10.365 -0.6358 -0.0638  0.4040
   85SAPS   C31 8045   5.994   4.196  10.323  0.1620  0.0408  0.3534
   85SAPS   O32 8046   5.890   4.182  10.387 -0.1797  0.4136 -0.2694
   85SAPS   C32 8047   6.015   4.140  10.180  0.0738 -0.2848 -0.4080
   85SAPS   H2X 8048   6.008   4.030  10.195 -0.3054 -0.1253  0.6841
   85SAPS   H2Y 8049   6.114   4.170  10.140 -0.1839 -0.2731 -1.0597
   85SAPS   C23 8050   6.405   4.169  10.265 -0.1570 -0.2120  0.6268
   85SAPS   H3R 8051   6.379   4.267  10.311 -2.9071 -1.6943  2.5111
   85SAPS   H3S 8052   6.308   4.141  10.219 -1.5479  1.2326  2.5282
   85SAPS   C24 8053   6.526   4.165  10.162 -0.1406  0.5123  0.3023
   85SAPS   H4R 8054   6.530   4.056  10.139 -2.3070  0.6077 -0.7734
   85SAPS   H4S 8055   6.624   4.195  10.205  0.1230  2.3025 -1.4179
   85SAPS   C25 8056   6.504   4.251  10.036 -0.1998 -0.8139 -0.0856
   85SAPS   H5R 8057   6.474   4.349  10.074  0.2575 -0.5252 -0.4627
   85SAPS   C26 8058   6.489   4.213   9.905 -0.3613  0.4862 -0.4856
   85SAPS   H6R 8059   6.470   4.293   9.831  0.0978 -0.2364 -1.3992
   85SAPS   C27 8060   6.489   4.076   9.846 -0.1570 -0.5583  0.1046
   85SAPS   H7R 8061   6.393   4.063   9.792 -0.7408  0.2999  0.8892
   85SAPS   H7S 8062   6.476   4.009   9.934 -0.0920  1.5657  1.8336
   85SAPS   C28 8063   6.608   4.033   9.775  0.3223  0.1527  0.1671
   85SAPS   H8R 8064   6.696   4.042   9.840 -0.4741  2.8245  0.9810
   85SAPS   C29 8065   6.620   3.991   9.646  0.4564  0.0232  0.1280
   85SAPS   H9R 8066   6.712   3.986   9.586  1.0238 -2.4606  1.0852
   85SAPS  C210 8067   6.507   3.974   9.548  0.1318 -0.2495 -0.2438
   85SAPS  H10R 8068   6.416   4.029   9.582 -0.1801 -1.5200  1.0550
   85SAPS  H10S 8069   6.475   3.868   9.553  1.0311 -0.4784  1.4302
   85SAPS  C211 8070   6.532   4.013   9.402 -0.0120  0.2501 -0.5260
   85SAPS  H11R 8071   6.597   3.954   9.337  0.2414  0.3632 -0.3772
   85SAPS  C212 8072   6.470   4.109   9.334  0.1664 -0.0371 -0.2810
   85SAPS  H12R 8073   6.494   4.126   9.228 -0.9255  2.3513 -0.1991
   85SAPS  C213 8074   6.375   4.211   9.399 -0.3935 -0.7653 -0.2896
   85SAPS  H13R 8075   6.402   4.312   9.359  3.3379 -1.4722  0.0586
   85SAPS  H13S 8076   6.386   4.219   9.510  2.1283 -2.2900 -0.3526
   85SAPS  C214 8077   6.230   4.176   9.368 -0.2438 -0.3200  0.3972
   85SAPS  H14R 8078   6.170   4.120   9.441 -1.7442 -0.7848 -1.0969
   85SAPS  C215 8079   6.172   4.199   9.251 -1.0392 -0.3896  0.8010
   85SAPS  H15R 8080   6.064   4.182   9.245 -1.2822  1.4386 -1.4132
   85SAPS  C216 8081   6.238   4.265   9.126 -0.0196  0.5169 -0.2584
   85SAPS  H16R 8082   6.243   4.201   9.035 -3.2140  0.1847 -0.3078
   85SAPS  H16S 8083   6.341   4.301   9.151  0.3369  0.0382 -0.9889
   85SAPS  C217 8084   6.168   4.403   9.086 -0.4372  0.6185 -1.1521
   85SAPS  H17R 8085   6.176   4.473   9.172  0.6872  0.9020 -1.4793
   85SAPS  H17S 8086   6.061   4.388   9.060 -1.0265 -0.6439  1.6550
   85SAPS  C218 8087   6.228   4.464   8.957  0.4536  0.3138 -0.1755
   85SAPS  H18R 8088   6.214   4.397   8.869  0.2023 -1.1955  0.9710
   85SAPS  H18S 8089   6.337   4.478   8.975  0.1207  0.6233  1.9059
   85SAPS  C219 8090   6.184   4.610   8.928  0.6016 -0.1792 -0.1357
   85SAPS  H19R 8091   6.191   4.662   9.026 -1.0528  1.5039 -0.8601
   85SAPS  H19S 8092   6.076   4.608   8.901  0.2666  0.2807  1.0974
   85SAPS  C220 8093   6.271   4.675   8.824  0.3679  0.1986  0.4956
   85SAPS  H20R 8094   6.229   4.774   8.796  0.3740  0.6381  1.9467
   85SAPS  H20S 8095   6.287   4.607   8.737 -0.2100  0.6330  0.0410
   85SAPS  H20T 8096   6.369   4.707   8.865  0.4059  1.3211 -0.4036
   85SAPS   C33 8097   5.905   4.185  10.075  0.0774 -0.2154 -0.6153
   85SAPS   H3X 8098   5.866   4.288  10.090 -1.0486 -0.8586  1.2155
   85SAPS   H3Y 8099   5.815   4.121  10.084  0.3461 -0.3300  2.5018
   85SAPS   C34 8100   5.954   4.181   9.932 -0.5666  0.0444 -0.4032
   85SAPS   H4X 8101   6.007   4.085   9.912  3.2287  1.4524  1.7931
   85SAPS   H4Y 8102   6.030   4.259   9.913 -0.6254 -0.1849 -1.7171
   85SAPS   C35 8103   5.831   4.199   9.837 -0.0187  0.3726 -0.0852
   85SAPS   H5X 8104   5.759   4.269   9.885  2.0376  1.0682  2.1642
   85SAPS   H5Y 8105   5.774   4.104   9.837  0.8171 -0.1375 -0.0251
   85SAPS   C36 8106   5.872   4.228   9.696 -0.4816 -0.4368  0.2799
   85SAPS   H6X 8107   5.939   4.153   9.651 -2.1586 -1.3030 -0.8865
   85SAPS   H6Y 8108   5.923   4.326   9.688 -0.0078 -0.5983  1.1930
   85SAPS   C37 8109   5.741   4.208   9.615 -0.4199 -0.1443  0.2019
   85SAPS   H7X 8110   5.651   4.232   9.676 -0.2756  2.0226 -0.3832
   85SAPS   H7Y 8111   5.731   4.099   9.593 -1.5989 -0.6599  2.8270
   85SAPS   C38 8112   5.738   4.288   9.491  0.1373  0.0443 -0.5995
   85SAPS   H8X 8113   5.835   4.292   9.437 -0.6620  1.1623 -1.9896
   85SAPS   H8Y 8114   5.730   4.395   9.518 -1.3315 -0.8005  2.9299
   85SAPS   C39 8115   5.631   4.251   9.393  0.2592  0.8817  1.1636
   85SAPS   H9X 8116   5.535   4.295   9.427  0.2005 -0.1933  2.4525
   85SAPS   H9Y 8117   5.609   4.142   9.385  1.1729  0.7439  0.2316
   85SAPS  C310 8118   5.666   4.287   9.242 -0.2763  0.6525 -0.7469
   85SAPS  H10X 8119   5.762   4.235   9.222 -0.0618 -0.1972  2.0129
   85SAPS  H10Y 8120   5.683   4.397   9.238  0.7021  0.5330 -0.2388
   85SAPS  C311 8121   5.559   4.255   9.136 -0.9164 -0.6453 -1.0393
   85SAPS  H11X 8122   5.590   4.289   9.034 -2.2581  0.4687 -1.1020
   85SAPS  H11Y 8123   5.468   4.315   9.152  0.3060  0.6050  1.9779
   85SAPS  C312 8124   5.508   4.105   9.131 -0.5651  0.6481 -0.4706
   85SAPS  H12X 8125   5.456   4.084   9.227  1.7827 -1.2086  0.4999
   85SAPS  H12Y 8126   5.594   4.036   9.141 -0.5485  0.5705 -1.0857
   85SAPS  C313 8127   5.438   4.068   9.003  0.8978 -0.3177 -0.0996
   85SAPS  H13X 8128   5.514   4.059   8.922  1.4933  2.0528  0.1301
   85SAPS  H13Y 8129   5.373   4.151   8.969 -1.1422 -1.4720  0.7904
   85SAPS  C314 8130   5.352   3.944   9.014  1.0699  0.2149  0.2174
   85SAPS  H14X 8131   5.264   3.952   9.081 -0.6647  3.6544 -2.1689
   85SAPS  H14Y 8132   5.410   3.854   9.042 -2.0353 -1.5975  1.4028
   85SAPS  C315 8133   5.292   3.906   8.871 -0.6168  0.3396 -0.1975
   85SAPS  H15X 8134   5.251   3.803   8.866 -2.1244  0.6932  2.5665
   85SAPS  H15Y 8135   5.373   3.908   8.796 -0.6598  0.5381 -0.2392
   85SAPS  C316 8136   5.173   3.992   8.814  0.4456  0.2186 -0.3344
   85SAPS  H16X 8137   5.197   4.100   8.824 -0.7126  0.5732 -1.1338
   85SAPS  H16Y 8138   5.086   3.979   8.882  1.3399 -0.0127  0.7915
   85SAPS  C317 8139   5.139   3.954   8.668 -0.4101 -0.2761  0.0947
   85SAPS  H17X 8140   5.037   3.995   8.653  0.1914  0.9282 -0.9141
   85SAPS  H17Y 8141   5.132   3.846   8.647 -1.4304  0.2642 -2.7396
   85SAPS  C318 8142   5.234   4.007   8.557  0.8259  0.3242 -0.2302
   85SAPS  H18X 8143   5.189   3.978   8.460 -0.4826 -0.2090  0.5064
   85SAPS  H18Y 8144   5.328   3.946   8.556 -1.1018 -2.8888 -0.5444
   85SAPS  H18Z 8145   5.274   4.110   8.571  1.7661  0.0365 -0.7002
   86SAPS     N 8146   5.745   2.763  11.389 -0.3688  0.3880 -0.2101
   86SAPS   HN1 8147   5.810   2.738  11.466 -0.1128 -0.5436 -0.7191
   86SAPS   HN2 8148   5.723   2.682  11.328 -0.9322 -0.2299  0.7893
   86SAPS   HN3 8149   5.787   2.841  11.335 -1.1872  0.9632 -0.0235
   86SAPS   C12 8150   5.621   2.818  11.441  0.6505  0.3287  0.5925
   86SAPS  H12A 8151   5.545   2.742  11.455 -0.9774  1.5380 -1.1176
   86SAPS   C13 8152   5.631   2.899  11.576 -0.9873  0.6233 -0.0458
   86SAPS  O13A 8153   5.739   2.905  11.636  0.2877  0.5896  0.0263
   86SAPS  O13B 8154   5.524   2.931  11.631 -0.2591 -0.2443  0.0396
   86SAPS   C11 8155   5.555   2.908  11.330  0.3211  0.1101  1.1910
   86SAPS  H11A 8156   5.591   3.013  11.329  1.4973  0.0005 -4.5699
   86SAPS  H11B 8157   5.447   2.913  11.355 -0.5278 -1.5094 -1.6379
   86SAPS     P 8158   5.528   2.711  11.156 -0.1761 -0.0542  0.5538
   86SAPS   O13 8159   5.604   2.604  11.221  0.1006 -0.3840 -0.0691
   86SAPS   O14 8160   5.386   2.695  11.183 -0.2051  0.3691  0.4036
   86SAPS   O12 8161   5.569   2.859  11.198 -0.6619  0.1658 -0.0132
   86SAPS   O11 8162   5.546   2.708  10.999  0.3776 -0.0302  0.0737
   86SAPS    C1 8163   5.634   2.795  10.939  0.2012  0.0957 -0.1272
   86SAPS    HA 8164   5.593   2.899  10.942 -1.4857 -0.5823  1.9140
   86SAPS    HB 8165   5.730   2.791  10.995  0.8550  0.7557 -1.1529
   86SAPS    C2 8166   5.658   2.760  10.792  0.1539  0.4785 -0.2010
   86SAPS    HS 8167   5.723   2.836  10.744 -0.3681  0.0342 -1.6846
   86SAPS   O21 8168   5.526   2.750  10.732  0.1026 -0.5991  0.1362
   86SAPS   C21 8169   5.519   2.756  10.598 -0.9091  0.4595 -0.2529
   86SAPS   O22 8170   5.605   2.784  10.520 -0.1671 -0.2629 -0.6458
   86SAPS   C22 8171   5.378   2.696  10.560 -0.4030  0.4230 -0.3256
   86SAPS   H2R 8172   5.321   2.666  10.650 -1.7053 -0.7980 -1.5139
   86SAPS   H2S 8173   5.325   2.775  10.504  0.1326 -0.0658 -1.5594
   86SAPS    C3 8174   5.730   2.618  10.790  0.3208 -0.2595  0.0509
   86SAPS    HX 8175   5.662   2.547  10.841  2.1333 -2.6183 -0.6114
   86SAPS    HY 8176   5.827   2.635  10.842 -0.1410  0.3378  0.7357
   86SAPS   O31 8177   5.762   2.567  10.660 -0.2268 -0.7929  0.3952
   86SAPS   C31 8178   5.863   2.626  10.598 -0.4349  0.3740 -0.4211
   86SAPS   O32 8179   5.954   2.691  10.649 -0.2592  0.9882  0.0124
   86SAPS   C32 8180   5.859   2.581  10.456 -0.2632  0.0077  0.2332
   86SAPS   H2X 8181   5.933   2.643  10.402  1.1772 -0.6451  1.3815
   86SAPS   H2Y 8182   5.755   2.600  10.424 -0.5622  0.7600  1.5721
   86SAPS   C23 8183   5.386   2.569  10.471 -0.4658 -0.0926  0.7556
   86SAPS   H3R 8184   5.287   2.520  10.474 -0.4332 -0.1003  2.1114
   86SAPS   H3S 8185   5.460   2.499  10.514  1.1752  0.1327 -1.5174
   86SAPS   C24 8186   5.428   2.585  10.324  0.1438 -0.1019  0.0848
   86SAPS   H4R 8187   5.530   2.629  10.325 -0.2824  0.9037  0.8014
   86SAPS   H4S 8188   5.358   2.651  10.269  0.4948 -0.5159 -0.8776
   86SAPS   C25 8189   5.420   2.448  10.255  0.2885 -0.1482 -0.5083
   86SAPS   H5R 8190   5.412   2.358  10.318 -3.1032 -0.2521 -0.9015
   86SAPS   C26 8191   5.413   2.426  10.125  0.3122  0.8329 -0.2196
   86SAPS   H6R 8192   5.411   2.319  10.099  1.6018  0.6951  0.1617
   86SAPS   C27 8193   5.419   2.531  10.017 -0.1449  0.5249  0.1949
   86SAPS   H7R 8194   5.396   2.630  10.063  1.8428  0.4529  1.4441
   86SAPS   H7S 8195   5.340   2.501   9.944  1.5189 -0.6466 -1.2141
   86SAPS   C28 8196   5.553   2.538   9.948 -0.6316 -1.1083 -0.2408
   86SAPS   H8R 8197   5.627   2.566  10.024 -2.3869 -0.5819  1.3235
   86SAPS   C29 8198   5.594   2.548   9.821  0.1234 -0.0252  0.0567
   86SAPS   H9R 8199   5.698   2.539   9.788 -1.0725 -1.6787 -3.8743
   86SAPS  C210 8200   5.495   2.537   9.708  0.1780 -0.2289  0.1840
   86SAPS  H10R 8201   5.389   2.523   9.740 -0.3874 -0.8414 -1.7833
   86SAPS  H10S 8202   5.527   2.445   9.653  2.0501  0.6552 -0.2777
   86SAPS  C211 8203   5.507   2.648   9.609 -0.2473  0.0733  0.0525
   86SAPS  H11R 8204   5.486   2.750   9.645  2.3428  1.3077 -1.6268
   86SAPS  C212 8205   5.561   2.648   9.483 -0.5236  0.4907  0.1503
   86SAPS  H12R 8206   5.550   2.735   9.417  0.0901 -1.3367 -2.5254
   86SAPS  C213 8207   5.631   2.535   9.416 -0.4979  0.8657  0.1042
   86SAPS  H13R 8208   5.554   2.497   9.346 -1.0713  0.0889  1.1158
   86SAPS  H13S 8209   5.654   2.447   9.480 -0.6131  1.5150  1.0781
   86SAPS  C214 8210   5.757   2.594   9.351  0.2826  0.0314  0.0448
   86SAPS  H14R 8211   5.832   2.639   9.418  0.6725  1.2558 -1.1678
   86SAPS  C215 8212   5.776   2.591   9.222  0.5397 -0.9298 -0.0024
   86SAPS  H15R 8213   5.866   2.641   9.182  2.2742 -0.9449  3.4812
   86SAPS  C216 8214   5.682   2.524   9.122 -1.0559 -0.0778 -0.4506
   86SAPS  H16R 8215   5.601   2.593   9.092 -1.6419  0.6516  2.4343
   86SAPS  H16S 8216   5.635   2.437   9.174  0.5199  0.4435  2.0077
   86SAPS  C217 8217   5.761   2.491   8.999 -0.1900  0.4310 -0.0633
   86SAPS  H17R 8218   5.848   2.423   9.016 -0.6356 -0.7466 -2.1742
   86SAPS  H17S 8219   5.802   2.582   8.951 -0.7745  0.5404 -0.3615
   86SAPS  C218 8220   5.671   2.414   8.893 -0.5845  0.2798  0.0732
   86SAPS  H18R 8221   5.619   2.326   8.936 -2.0274  0.2690 -1.5824
   86SAPS  H18S 8222   5.730   2.378   8.806  1.9029 -2.9760  2.8062
   86SAPS  C219 8223   5.563   2.512   8.845  0.7056  0.7787 -0.7917
   86SAPS  H19R 8224   5.614   2.610   8.858  3.1750 -0.4562 -0.6647
   86SAPS  H19S 8225   5.476   2.514   8.914  0.3066 -3.4898 -0.8834
   86SAPS  C220 8226   5.531   2.508   8.699  0.4764  0.4683 -0.1124
   86SAPS  H20R 8227   5.447   2.578   8.679  0.9559  1.2372  0.4584
   86SAPS  H20S 8228   5.504   2.403   8.677  0.6753  0.1377  1.1121
   86SAPS  H20T 8229   5.620   2.543   8.642  0.3349  2.9812  1.0313
   86SAPS   C33 8230   5.919   2.439  10.457  0.5385  0.6773  0.1227
   86SAPS   H3X 8231   5.824   2.384  10.471  1.0900 -0.4709 -0.4647
   86SAPS   H3Y 8232   5.978   2.397  10.542 -0.2409 -3.0885 -0.9947
   86SAPS   C34 8233   5.982   2.389  10.328  0.3487 -0.1990  0.0635
   86SAPS   H4X 8234   6.015   2.284  10.343  0.5155 -0.2516 -0.6713
   86SAPS   H4Y 8235   6.070   2.455  10.313  0.2063  0.0329  0.2229
   86SAPS   C35 8236   5.892   2.389  10.205 -0.5845 -0.5013  0.1615
   86SAPS   H5X 8237   5.855   2.491  10.181  1.0024  0.2633  0.8379
   86SAPS   H5Y 8238   5.801   2.331  10.231 -0.0765 -1.1201  0.5952
   86SAPS   C36 8239   5.971   2.354  10.081  0.0905  0.0233 -0.4482
   86SAPS   H6X 8240   6.023   2.255  10.086 -0.6213 -0.3188  0.5652
   86SAPS   H6Y 8241   6.057   2.421  10.062  1.3069 -1.0595  0.9382
   86SAPS   C37 8242   5.876   2.360   9.955 -0.1666  0.2539 -0.2832
   86SAPS   H7X 8243   5.861   2.469   9.940  2.4621  0.6749 -0.4358
   86SAPS   H7Y 8244   5.776   2.320   9.977 -0.3877  0.2776 -1.1965
   86SAPS   C38 8245   5.924   2.276   9.836 -0.5491  0.0588  0.0136
   86SAPS   H8X 8246   5.892   2.171   9.848  2.1416 -0.8227  0.1817
   86SAPS   H8Y 8247   6.035   2.275   9.823 -0.7331  1.7109 -2.3723
   86SAPS   C39 8248   5.871   2.322   9.701 -0.2401  0.2541  1.1923
   86SAPS   H9X 8249   5.921   2.419   9.682 -0.1963 -0.0449 -0.2993
   86SAPS   H9Y 8250   5.761   2.339   9.710 -0.2310  0.4550  0.9092
   86SAPS  C310 8251   5.911   2.226   9.588 -0.2520  0.0324 -0.5184
   86SAPS  H10X 8252   5.894   2.122   9.621  1.3319  0.1178  0.6802
   86SAPS  H10Y 8253   6.021   2.227   9.571 -0.6697 -0.7336 -4.0714
   86SAPS  C311 8254   5.849   2.250   9.453 -0.4125 -0.3903  0.5841
   86SAPS  H11X 8255   5.904   2.335   9.408  0.8525  0.8431  4.0604
   86SAPS  H11Y 8256   5.741   2.273   9.465 -0.3820  1.3612 -1.7739
   86SAPS  C312 8257   5.869   2.127   9.368  0.0935  0.3547  0.3437
   86SAPS  H12X 8258   5.818   2.039   9.412 -1.1250  1.7843  1.8987
   86SAPS  H12Y 8259   5.978   2.110   9.381  0.2712  1.5292  0.4978
   86SAPS  C313 8260   5.841   2.156   9.217 -0.0434 -0.1773  0.5170
   86SAPS  H13X 8261   5.910   2.234   9.179 -1.2110  1.3786  1.5109
   86SAPS  H13Y 8262   5.737   2.192   9.204  0.6625  1.7343 -0.2613
   86SAPS  C314 8263   5.846   2.027   9.130  0.0320  0.4597 -0.0981
   86SAPS  H14X 8264   5.802   1.939   9.181  0.8085  1.4353  2.4132
   86SAPS  H14Y 8265   5.956   2.013   9.122  0.0637  0.7702 -0.2296
   86SAPS  C315 8266   5.793   2.042   8.992  0.6399 -0.1294  0.6279
   86SAPS  H15X 8267   5.697   2.099   8.988  0.1816 -0.9532 -0.5138
   86SAPS  H15Y 8268   5.749   1.945   8.959 -0.1916  0.9152 -1.5256
   86SAPS  C316 8269   5.899   2.099   8.901  0.2868 -0.1987  0.1595
   86SAPS  H16X 8270   5.991   2.038   8.890 -1.0687 -2.7424  2.0738
   86SAPS  H16Y 8271   5.912   2.202   8.942 -2.4131 -0.2920  1.4374
   86SAPS  C317 8272   5.848   2.117   8.755 -0.0364  0.4132 -0.2351
   86SAPS  H17X 8273   5.747   2.163   8.756 -0.3041  0.1234 -3.1719
   86SAPS  H17Y 8274   5.829   2.018   8.707 -0.2505  1.1198 -1.6713
   86SAPS  C318 8275   5.943   2.192   8.660 -0.0659 -0.1065 -0.0459
   86SAPS  H18X 8276   5.893   2.189   8.561 -0.4634  0.5672  0.1291
   86SAPS  H18Y 8277   6.042   2.140   8.655 -0.5032 -1.1614  1.5538
   86SAPS  H18Z 8278   5.956   2.298   8.689  2.3485 -0.6537  1.1699
   87SAPS     N 8279   4.747   5.868  10.807  0.0292 -0.2569  0.2187
   87SAPS   HN1 8280   4.828   5.927  10.835 -1.8211  1.1740  2.9913
   87SAPS   HN2 8281   4.780   5.772  10.781 -0.0411 -0.5209  1.0658
   87SAPS   HN3 8282   4.693   5.914  10.731  0.1772 -0.5958 -0.0981
   87SAPS   C12 8283   4.663   5.853  10.928  0.5361  0.6517  0.1851
   87SAPS  H12A 8284   4.639   5.955  10.956 -0.9330  0.0860  1.0941
   87SAPS   C13 8285   4.530   5.783  10.891 -0.4994 -0.9449  0.5276
   87SAPS  O13A 8286   4.513   5.740  10.776  0.6579 -0.2551  0.3121
   87SAPS  O13B 8287   4.433   5.805  10.970  0.3545  0.0150 -0.0231
   87SAPS   C11 8288   4.733   5.786  11.044 -0.7282  0.0142  0.2310
   87SAPS  H11A 8289   4.652   5.781  11.120 -0.4617  2.6418  0.7819
   87SAPS  H11B 8290   4.810   5.859  11.077  2.1648 -2.4985 -0.5101
   87SAPS     P 8291   4.953   5.643  11.024  0.1391 -0.6802  0.2894
   87SAPS   O13 8292   5.000   5.721  11.141 -0.2539  0.1960  0.3442
   87SAPS   O14 8293   4.992   5.504  11.013 -0.0489  0.1322  0.3494
   87SAPS   O12 8294   4.793   5.653  11.019 -0.4112  0.0442  0.1466
   87SAPS   O11 8295   4.993   5.720  10.896 -0.2024 -0.2941  0.3106
   87SAPS    C1 8296   5.123   5.698  10.844 -0.2309  0.6078 -0.4238
   87SAPS    HA 8297   5.189   5.782  10.875 -1.0118  1.3124 -0.6117
   87SAPS    HB 8298   5.167   5.601  10.875 -0.1429  0.6003 -0.5757
   87SAPS    C2 8299   5.128   5.729  10.695 -0.0091  0.1365 -0.4647
   87SAPS    HS 8300   5.066   5.821  10.686  0.5216  0.5972  0.4885
   87SAPS   O21 8301   5.074   5.625  10.624  0.3684 -0.6326  1.0836
   87SAPS   C21 8302   4.943   5.634  10.584 -0.1061  0.1949  0.0792
   87SAPS   O22 8303   4.871   5.718  10.628  0.3779 -0.3103  0.2775
   87SAPS   C22 8304   4.910   5.514  10.488  0.0488 -0.0387  0.3132
   87SAPS   H2R 8305   4.993   5.440  10.488  0.0359 -0.0598 -0.1478
   87SAPS   H2S 8306   4.822   5.464  10.533 -0.2554  1.6930  1.7262
   87SAPS    C3 8307   5.264   5.761  10.635 -0.5578  0.1897  0.8556
   87SAPS    HX 8308   5.314   5.662  10.626  1.6026  1.1048  2.1969
   87SAPS    HY 8309   5.325   5.830  10.696 -0.3857 -0.6882  1.7034
   87SAPS   O31 8310   5.245   5.825  10.509  0.0108  0.9284  0.7008
   87SAPS   C31 8311   5.301   5.782  10.391 -0.1437  0.6625 -0.4372
   87SAPS   O32 8312   5.359   5.672  10.379  0.1692  0.8657  0.2272
   87SAPS   C32 8313   5.263   5.881  10.280  0.0995 -0.5102 -0.4434
   87SAPS   H2X 8314   5.318   5.977  10.293  0.3023 -0.6761 -0.0530
   87SAPS   H2Y 8315   5.156   5.907  10.292  0.5019 -0.0117  4.0657
   87SAPS   C23 8316   4.891   5.572  10.342 -0.1192 -0.4429 -0.3101
   87SAPS   H3R 8317   4.988   5.620  10.319  0.4043 -2.6538 -3.4506
   87SAPS   H3S 8318   4.817   5.653  10.361 -0.5857 -1.1754  1.0900
   87SAPS   C24 8319   4.847   5.472  10.233 -0.0165 -0.3118 -0.4209
   87SAPS   H4R 8320   4.757   5.417  10.266 -0.6356  0.6252 -0.5011
   87SAPS   H4S 8321   4.924   5.392  10.223 -0.2274 -0.3581 -1.8956
   87SAPS   C25 8322   4.825   5.539  10.097 -0.3084 -0.2351  0.1261
   87SAPS   H5R 8323   4.728   5.590  10.092  1.1319  3.0227  2.0875
   87SAPS   C26 8324   4.904   5.540   9.986  0.2428  0.1811 -0.6539
   87SAPS   H6R 8325   4.885   5.610   9.903 -1.3598  0.5445 -0.0312
   87SAPS   C27 8326   5.031   5.463   9.982 -1.1334  0.7457  0.3769
   87SAPS   H7R 8327   5.021   5.353   9.970 -0.7975  0.5203  1.9341
   87SAPS   H7S 8328   5.087   5.462  10.078 -0.9880 -1.0763  0.3045
   87SAPS   C28 8329   5.128   5.530   9.883  0.7482 -0.3352 -0.0943
   87SAPS   H8R 8330   5.188   5.608   9.931 -1.4602  0.8966  0.8153
   87SAPS   C29 8331   5.143   5.489   9.749  0.1621 -0.2490 -0.9112
   87SAPS   H9R 8332   5.215   5.545   9.687 -1.1984  1.0335 -1.3881
   87SAPS  C210 8333   5.064   5.377   9.684  0.3217  0.0329  0.3940
   87SAPS  H10R 8334   5.001   5.316   9.751 -0.9179 -0.0397 -0.7895
   87SAPS  H10S 8335   5.133   5.301   9.641  0.7386  1.5191 -1.7237
   87SAPS  C211 8336   4.974   5.427   9.571 -0.1316 -0.9812 -0.4162
   87SAPS  H11R 8337   4.868   5.436   9.602 -0.4622  2.2446 -2.0934
   87SAPS  C212 8338   5.007   5.458   9.448 -0.9057  0.2461  0.4435
   87SAPS  H12R 8339   4.928   5.494   9.381 -1.5546  1.7637  1.9551
   87SAPS  C213 8340   5.145   5.454   9.380  0.1873 -0.4255 -0.1008
   87SAPS  H13R 8341   5.214   5.414   9.457 -1.4937 -2.8693  0.2801
   87SAPS  H13S 8342   5.178   5.558   9.360  2.2148 -0.5823  2.0001
   87SAPS  C214 8343   5.149   5.371   9.259 -0.1463  0.1766  0.3016
   87SAPS  H14R 8344   5.166   5.264   9.277  0.3684  0.4475  1.6138
   87SAPS  C215 8345   5.140   5.416   9.135  0.0675 -0.3961 -0.3856
   87SAPS  H15R 8346   5.155   5.340   9.056 -2.1739 -0.7539 -0.5307
   87SAPS  C216 8347   5.110   5.555   9.088 -0.1134  0.7427  0.0413
   87SAPS  H16R 8348   5.196   5.614   9.051 -0.1968  2.2562  2.1348
   87SAPS  H16S 8349   5.076   5.616   9.174 -0.2585 -0.8289  1.1401
   87SAPS  C217 8350   4.989   5.547   8.990  0.5011  0.2480 -0.8168
   87SAPS  H17R 8351   5.028   5.519   8.890 -0.4949  0.3880 -1.2511
   87SAPS  H17S 8352   4.966   5.656   8.986  0.0861  0.5027  3.6555
   87SAPS  C218 8353   4.878   5.457   9.026 -0.7114 -0.5264  0.4621
   87SAPS  H18R 8354   4.862   5.472   9.135 -0.5515  2.0770  0.1984
   87SAPS  H18S 8355   4.916   5.355   9.008 -3.0596 -1.2605 -0.8415
   87SAPS  C219 8356   4.754   5.490   8.950  0.5455  0.1476 -0.2267
   87SAPS  H19R 8357   4.759   5.452   8.845 -0.6406 -0.3443 -0.1310
   87SAPS  H19S 8358   4.741   5.600   8.940 -1.0052  0.0324  0.2266
   87SAPS  C220 8359   4.631   5.438   9.020  0.2613 -0.1943  0.1339
   87SAPS  H20R 8360   4.621   5.327   9.021  0.1940 -0.1922 -0.0765
   87SAPS  H20S 8361   4.542   5.472   8.962  0.6105  1.6462  0.6333
   87SAPS  H20T 8362   4.618   5.478   9.122 -2.0379  0.0402 -0.2020
   87SAPS   C33 8363   5.277   5.827  10.141 -0.7539 -0.1096 -0.2080
   87SAPS   H3X 8364   5.206   5.746  10.116 -0.8939 -0.0521 -0.0045
   87SAPS   H3Y 8365   5.382   5.792  10.136 -0.9224 -1.6200  3.3989
   87SAPS   C34 8366   5.275   5.934  10.038 -0.2682 -0.2584 -0.8222
   87SAPS   H4X 8367   5.351   6.011  10.063 -0.2455  0.2658 -2.4240
   87SAPS   H4Y 8368   5.175   5.982  10.041 -0.5838 -0.9340 -0.0039
   87SAPS   C35 8369   5.314   5.882   9.900  0.2231  0.5739 -0.1396
   87SAPS   H5X 8370   5.227   5.823   9.861  0.6303  1.1099 -1.9531
   87SAPS   H5Y 8371   5.397   5.809   9.911 -1.1423 -1.1791 -0.7754
   87SAPS   C36 8372   5.339   5.996   9.795 -0.7342  0.2159  0.5833
   87SAPS   H6X 8373   5.399   6.070   9.853  0.8586 -0.2518 -0.3900
   87SAPS   H6Y 8374   5.243   6.044   9.768 -1.1060  0.7837  2.7052
   87SAPS   C37 8375   5.423   5.958   9.671  0.3055  0.3487 -0.5389
   87SAPS   H7X 8376   5.370   5.876   9.617 -1.5328  0.7790  0.5396
   87SAPS   H7Y 8377   5.526   5.930   9.700 -0.0812 -1.7726 -1.0096
   87SAPS   C38 8378   5.442   6.080   9.580  0.1288  0.3920 -0.8018
   87SAPS   H8X 8379   5.500   6.157   9.635  0.6659 -1.0049  0.6350
   87SAPS   H8Y 8380   5.353   6.140   9.551  0.5631  2.0093  0.9965
   87SAPS   C39 8381   5.517   6.052   9.452  0.0893  0.0542  0.3774
   87SAPS   H9X 8382   5.478   5.951   9.424 -0.2561  0.1548  0.4962
   87SAPS   H9Y 8383   5.625   6.037   9.476  0.3452 -1.5490 -1.4953
   87SAPS  C310 8384   5.498   6.146   9.338 -0.3086  0.4875  0.2071
   87SAPS  H10X 8385   5.557   6.235   9.367  0.0482  0.0491  0.8529
   87SAPS  H10Y 8386   5.390   6.173   9.332 -0.6422 -0.9188 -0.4491
   87SAPS  C311 8387   5.559   6.096   9.203 -0.4247 -0.7524 -0.4729
   87SAPS  H11X 8388   5.537   5.990   9.178  0.9379 -0.7323 -1.9526
   87SAPS  H11Y 8389   5.669   6.111   9.200 -0.7924  2.7969 -1.4841
   87SAPS  C312 8390   5.505   6.174   9.085 -0.1303 -0.4103 -0.7325
   87SAPS  H12X 8391   5.535   6.281   9.094  1.6277 -0.8879 -0.5487
   87SAPS  H12Y 8392   5.395   6.163   9.082 -0.5671  2.8812 -1.2493
   87SAPS  C313 8393   5.563   6.128   8.953 -0.7909 -0.1632 -0.3498
   87SAPS  H13X 8394   5.522   6.026   8.934  0.1684 -1.0321  1.9328
   87SAPS  H13Y 8395   5.673   6.122   8.964 -0.7075  0.4235 -0.7881
   87SAPS  C314 8396   5.527   6.208   8.833  0.9353  0.6002  0.3454
   87SAPS  H14X 8397   5.417   6.223   8.820  1.0683  2.9392  1.3390
   87SAPS  H14Y 8398   5.562   6.143   8.750  2.8871 -1.2501  2.4737
   87SAPS  C315 8399   5.584   6.345   8.823  0.2875 -0.8456  0.0716
   87SAPS  H15X 8400   5.694   6.363   8.821  0.0385  1.6990  2.7588
   87SAPS  H15Y 8401   5.554   6.402   8.913 -2.8475  1.0126 -1.9580
   87SAPS  C316 8402   5.534   6.423   8.696  0.3498  0.6886 -1.0371
   87SAPS  H16X 8403   5.424   6.409   8.696  0.3356  0.8027 -0.5177
   87SAPS  H16Y 8404   5.566   6.387   8.595 -2.2036  3.0393 -2.8342
   87SAPS  C317 8405   5.582   6.572   8.696  0.0830  0.0015  0.3872
   87SAPS  H17X 8406   5.510   6.626   8.631  1.0583 -1.0374 -1.6259
   87SAPS  H17Y 8407   5.680   6.566   8.644 -0.6379  0.4747 -1.0622
   87SAPS  C318 8408   5.596   6.655   8.821 -0.4107  0.7416 -0.1215
   87SAPS  H18X 8409   5.493   6.649   8.863 -0.7473  0.2944 -0.9861
   87SAPS  H18Y 8410   5.624   6.761   8.808 -0.7356  0.7961 -0.3676
   87SAPS  H18Z 8411   5.663   6.602   8.893 -1.0066  0.1875  0.0401
   88SAPS     N 8412   2.548   4.368  10.947  0.8817 -0.3429 -0.2481
   88SAPS   HN1 8413   2.454   4.327  10.928  0.8652  0.1674 -1.3043
   88SAPS   HN2 8414   2.572   4.437  10.873 -1.4416  0.8370 -0.0112
   88SAPS   HN3 8415   2.606   4.282  10.947 -0.6278 -1.3958  0.3765
   88SAPS   C12 8416   2.546   4.456  11.067  0.1012 -0.7340 -0.1117
   88SAPS  H12A 8417   2.477   4.415  11.139 -0.2435  2.2469  1.4000
   88SAPS   C13 8418   2.686   4.476  11.118 -0.2731 -0.2976  0.0099
   88SAPS  O13A 8419   2.786   4.423  11.056  0.0762 -0.5048  0.3512
   88SAPS  O13B 8420   2.707   4.548  11.217 -0.6174 -0.1995 -0.2048
   88SAPS   C11 8421   2.488   4.600  11.030 -0.1302  0.3257 -0.5779
   88SAPS  H11A 8422   2.563   4.661  10.974  0.5171  0.8832  0.8487
   88SAPS  H11B 8423   2.470   4.648  11.128  0.8107  0.9460 -0.6886
   88SAPS     P 8424   2.288   4.702  10.892  0.7518  0.0239  0.1910
   88SAPS   O13 8425   2.204   4.755  11.000 -0.3880  0.1181  0.2793
   88SAPS   O14 8426   2.374   4.798  10.825 -0.0675  0.4617  0.0437
   88SAPS   O12 8427   2.365   4.579  10.956  0.3349 -0.1563  0.3244
   88SAPS   O11 8428   2.188   4.632  10.789 -0.1488 -0.6091 -0.1360
   88SAPS    C1 8429   2.233   4.546  10.687  0.0398  0.1299 -0.2200
   88SAPS    HA 8430   2.322   4.489  10.722 -0.1050  0.1850  0.2475
   88SAPS    HB 8431   2.155   4.468  10.677  0.8385 -0.7220  0.0430
   88SAPS    C2 8432   2.251   4.613  10.553  0.1686 -0.1047  0.0971
   88SAPS    HS 8433   2.320   4.693  10.586  2.6999 -2.9134  2.1985
   88SAPS   O21 8434   2.133   4.661  10.495  0.2482  0.4639  0.4850
   88SAPS   C21 8435   2.148   4.765  10.409  0.4319  0.7922  0.3931
   88SAPS   O22 8436   2.257   4.814  10.381  0.0632 -0.3093  0.1481
   88SAPS   C22 8437   2.008   4.816  10.359 -0.6933  0.5069  0.3203
   88SAPS   H2R 8438   1.940   4.814  10.447 -2.5392  1.8318 -0.9812
   88SAPS   H2S 8439   2.014   4.922  10.325 -0.9756 -0.1146 -1.8309
   88SAPS    C3 8440   2.330   4.508  10.468 -0.7153  0.5104  0.2488
   88SAPS    HX 8441   2.252   4.432  10.448 -1.4435  1.2857  0.0660
   88SAPS    HY 8442   2.407   4.456  10.529 -0.4265  0.8846  0.2112
   88SAPS   O31 8443   2.384   4.553  10.340  0.1366  0.0497 -0.0633
   88SAPS   C31 8444   2.512   4.590  10.344 -0.3706 -0.5793 -0.0681
   88SAPS   O32 8445   2.574   4.591  10.447 -0.1822  0.4304  0.1594
   88SAPS   C32 8446   2.560   4.621  10.199  0.5870  0.3878 -0.3205
   88SAPS   H2X 8447   2.638   4.545  10.180  0.7327  0.0868  1.3672
   88SAPS   H2Y 8448   2.608   4.721  10.205  1.8395 -0.0797 -1.8740
   88SAPS   C23 8449   1.972   4.724  10.246  0.3562 -0.3986 -0.7125
   88SAPS   H3R 8450   1.862   4.730  10.230  0.3269  0.1575 -0.3363
   88SAPS   H3S 8451   1.992   4.616  10.259 -1.6401 -0.7415 -0.1625
   88SAPS   C24 8452   2.041   4.762  10.107  0.4424  0.1578  0.1630
   88SAPS   H4R 8453   2.025   4.683  10.031 -0.4438  1.1818 -0.7526
   88SAPS   H4S 8454   2.149   4.760  10.130  0.3348 -0.6330  0.6559
   88SAPS   C25 8455   2.005   4.893  10.053 -0.4089 -0.0828 -0.2204
   88SAPS   H5R 8456   1.991   4.970  10.130  3.6228  2.3451 -1.6065
   88SAPS   C26 8457   1.977   4.931   9.925  0.4863  0.4576  1.0420
   88SAPS   H6R 8458   1.947   5.035   9.908  1.1545  0.5926  0.6661
   88SAPS   C27 8459   1.984   4.843   9.799 -0.8989  0.9304 -0.9650
   88SAPS   H7R 8460   1.890   4.852   9.740  0.4993  2.3533 -3.1333
   88SAPS   H7S 8461   1.995   4.734   9.821  3.0033  0.1040 -5.4714
   88SAPS   C28 8462   2.092   4.887   9.706  0.5825  0.2627  0.1099
   88SAPS   H8R 8463   2.179   4.940   9.749 -0.8121  1.2375  1.8757
   88SAPS   C29 8464   2.071   4.894   9.577  0.5265  0.0430  0.9792
   88SAPS   H9R 8465   2.150   4.922   9.506 -0.7164 -0.0500 -0.4888
   88SAPS  C210 8466   1.952   4.841   9.493  0.6166  0.1882  0.1566
   88SAPS  H10R 8467   1.890   4.927   9.461 -1.8338 -2.4561 -2.8151
   88SAPS  H10S 8468   1.882   4.770   9.541 -1.0240  0.1196 -2.1854
   88SAPS  C211 8469   2.001   4.779   9.366 -0.9577  0.5625 -0.8083
   88SAPS  H11R 8470   2.024   4.672   9.373 -1.8672  0.3856 -0.3530
   88SAPS  C212 8471   2.030   4.840   9.249  0.9214  0.3149  0.2717
   88SAPS  H12R 8472   2.068   4.765   9.179  0.3195 -2.1005  2.3917
   88SAPS  C213 8473   2.005   4.989   9.217 -0.1191 -0.1793 -0.6413
   88SAPS  H13R 8474   2.063   5.027   9.130 -2.2015 -0.5852 -2.3046
   88SAPS  H13S 8475   2.048   5.034   9.309 -1.4574 -1.0370  0.4594
   88SAPS  C214 8476   1.863   5.012   9.197 -0.0860  0.0998  0.2394
   88SAPS  H14R 8477   1.811   5.030   9.292  1.4085 -3.0848  1.8210
   88SAPS  C215 8478   1.796   5.007   9.080  0.0169  0.3361  0.5317
   88SAPS  H15R 8479   1.687   5.022   9.089 -0.3119 -0.7586 -1.2065
   88SAPS  C216 8480   1.844   4.976   8.940 -0.0685 -0.1642 -0.7037
   88SAPS  H16R 8481   1.861   4.868   8.923 -1.7199 -0.1313 -2.9660
   88SAPS  H16S 8482   1.948   5.014   8.926 -0.1118  1.5679  2.5487
   88SAPS  C217 8483   1.760   5.040   8.827  0.3339 -0.4492 -0.7583
   88SAPS  H17R 8484   1.812   5.055   8.730 -1.0469 -0.9849 -1.6131
   88SAPS  H17S 8485   1.737   5.145   8.857 -0.4998 -0.8743  0.1251
   88SAPS  C218 8486   1.631   4.965   8.794  0.2071 -0.4537 -0.4837
   88SAPS  H18R 8487   1.573   4.967   8.889  0.5349  0.3625 -0.2895
   88SAPS  H18S 8488   1.641   4.863   8.752 -0.4883  0.1688 -2.2748
   88SAPS  C219 8489   1.540   5.039   8.695 -0.1982 -0.1659  0.3135
   88SAPS  H19R 8490   1.600   5.124   8.657 -0.5852 -1.0338 -2.4368
   88SAPS  H19S 8491   1.440   5.067   8.733 -0.5445 -2.5051  1.3595
   88SAPS  C220 8492   1.510   4.953   8.575  0.3743 -0.7137  0.4244
   88SAPS  H20R 8493   1.594   4.915   8.514 -1.8544 -5.1625 -0.2792
   88SAPS  H20S 8494   1.440   5.023   8.524  1.7730  0.3730 -0.0557
   88SAPS  H20T 8495   1.457   4.860   8.604 -0.1907 -0.4296  0.3218
   88SAPS   C33 8496   2.454   4.616  10.089 -0.5309 -0.5737 -0.1498
   88SAPS   H3X 8497   2.387   4.702  10.109  1.8340  1.2794  0.2932
   88SAPS   H3Y 8498   2.399   4.520  10.091  2.0252 -2.1620 -1.3631
   88SAPS   C34 8499   2.508   4.638   9.948 -0.1669  0.3937 -0.0524
   88SAPS   H4X 8500   2.589   4.563   9.936 -1.5255 -1.0277 -0.6483
   88SAPS   H4Y 8501   2.556   4.736   9.928  0.8094 -0.4195 -1.9484
   88SAPS   C35 8502   2.387   4.611   9.854 -0.1111  0.3362  0.0536
   88SAPS   H5X 8503   2.303   4.682   9.869  0.1217  0.3575  1.3638
   88SAPS   H5Y 8504   2.361   4.505   9.877  0.4393  0.2298  0.2123
   88SAPS   C36 8505   2.435   4.609   9.705  0.4414 -0.3423  0.2452
   88SAPS   H6X 8506   2.372   4.551   9.635  0.9506  1.2573 -1.6283
   88SAPS   H6Y 8507   2.534   4.559   9.698 -1.3825 -4.1140 -1.6664
   88SAPS   C37 8508   2.440   4.743   9.631 -0.2253 -0.6645 -0.1330
   88SAPS   H7X 8509   2.526   4.790   9.683 -0.1020  0.4344 -1.2718
   88SAPS   H7Y 8510   2.348   4.802   9.646 -0.6867 -1.3878 -0.0534
   88SAPS   C38 8511   2.453   4.730   9.480  0.2922  0.7052 -0.3100
   88SAPS   H8X 8512   2.366   4.676   9.438  1.7357  0.1214 -2.8048
   88SAPS   H8Y 8513   2.545   4.668   9.467 -1.2850 -1.8079 -0.0826
   88SAPS   C39 8514   2.465   4.851   9.386  0.2731 -0.1740  0.0322
   88SAPS   H9X 8515   2.551   4.917   9.408 -0.0438  1.0198 -2.0230
   88SAPS   H9Y 8516   2.377   4.915   9.409  0.5432 -0.5381  2.3938
   88SAPS  C310 8517   2.468   4.796   9.241 -0.3380  0.1326  0.6947
   88SAPS  H10X 8518   2.389   4.720   9.226 -1.5199  1.5369 -0.4263
   88SAPS  H10Y 8519   2.568   4.748   9.239 -0.7639 -0.8251  1.7440
   88SAPS  C311 8520   2.459   4.899   9.127 -0.0617 -0.3863  0.2448
   88SAPS  H11X 8521   2.538   4.971   9.154  0.0669 -0.3840 -0.1269
   88SAPS  H11Y 8522   2.365   4.956   9.142  0.4627  0.1338  1.6568
   88SAPS  C312 8523   2.470   4.836   8.988 -0.6797  0.4368  0.2108
   88SAPS  H12X 8524   2.540   4.749   8.992  0.5943  1.4041 -0.1879
   88SAPS  H12Y 8525   2.524   4.913   8.928 -0.1480  0.4361  0.6822
   88SAPS  C313 8526   2.338   4.814   8.932  0.3209 -0.1004 -0.7033
   88SAPS  H13X 8527   2.270   4.897   8.962 -2.4045 -2.2478 -0.6622
   88SAPS  H13Y 8528   2.304   4.728   8.992  0.0625  2.7686  3.7196
   88SAPS  C314 8529   2.345   4.794   8.787  0.2932  0.8635 -0.4406
   88SAPS  H14X 8530   2.413   4.709   8.769  0.8572  0.1021  4.0590
   88SAPS  H14Y 8531   2.374   4.892   8.745 -1.9248  3.6698  3.8295
   88SAPS  C315 8532   2.206   4.741   8.748 -0.3737 -0.2434  0.5139
   88SAPS  H15X 8533   2.131   4.813   8.788  0.0543  1.2723 -1.2951
   88SAPS  H15Y 8534   2.200   4.638   8.788 -0.6880 -0.5146 -0.2136
   88SAPS  C316 8535   2.187   4.738   8.594  0.6902 -0.1198  0.4837
   88SAPS  H16X 8536   2.282   4.726   8.537  0.4939  1.6717 -0.2875
   88SAPS  H16Y 8537   2.158   4.843   8.574  1.1581 -0.1494 -0.3789
   88SAPS  C317 8538   2.081   4.645   8.553 -0.1375  1.0959 -0.4337
   88SAPS  H17X 8539   2.000   4.664   8.628 -0.4343  1.9398 -0.9539
   88SAPS  H17Y 8540   2.111   4.539   8.572 -0.6259  0.9269 -0.5722
   88SAPS  C318 8541   2.025   4.668   8.415  1.1812  0.3214 -0.2650
   88SAPS  H18X 8542   1.942   4.602   8.381 -0.1372  1.2813  0.9500
   88SAPS  H18Y 8543   2.103   4.654   8.337 -0.7478  0.3994 -2.3088
   88SAPS  H18Z 8544   1.981   4.769   8.399 -0.3815 -0.6166 -2.3025
   89SAPS     N 8545   1.406   1.502  10.708  0.0256  0.0539 -0.0850
   89SAPS   HN1 8546   1.510   1.513  10.706  0.5077 -3.3502 -0.7427
   89SAPS   HN2 8547   1.387   1.424  10.774 -0.9056 -0.3346 -0.7908
   89SAPS   HN3 8548   1.384   1.489  10.607  3.7728  1.6112 -1.2777
   89SAPS   C12 8549   1.341   1.611  10.773  0.0843 -0.1568 -0.0207
   89SAPS  H12A 8550   1.233   1.599  10.767 -0.3457  3.3372 -1.8902
   89SAPS   C13 8551   1.387   1.620  10.920 -0.0177  0.2835  0.2242
   89SAPS  O13A 8552   1.463   1.530  10.965 -0.8068 -0.3036 -0.2820
   89SAPS  O13B 8553   1.327   1.700  10.999 -0.3279 -0.4493  0.0284
   89SAPS   C11 8554   1.376   1.739  10.697 -0.6443 -0.6720 -0.4261
   89SAPS  H11A 8555   1.380   1.732  10.586 -0.3383 -0.6854 -0.4145
   89SAPS  H11B 8556   1.478   1.768  10.731 -0.5699 -0.5054 -0.7906
   89SAPS     P 8557   1.309   2.003  10.718 -0.5117 -0.1608 -0.3112
   89SAPS   O13 8558   1.248   2.063  10.594  0.8062  0.0375  0.2027
   89SAPS   O14 8559   1.271   2.065  10.850  0.1357  0.1431  0.2366
   89SAPS   O12 8560   1.277   1.840  10.721 -0.1810 -0.2797  0.4709
   89SAPS   O11 8561   1.471   2.017  10.718  0.3041  0.1897 -0.2739
   89SAPS    C1 8562   1.538   2.126  10.658  0.0888 -0.2666 -1.1719
   89SAPS    HA 8563   1.484   2.221  10.678 -0.0548 -0.9871  2.5371
   89SAPS    HB 8564   1.635   2.137  10.712 -1.7496  0.6010  2.2509
   89SAPS    C2 8565   1.563   2.107  10.512 -0.0584 -0.4571 -0.7209
   89SAPS    HS 8566   1.467   2.111  10.457 -0.4483 -1.9727 -0.2155
   89SAPS   O21 8567   1.634   1.986  10.502 -0.4638  0.1683  0.4559
   89SAPS   C21 8568   1.615   1.919  10.389  0.2109 -0.4908 -0.2561
   89SAPS   O22 8569   1.535   1.947  10.301 -0.3464  0.1659  0.2049
   89SAPS   C22 8570   1.702   1.794  10.388  0.5963 -0.4101  0.8391
   89SAPS   H2R 8571   1.806   1.831  10.398  0.2632  0.7374  0.1996
   89SAPS   H2S 8572   1.681   1.721  10.469  0.2108 -1.5695 -0.2694
   89SAPS    C3 8573   1.644   2.230  10.458  0.4733  0.9489  0.0516
   89SAPS    HX 8574   1.751   2.233  10.488  0.4181  1.8527  0.1817
   89SAPS    HY 8575   1.595   2.317  10.506 -0.2372  0.3463  0.4419
   89SAPS   O31 8576   1.637   2.229  10.317 -0.4025  0.2670  0.1211
   89SAPS   C31 8577   1.567   2.327  10.250  0.5454 -0.1743 -0.2052
   89SAPS   O32 8578   1.549   2.439  10.295  0.2110 -0.4817  0.2152
   89SAPS   C32 8579   1.537   2.290  10.109  0.2469  0.0128  0.9541
   89SAPS   H2X 8580   1.430   2.315  10.099  1.0276  4.0386  1.0559
   89SAPS   H2Y 8581   1.561   2.183  10.093  2.4831  0.3971  1.3231
   89SAPS   C23 8582   1.696   1.718  10.256  0.0824 -0.1910  1.1242
   89SAPS   H3R 8583   1.696   1.791  10.172 -0.2178 -0.5768  0.7867
   89SAPS   H3S 8584   1.603   1.656  10.258 -0.5594  0.5928 -1.1057
   89SAPS   C24 8585   1.808   1.617  10.253 -0.4876 -0.1144 -0.6052
   89SAPS   H4R 8586   1.799   1.552  10.343  0.5159 -0.9431 -1.0840
   89SAPS   H4S 8587   1.904   1.673  10.250 -0.3607 -0.1364  1.6639
   89SAPS   C25 8588   1.801   1.525  10.139  0.4787 -0.1754  0.6765
   89SAPS   H5R 8589   1.759   1.427  10.162  1.5349 -0.3517  1.9522
   89SAPS   C26 8590   1.832   1.546  10.008  0.0771  0.8094  0.0417
   89SAPS   H6R 8591   1.800   1.466   9.940 -0.9648  0.3335  1.0458
   89SAPS   C27 8592   1.898   1.662   9.944 -0.0710 -0.3265 -0.5075
   89SAPS   H7R 8593   2.008   1.644   9.939  0.1268 -0.4005  2.2204
   89SAPS   H7S 8594   1.891   1.750  10.011  1.2951 -1.5540  1.3857
   89SAPS   C28 8595   1.835   1.698   9.810  0.2518  0.3188 -0.5166
   89SAPS   H8R 8596   1.762   1.780   9.810  0.5734  0.6824  2.2969
   89SAPS   C29 8597   1.866   1.640   9.690 -0.2064 -0.5375 -0.4253
   89SAPS   H9R 8598   1.806   1.675   9.605  0.7982  1.5931 -0.3322
   89SAPS  C210 8599   1.959   1.533   9.656  0.2969  1.9680  0.0909
   89SAPS  H10R 8600   1.907   1.452   9.600 -0.3825  2.8798 -0.6332
   89SAPS  H10S 8601   2.003   1.491   9.749 -0.9967 -0.6351 -0.3653
   89SAPS  C211 8602   2.075   1.578   9.575 -0.7402  0.3779 -0.4513
   89SAPS  H11R 8603   2.144   1.647   9.626 -0.0640  0.3320 -1.2718
   89SAPS  C212 8604   2.107   1.524   9.450  0.0998  0.7005 -0.4542
   89SAPS  H12R 8605   2.204   1.554   9.407 -0.1327 -0.5675 -1.9555
   89SAPS  C213 8606   2.033   1.415   9.375  0.2720  0.9357 -0.9432
   89SAPS  H13R 8607   1.974   1.339   9.431  0.2138 -0.9391 -3.3848
   89SAPS  H13S 8608   2.111   1.342   9.345 -0.0743 -0.7083  1.7758
   89SAPS  C214 8609   1.944   1.464   9.261 -0.4179  0.1601  0.2921
   89SAPS  H14R 8610   1.855   1.523   9.287 -0.0446  1.7559 -1.8576
   89SAPS  C215 8611   1.961   1.445   9.126 -0.1182 -0.7458  0.4325
   89SAPS  H15R 8612   1.902   1.498   9.050  1.5795  0.2610 -0.2425
   89SAPS  C216 8613   2.079   1.377   9.061  0.4746  0.6463 -0.3215
   89SAPS  H16R 8614   2.159   1.367   9.137 -0.3021  0.1578  0.4441
   89SAPS  H16S 8615   2.115   1.439   8.976 -1.3741  2.3106  0.0340
   89SAPS  C217 8616   2.044   1.235   9.006 -0.6458  0.4738 -0.0824
   89SAPS  H17R 8617   1.997   1.175   9.087 -1.0336  0.6705 -0.1633
   89SAPS  H17S 8618   2.131   1.174   8.975 -2.0340 -0.9462 -1.3445
   89SAPS  C218 8619   1.950   1.247   8.881  0.4852 -0.2968 -1.0506
   89SAPS  H18R 8620   1.985   1.318   8.803 -2.5399  0.8019 -1.5107
   89SAPS  H18S 8621   1.855   1.287   8.922  1.1316 -0.5271  0.7769
   89SAPS  C219 8622   1.943   1.111   8.802 -0.1470  0.7905  0.1480
   89SAPS  H19R 8623   2.030   1.103   8.734 -1.6359  1.7493 -1.9508
   89SAPS  H19S 8624   1.854   1.103   8.737  0.4294  0.0134 -0.5646
   89SAPS  C220 8625   1.944   0.984   8.888 -1.0763  0.0977 -0.7806
   89SAPS  H20R 8626   1.942   0.888   8.832  0.0470 -0.5341  0.2193
   89SAPS  H20S 8627   1.862   0.983   8.963  0.7625  0.7445  1.3598
   89SAPS  H20T 8628   2.035   0.974   8.950 -1.5590 -1.4070 -0.2723
   89SAPS   C33 8629   1.607   2.384  10.003  0.2198  0.2457  0.2768
   89SAPS   H3X 8630   1.715   2.387  10.027  0.7095  0.8130 -1.8150
   89SAPS   H3Y 8631   1.574   2.490  10.009  1.5432  0.6828  0.1917
   89SAPS   C34 8632   1.590   2.329   9.857  0.5631  0.0836  0.4949
   89SAPS   H4X 8633   1.486   2.293   9.839  0.8091 -0.4280  0.0779
   89SAPS   H4Y 8634   1.660   2.243   9.855 -1.1592 -1.3692  0.0520
   89SAPS   C35 8635   1.642   2.432   9.751 -1.1573  0.5865 -0.3566
   89SAPS   H5X 8636   1.743   2.466   9.785 -0.7596  0.8225 -1.7283
   89SAPS   H5Y 8637   1.580   2.524   9.762 -4.2809 -1.4384  0.1914
   89SAPS   C36 8638   1.649   2.366   9.612  0.2900  0.1774 -0.6175
   89SAPS   H6X 8639   1.545   2.327   9.604  0.4407 -0.9670  2.1407
   89SAPS   H6Y 8640   1.708   2.273   9.621 -1.1224 -0.5733  1.4941
   89SAPS   C37 8641   1.717   2.452   9.511  0.5421  0.7018 -0.1131
   89SAPS   H7X 8642   1.826   2.448   9.530  0.0718 -1.7108  3.0026
   89SAPS   H7Y 8643   1.691   2.559   9.524  2.4733  1.0436  1.4643
   89SAPS   C38 8644   1.688   2.418   9.363  0.6244 -0.6006 -1.1964
   89SAPS   H8X 8645   1.591   2.461   9.334  0.4850 -0.1099 -0.0695
   89SAPS   H8Y 8646   1.694   2.311   9.334 -1.5678 -0.3687 -2.7316
   89SAPS   C39 8647   1.795   2.488   9.271 -0.2983  0.3439  0.3611
   89SAPS   H9X 8648   1.896   2.468   9.313 -0.3601  1.9185  1.3380
   89SAPS   H9Y 8649   1.784   2.598   9.267  2.0966  0.6213 -2.7880
   89SAPS  C310 8650   1.803   2.434   9.127 -0.7417  0.1191 -0.5954
   89SAPS  H10X 8651   1.841   2.330   9.128 -0.6047  0.1699 -0.2963
   89SAPS  H10Y 8652   1.876   2.493   9.068 -0.4453 -0.2761 -0.6315
   89SAPS  C311 8653   1.666   2.424   9.067 -0.1853  0.2133  0.3248
   89SAPS  H11X 8654   1.626   2.527   9.083 -2.3343 -0.3630 -0.9398
   89SAPS  H11Y 8655   1.613   2.343   9.122 -0.0452 -0.0199  0.1163
   89SAPS  C312 8656   1.678   2.394   8.912 -0.3501 -0.1469 -0.2143
   89SAPS  H12X 8657   1.748   2.308   8.905 -0.7188 -0.5823  1.0675
   89SAPS  H12Y 8658   1.722   2.478   8.854 -2.5302 -0.4501 -2.4398
   89SAPS  C313 8659   1.549   2.347   8.841 -0.0931 -0.2405 -0.5163
   89SAPS  H13X 8660   1.488   2.271   8.894 -0.8062 -0.6137 -1.8297
   89SAPS  H13Y 8661   1.566   2.299   8.742 -1.1998 -2.2622  0.2090
   89SAPS  C314 8662   1.464   2.473   8.819  0.1971  0.1537 -0.0048
   89SAPS  H14X 8663   1.536   2.549   8.783  1.8391  0.4319  3.4585
   89SAPS  H14Y 8664   1.413   2.522   8.905 -0.3859  0.1799 -0.3619
   89SAPS  C315 8665   1.357   2.450   8.707  0.6550  0.1681 -0.4228
   89SAPS  H15X 8666   1.299   2.360   8.736  1.1988 -0.4867 -1.2949
   89SAPS  H15Y 8667   1.396   2.420   8.607 -0.5229 -0.2127 -0.7892
   89SAPS  C316 8668   1.266   2.566   8.675 -0.1071  0.2053  0.3444
   89SAPS  H16X 8669   1.317   2.664   8.662 -0.7910  0.5551  0.2126
   89SAPS  H16Y 8670   1.205   2.577   8.767  0.0422  0.4815  0.4107
   89SAPS  C317 8671   1.183   2.534   8.549  0.1341  1.1241 -0.0634
   89SAPS  H17X 8672   1.120   2.449   8.582  1.1249 -0.0008 -0.9456
   89SAPS  H17Y 8673   1.239   2.500   8.459 -0.5115 -2.4047  0.7239
   89SAPS  C318 8674   1.101   2.650   8.493  0.1936  0.4095 -0.3859
   89SAPS  H18X 8675   1.105   2.670   8.384 -0.6596 -1.3876 -0.7905
   89SAPS  H18Y 8676   1.123   2.750   8.535 -1.4886  0.0107  1.6421
   89SAPS  H18Z 8677   0.992   2.643   8.514  0.4076  2.7887  2.0680
   90SAPS     N 8678   1.414   1.319  11.136  0.4548 -0.0716  0.9331
   90SAPS   HN1 8679   1.352   1.255  11.083  1.2736 -0.6904  0.6984
   90SAPS   HN2 8680   1.360   1.359  11.215 -2.7180 -0.1411 -1.0380
   90SAPS   HN3 8681   1.430   1.395  11.067 -1.4770 -0.1736  0.3158
   90SAPS   C12 8682   1.537   1.227  11.147  0.7206  0.2327 -0.6674
   90SAPS  H12A 8683   1.614   1.275  11.204  3.0075 -3.1644 -0.6261
   90SAPS   C13 8684   1.498   1.102  11.233 -0.2035  0.2914  0.0782
   90SAPS  O13A 8685   1.379   1.090  11.264 -0.2016 -0.2495  0.4751
   90SAPS  O13B 8686   1.592   1.027  11.257 -0.0905  0.7681  0.2566
   90SAPS   C11 8687   1.588   1.190  11.002 -0.2328  0.5292 -0.2250
   90SAPS  H11A 8688   1.687   1.139  10.995 -0.4039  0.3561 -1.6725
   90SAPS  H11B 8689   1.599   1.287  10.950  0.7473  0.4918 -0.1015
   90SAPS     P 8690   1.454   1.117  10.791  0.0159  0.4564 -0.1247
   90SAPS   O13 8691   1.370   1.001  10.748 -0.3030 -0.1014  0.2019
   90SAPS   O14 8692   1.401   1.248  10.773  0.2647 -0.1880 -0.0188
   90SAPS   O12 8693   1.489   1.103  10.942 -0.4725  0.5721  0.2103
   90SAPS   O11 8694   1.596   1.108  10.731 -0.5318 -0.2944  0.6111
   90SAPS    C1 8695   1.650   1.211  10.643  0.3805  0.5180 -0.4619
   90SAPS    HA 8696   1.649   1.313  10.687 -0.1294 -0.0901  1.0304
   90SAPS    HB 8697   1.758   1.190  10.630  0.6316  2.6785 -2.2924
   90SAPS    C2 8698   1.592   1.211  10.504 -0.4061  0.5852  0.3153
   90SAPS    HS 8699   1.483   1.230  10.513 -0.8639 -0.6915 -1.8160
   90SAPS   O21 8700   1.625   1.087  10.436  0.7554  0.1301 -0.4067
   90SAPS   C21 8701   1.529   1.038  10.361 -0.2730  0.8811 -0.6675
   90SAPS   O22 8702   1.406   1.058  10.381 -0.0121 -0.4725  0.0937
   90SAPS   C22 8703   1.580   0.956  10.252  0.1339 -0.3589  0.3882
   90SAPS   H2R 8704   1.570   0.851  10.289 -0.7456 -0.0654  1.0255
   90SAPS   H2S 8705   1.502   0.958  10.174  0.7873 -1.1094 -0.3015
   90SAPS    C3 8706   1.644   1.329  10.415  1.1973  0.2737 -0.0807
   90SAPS    HX 8707   1.751   1.311  10.390  2.0569  3.3424  0.9874
   90SAPS    HY 8708   1.645   1.413  10.487 -0.6462 -0.6798  1.1196
   90SAPS   O31 8709   1.569   1.356  10.289  0.4554 -0.4460  0.6277
   90SAPS   C31 8710   1.452   1.413  10.309 -0.1204 -0.0267 -0.4104
   90SAPS   O32 8711   1.417   1.455  10.418  0.1594  0.3738 -0.5216
   90SAPS   C32 8712   1.367   1.394  10.181 -0.3898 -0.0747  0.0457
   90SAPS   H2X 8713   1.286   1.470  10.184 -1.1147 -0.4163 -4.1580
   90SAPS   H2Y 8714   1.316   1.296  10.185  1.0167 -0.8006  1.2383
   90SAPS   C23 8715   1.715   0.986  10.184 -0.7993 -0.2443  0.6001
   90SAPS   H3R 8716   1.745   0.894  10.128  0.4363 -0.3487  1.3927
   90SAPS   H3S 8717   1.797   1.005  10.257 -0.8628  0.0307  0.6003
   90SAPS   C24 8718   1.710   1.117  10.100  0.4453  0.0293  0.3599
   90SAPS   H4R 8719   1.669   1.198  10.164  0.7175 -0.6677  1.4511
   90SAPS   H4S 8720   1.634   1.087  10.024 -0.1741 -0.7358  1.2547
   90SAPS   C25 8721   1.843   1.154  10.047  0.0439  0.1268  0.0902
   90SAPS   H5R 8722   1.913   1.191  10.124 -0.0742 -0.9779  0.7431
   90SAPS   C26 8723   1.893   1.145   9.918 -0.0638  0.2010  0.3883
   90SAPS   H6R 8724   1.998   1.178   9.913 -0.7778  2.5555 -0.6669
   90SAPS   C27 8725   1.824   1.095   9.797  0.1627  0.6374 -0.2035
   90SAPS   H7R 8726   1.776   1.178   9.741 -0.4192 -1.2017 -2.6209
   90SAPS   H7S 8727   1.732   1.037   9.819 -1.1112  2.3600 -0.8227
   90SAPS   C28 8728   1.905   1.006   9.703 -0.5440  0.2886 -0.1140
   90SAPS   H8R 8729   1.986   0.947   9.748 -0.1213  0.3627 -0.7797
   90SAPS   C29 8730   1.902   0.996   9.571 -0.7075 -0.0634  0.3534
   90SAPS   H9R 8731   1.968   0.930   9.514  1.3226  1.2378  1.0959
   90SAPS  C210 8732   1.808   1.075   9.478 -0.4602 -0.3539 -0.0137
   90SAPS  H10R 8733   1.822   1.184   9.492 -0.6565 -0.3299 -0.0083
   90SAPS  H10S 8734   1.703   1.054   9.506 -0.6161 -0.8201 -0.9217
   90SAPS  C211 8735   1.827   1.049   9.324  0.3131  0.5307 -0.8177
   90SAPS  H11R 8736   1.913   0.998   9.278  0.5755 -0.5604  0.8234
   90SAPS  C212 8737   1.739   1.101   9.237 -0.1052  0.3179  0.1550
   90SAPS  H12R 8738   1.760   1.081   9.131  1.9268 -0.0009  0.5806
   90SAPS  C213 8739   1.609   1.172   9.269  0.0919  0.2686  0.8163
   90SAPS  H13R 8740   1.615   1.278   9.233  1.8822 -0.6184 -1.8539
   90SAPS  H13S 8741   1.587   1.174   9.377  0.2735 -0.8128  0.8841
   90SAPS  C214 8742   1.495   1.101   9.198  0.4617  0.3619 -0.1962
   90SAPS  H14R 8743   1.489   1.093   9.088 -3.2896  1.1372 -0.1649
   90SAPS  C215 8744   1.379   1.055   9.257  0.0308  0.5371  0.4843
   90SAPS  H15R 8745   1.299   1.014   9.194  0.9552 -1.3701  0.4710
   90SAPS  C216 8746   1.347   1.060   9.402  0.1146 -0.2783  0.3822
   90SAPS  H16R 8747   1.242   1.094   9.414 -0.4843 -1.3760 -1.4276
   90SAPS  H16S 8748   1.414   1.123   9.465  1.2066 -0.4093 -0.6169
   90SAPS  C217 8749   1.365   0.912   9.452 -0.5585 -0.4314  0.2981
   90SAPS  H17R 8750   1.469   0.885   9.425 -0.0163  3.2381 -2.0351
   90SAPS  H17S 8751   1.295   0.844   9.399 -0.1820 -0.1998 -0.5098
   90SAPS  C218 8752   1.331   0.899   9.600  0.3343  0.1171 -0.3314
   90SAPS  H18R 8753   1.332   0.788   9.613 -0.1212  0.4268  3.2879
   90SAPS  H18S 8754   1.232   0.939   9.631  0.7611 -1.1549  3.2044
   90SAPS  C219 8755   1.448   0.963   9.680 -0.1063  0.2156  0.0269
   90SAPS  H19R 8756   1.444   1.073   9.664 -0.3233  0.0421 -1.2875
   90SAPS  H19S 8757   1.537   0.933   9.620 -0.4752 -0.3424 -0.2510
   90SAPS  C220 8758   1.461   0.918   9.822  0.0364  0.7856  0.0937
   90SAPS  H20R 8759   1.440   0.809   9.823  1.0413  0.5890  0.8747
   90SAPS  H20S 8760   1.398   0.971   9.897  0.8827 -0.5170  1.7903
   90SAPS  H20T 8761   1.562   0.911   9.867  0.2740 -1.8240 -0.6992
   90SAPS   C33 8762   1.446   1.408  10.049  0.1659  0.1727  0.4103
   90SAPS   H3X 8763   1.538   1.347  10.043  0.3122  0.5218 -1.3649
   90SAPS   H3Y 8764   1.464   1.508  10.004 -2.6067  0.1369 -1.0569
   90SAPS   C34 8765   1.354   1.355   9.934 -0.0869 -0.5038 -0.1161
   90SAPS   H4X 8766   1.282   1.439   9.923  0.3597 -0.3536 -2.6238
   90SAPS   H4Y 8767   1.299   1.266   9.970  0.3033  0.3049  2.7069
   90SAPS   C35 8768   1.436   1.333   9.807 -0.4409 -0.4934 -0.3288
   90SAPS   H5X 8769   1.456   1.224   9.797  1.5323  0.0484 -3.1608
   90SAPS   H5Y 8770   1.534   1.384   9.818 -0.0597 -0.2226 -3.9035
   90SAPS   C36 8771   1.382   1.403   9.674 -0.3990 -0.6533 -0.0533
   90SAPS   H6X 8772   1.315   1.489   9.694  1.1242  0.2593  1.4142
   90SAPS   H6Y 8773   1.323   1.336   9.608 -0.6493  0.1234 -0.6284
   90SAPS   C37 8774   1.503   1.461   9.590  0.0259  0.2378 -0.1128
   90SAPS   H7X 8775   1.555   1.364   9.576 -1.0603 -0.4691  0.6584
   90SAPS   H7Y 8776   1.558   1.539   9.648 -2.0349  2.4764 -1.0024
   90SAPS   C38 8777   1.450   1.517   9.450 -0.5460  0.2584 -0.5191
   90SAPS   H8X 8778   1.389   1.609   9.455  0.1897  0.7837 -0.9990
   90SAPS   H8Y 8779   1.377   1.449   9.400 -1.4909  1.4265 -0.7539
   90SAPS   C39 8780   1.573   1.536   9.352 -0.2760 -0.0948 -0.6763
   90SAPS   H9X 8781   1.629   1.441   9.356 -0.7477 -0.3462  1.3615
   90SAPS   H9Y 8782   1.639   1.617   9.391 -0.4997  1.2108 -2.8066
   90SAPS  C310 8783   1.527   1.563   9.206 -0.3194  0.3661  0.1655
   90SAPS  H10X 8784   1.465   1.655   9.203 -1.0056 -0.1117 -1.9587
   90SAPS  H10Y 8785   1.460   1.481   9.173 -1.2973  0.8870  0.8245
   90SAPS  C311 8786   1.634   1.573   9.097 -0.1218 -0.5541 -0.5377
   90SAPS  H11X 8787   1.691   1.478   9.086  1.2446  0.1721  0.0069
   90SAPS  H11Y 8788   1.698   1.661   9.119 -3.0774  1.7226 -0.3529
   90SAPS  C312 8789   1.571   1.592   8.960  0.5461  0.1873  0.3116
   90SAPS  H12X 8790   1.512   1.685   8.961 -0.1693 -0.2428  2.9096
   90SAPS  H12Y 8791   1.490   1.518   8.946 -0.5208  1.3361  0.3092
   90SAPS  C313 8792   1.664   1.601   8.841  0.0169 -0.0967 -0.2224
   90SAPS  H13X 8793   1.703   1.497   8.833 -3.4983 -1.5055 -0.6971
   90SAPS  H13Y 8794   1.746   1.672   8.868 -0.3926 -0.1353  1.2450
   90SAPS  C314 8795   1.605   1.638   8.706 -0.2924  1.0278 -0.3393
   90SAPS  H14X 8796   1.581   1.746   8.704 -2.4617  0.5991 -0.6449
   90SAPS  H14Y 8797   1.510   1.586   8.679  0.2925 -0.8463  0.9590
   90SAPS  C315 8798   1.708   1.609   8.590 -0.5723  0.0630 -0.1785
   90SAPS  H15X 8799   1.701   1.499   8.579  2.1295 -0.0865 -1.0770
   90SAPS  H15Y 8800   1.811   1.633   8.623 -0.1470 -2.4751  0.5201
   90SAPS  C316 8801   1.669   1.681   8.462  0.1903  0.0368 -0.4675
   90SAPS  H16X 8802   1.713   1.784   8.465 -0.8385  0.4704  0.0241
   90SAPS  H16Y 8803   1.560   1.685   8.442 -0.3631 -3.7134  1.1211
   90SAPS  C317 8804   1.734   1.620   8.338  0.1345 -0.4164  0.2188
   90SAPS  H17X 8805   1.834   1.575   8.354  0.0249 -0.5873  0.4329
   90SAPS  H17Y 8806   1.737   1.708   8.270  0.1289 -0.9607 -0.4987
   90SAPS  C318 8807   1.649   1.515   8.254  1.1162  0.0185  0.3142
   90SAPS  H18X 8808   1.656   1.410   8.289  3.2345  0.4002  1.2278
   90SAPS  H18Y 8809   1.693   1.506   8.153 -0.3305 -0.8188 -0.2664
   90SAPS  H18Z 8810   1.544   1.550   8.250  0.6096 -1.5624 -1.1865
   91SAPS     N 8811   4.997   4.760   6.053 -0.7541 -0.3566  0.0191
   91SAPS   HN1 8812   5.083   4.772   6.111  2.3614  1.9105 -4.5064
   91SAPS   HN2 8813   4.979   4.849   6.002  2.9547  0.6110  0.0497
   91SAPS   HN3 8814   4.915   4.736   6.113 -0.6616 -0.6683  0.0215
   91SAPS   C12 8815   5.021   4.649   5.960  0.5061 -0.2005 -0.7128
   91SAPS  H12A 8816   4.917   4.634   5.932  0.8671 -0.5337 -1.9328
   91SAPS   C13 8817   5.109   4.666   5.831  0.5170  0.1877 -0.3613
   91SAPS  O13A 8818   5.162   4.781   5.824 -0.4026 -0.4297 -0.2378
   91SAPS  O13B 8819   5.145   4.569   5.764 -0.1147  0.2067 -0.0718
   91SAPS   C11 8820   5.078   4.532   6.049 -0.2907 -0.0263  0.4822
   91SAPS  H11A 8821   5.181   4.552   6.084  0.1209 -1.5883  0.2378
   91SAPS  H11B 8822   5.088   4.443   5.983 -0.1736  0.9785 -0.8964
   91SAPS     P 8823   4.976   4.368   6.231  0.3371  0.4889  0.0091
   91SAPS   O13 8824   4.860   4.294   6.170  0.3461 -0.4030 -0.3086
   91SAPS   O14 8825   5.107   4.297   6.221 -1.3130 -0.4428 -0.1631
   91SAPS   O12 8826   4.999   4.506   6.160  0.2289 -1.1332 -0.0483
   91SAPS   O11 8827   4.952   4.394   6.391 -0.0971 -0.5303 -0.0209
   91SAPS    C1 8828   4.938   4.531   6.429  0.0461 -0.8389  0.3524
   91SAPS    HA 8829   4.874   4.601   6.371  2.5472  1.6615  0.3624
   91SAPS    HB 8830   4.882   4.537   6.525 -0.5319  3.4384 -0.0622
   91SAPS    C2 8831   5.077   4.592   6.467 -0.1696 -0.4741  0.4877
   91SAPS    HS 8832   5.133   4.591   6.371  0.5292  0.3753  0.8659
   91SAPS   O21 8833   5.141   4.508   6.565  0.4046  0.1919 -0.4546
   91SAPS   C21 8834   5.266   4.498   6.556  0.3214  0.7483  0.4783
   91SAPS   O22 8835   5.333   4.523   6.458  0.0572  0.0797  0.3876
   91SAPS   C22 8836   5.314   4.448   6.684 -0.1393  0.1569 -0.5769
   91SAPS   H2R 8837   5.276   4.345   6.695  2.2546 -0.7626 -0.1655
   91SAPS   H2S 8838   5.424   4.428   6.678  0.1537  0.6383  2.0691
   91SAPS    C3 8839   5.058   4.742   6.523  0.5001  0.4912 -0.0009
   91SAPS    HX 8840   5.027   4.786   6.425  3.0578  0.2240 -1.0121
   91SAPS    HY 8841   5.152   4.790   6.558 -1.7053  3.9767  1.7356
   91SAPS   O31 8842   4.961   4.740   6.635 -0.2007 -0.1007 -0.1540
   91SAPS   C31 8843   4.853   4.809   6.612 -0.0317 -0.2685  0.5522
   91SAPS   O32 8844   4.836   4.882   6.513  0.0720 -0.3011 -0.0213
   91SAPS   C32 8845   4.750   4.782   6.728  0.1923 -0.4288 -0.0222
   91SAPS   H2X 8846   4.800   4.811   6.823 -0.0383  1.3416 -0.4025
   91SAPS   H2Y 8847   4.732   4.672   6.730 -0.8442 -0.2972 -1.0456
   91SAPS   C23 8848   5.281   4.528   6.816 -1.1400 -0.3409  0.1851
   91SAPS   H3R 8849   5.245   4.451   6.887  1.2298 -0.8157  0.9791
   91SAPS   H3S 8850   5.197   4.595   6.788 -1.4787  0.0422  1.9692
   91SAPS   C24 8851   5.404   4.590   6.883  0.3544 -0.0521 -0.0461
   91SAPS   H4R 8852   5.501   4.537   6.871 -0.4004 -1.1566 -1.5837
   91SAPS   H4S 8853   5.378   4.588   6.991 -2.7755 -1.6124 -0.7074
   91SAPS   C25 8854   5.422   4.724   6.814  0.2939 -0.2675  0.1001
   91SAPS   H5R 8855   5.438   4.724   6.706 -0.0078  1.1566  0.0343
   91SAPS   C26 8856   5.433   4.839   6.878 -0.2697  0.0990 -0.3443
   91SAPS   H6R 8857   5.449   4.920   6.806  0.3169 -0.9652 -1.4615
   91SAPS   C27 8858   5.420   4.853   7.027 -0.2045  0.3744 -0.0017
   91SAPS   H7R 8859   5.342   4.788   7.071 -0.1634 -0.5533 -1.2505
   91SAPS   H7S 8860   5.373   4.947   7.062 -0.9401 -0.8858  2.6888
   91SAPS   C28 8861   5.545   4.841   7.102  0.5024  0.3615  0.6640
   91SAPS   H8R 8862   5.628   4.791   7.049 -2.2951 -1.6189 -2.2269
   91SAPS   C29 8863   5.550   4.842   7.242  0.0323 -0.8242 -0.6307
   91SAPS   H9R 8864   5.648   4.829   7.290 -0.2655  1.7109  0.7814
   91SAPS  C210 8865   5.438   4.886   7.332  0.6119 -0.1376 -0.3957
   91SAPS  H10R 8866   5.375   4.797   7.356 -2.4348  2.0357  0.1479
   91SAPS  H10S 8867   5.363   4.945   7.275  1.6129  2.9444  1.2689
   91SAPS  C211 8868   5.477   4.969   7.451  0.3980 -0.2607  0.9550
   91SAPS  H11R 8869   5.497   5.076   7.431 -2.1748  0.0122 -0.7321
   91SAPS  C212 8870   5.497   4.930   7.579  0.2637  0.1003  0.2135
   91SAPS  H12R 8871   5.518   5.005   7.657  0.9183  0.1485 -0.0057
   91SAPS  C213 8872   5.472   4.785   7.631 -0.4646  0.7378 -0.0622
   91SAPS  H13R 8873   5.402   4.732   7.563  0.6161 -0.4857 -0.2547
   91SAPS  H13S 8874   5.413   4.782   7.725 -0.2443 -0.8008  0.0573
   91SAPS  C214 8875   5.602   4.708   7.658 -0.3914  0.1806  0.6296
   91SAPS  H14R 8876   5.625   4.628   7.586 -0.9511  1.1868 -0.7074
   91SAPS  C215 8877   5.675   4.730   7.770 -0.6497 -0.5847 -0.0130
   91SAPS  H15R 8878   5.770   4.676   7.785  0.1179  0.7353  0.0218
   91SAPS  C216 8879   5.646   4.839   7.870  0.6661 -0.1486 -0.1580
   91SAPS  H16R 8880   5.583   4.920   7.826 -0.7263 -1.4206 -0.5691
   91SAPS  H16S 8881   5.743   4.889   7.890 -0.2271  0.8355  2.2203
   91SAPS  C217 8882   5.592   4.807   8.007 -0.5417 -0.7533  0.3660
   91SAPS  H17R 8883   5.654   4.724   8.048 -1.0455 -1.7695 -0.8896
   91SAPS  H17S 8884   5.489   4.766   8.001 -1.3577  1.1336  0.8632
   91SAPS  C218 8885   5.606   4.929   8.101 -0.2928 -0.2425 -0.5844
   91SAPS  H18R 8886   5.537   5.006   8.061  1.7233  2.0670  0.0998
   91SAPS  H18S 8887   5.715   4.953   8.102  0.6387 -3.8013  0.4017
   91SAPS  C219 8888   5.569   4.903   8.252 -0.3128  0.5121 -0.1821
   91SAPS  H19R 8889   5.628   4.820   8.296 -1.1734  0.9133  1.8786
   91SAPS  H19S 8890   5.459   4.886   8.258 -0.2600  0.0812 -0.4271
   91SAPS  C220 8891   5.588   5.040   8.333 -0.0459 -0.3422  0.0062
   91SAPS  H20R 8892   5.529   5.123   8.290 -0.1732 -0.4291  0.0113
   91SAPS  H20S 8893   5.697   5.059   8.337  0.2493 -1.8401 -0.2542
   91SAPS  H20T 8894   5.566   5.018   8.440 -0.2674  0.4421  0.1262
   91SAPS   C33 8895   4.617   4.866   6.701  0.2512 -0.0396  0.0225
   91SAPS   H3X 8896   4.587   4.848   6.595  2.5683 -2.6349 -0.3154
   91SAPS   H3Y 8897   4.624   4.976   6.715 -0.1407  0.3773 -2.4685
   91SAPS   C34 8898   4.501   4.820   6.788  0.1440  0.1667 -0.0212
   91SAPS   H4X 8899   4.525   4.850   6.892  3.1518 -2.1720  0.1043
   91SAPS   H4Y 8900   4.499   4.709   6.789 -3.0633  0.1289  0.1272
   91SAPS   C35 8901   4.364   4.862   6.746  0.9925  0.0092 -0.4190
   91SAPS   H5X 8902   4.324   4.796   6.666  1.9747 -0.6240 -0.4039
   91SAPS   H5Y 8903   4.360   4.966   6.707  1.1092  0.9700  1.9793
   91SAPS   C36 8904   4.268   4.855   6.868 -0.7197 -0.5636  0.3255
   91SAPS   H6X 8905   4.277   4.747   6.893  3.9604 -0.5183 -0.2432
   91SAPS   H6Y 8906   4.170   4.872   6.819  0.2324  0.3902 -1.3414
   91SAPS   C37 8907   4.308   4.948   6.980  0.2859  0.7618 -0.0411
   91SAPS   H7X 8908   4.321   5.048   6.933 -1.6201  0.8090 -0.5354
   91SAPS   H7Y 8909   4.401   4.921   7.035  0.4171  0.9813 -0.1514
   91SAPS   C38 8910   4.202   4.948   7.091  0.3902 -0.0920  0.8078
   91SAPS   H8X 8911   4.199   4.844   7.131  0.1730 -0.6135 -0.4891
   91SAPS   H8Y 8912   4.100   4.968   7.052  0.4584 -1.4867 -0.1544
   91SAPS   C39 8913   4.225   5.034   7.203 -0.3369 -0.3248 -0.6106
   91SAPS   H9X 8914   4.201   5.140   7.179  1.9323  0.0673 -1.4271
   91SAPS   H9Y 8915   4.332   5.037   7.232 -1.3104  1.6099  3.5776
   91SAPS  C310 8916   4.148   4.998   7.332 -0.4940  0.5676  0.1652
   91SAPS  H10X 8917   4.137   4.889   7.351  3.2063  0.0761  0.1652
   91SAPS  H10Y 8918   4.054   5.055   7.318 -0.9451  0.0359  0.9288
   91SAPS  C311 8919   4.216   5.048   7.458 -0.1509  0.4789  0.3080
   91SAPS  H11X 8920   4.232   5.157   7.447  3.5218  0.3018  2.2438
   91SAPS  H11Y 8921   4.320   5.014   7.477 -0.0417  0.3372 -0.5164
   91SAPS  C312 8922   4.120   5.039   7.579  1.1056  0.1149 -0.0759
   91SAPS  H12X 8923   4.018   5.076   7.551  0.8000  0.4941  1.4524
   91SAPS  H12Y 8924   4.162   5.127   7.633 -1.2633  0.8026  0.8129
   91SAPS  C313 8925   4.134   4.910   7.668  0.0591  0.7420  0.3550
   91SAPS  H13X 8926   4.244   4.899   7.677  0.1507 -0.2348 -1.5060
   91SAPS  H13Y 8927   4.102   4.815   7.622  2.9262 -0.4143  0.5234
   91SAPS  C314 8928   4.070   4.929   7.802 -0.3046 -0.3567  0.3641
   91SAPS  H14X 8929   4.110   5.021   7.848  0.7125 -0.7286  0.2474
   91SAPS  H14Y 8930   4.105   4.853   7.875  0.6571  1.1692  1.5465
   91SAPS  C315 8931   3.916   4.955   7.799 -0.1809 -0.5274 -0.3254
   91SAPS  H15X 8932   3.867   4.879   7.734 -0.7252 -0.2197 -0.2822
   91SAPS  H15Y 8933   3.892   5.055   7.758 -0.9376 -0.6506 -0.2024
   91SAPS  C316 8934   3.866   4.937   7.942 -0.2197 -0.4931 -0.0461
   91SAPS  H16X 8935   3.906   5.013   8.012 -1.6464 -1.0324  1.4261
   91SAPS  H16Y 8936   3.898   4.838   7.982  0.2843  0.0141  0.8242
   91SAPS  C317 8937   3.722   4.952   7.956  0.3239 -0.1816 -0.6514
   91SAPS  H17X 8938   3.685   5.042   7.902 -2.0481 -0.9086 -0.3374
   91SAPS  H17Y 8939   3.707   4.975   8.064  2.5074 -0.1619 -0.2937
   91SAPS  C318 8940   3.641   4.828   7.914 -0.0146 -0.1684  0.5578
   91SAPS  H18X 8941   3.673   4.752   7.989  1.2085  0.0692  0.2967
   91SAPS  H18Y 8942   3.672   4.786   7.816  1.8920 -0.0317  1.0501
   91SAPS  H18Z 8943   3.537   4.861   7.934 -0.5094 -1.0444 -0.4522
   92SAPS     N 8944   1.092   4.271   6.336 -0.4650 -0.2991  0.4371
   92SAPS   HN1 8945   1.187   4.232   6.316 -1.3050 -1.3701 -1.7188
   92SAPS   HN2 8946   1.089   4.373   6.353 -0.9388 -0.3489  0.6741
   92SAPS   HN3 8947   1.061   4.220   6.422  2.4125 -1.2025  1.0650
   92SAPS   C12 8948   1.007   4.227   6.222 -0.3886 -0.5758 -0.1098
   92SAPS  H12A 8949   0.905   4.249   6.251  0.3484  0.1470  2.1861
   92SAPS   C13 8950   1.033   4.317   6.101  0.9688 -0.6900 -0.0098
   92SAPS  O13A 8951   1.108   4.421   6.105 -0.0163  0.2845  0.3342
   92SAPS  O13B 8952   0.963   4.290   6.001  0.0356 -0.7559  0.2964
   92SAPS   C11 8953   1.039   4.076   6.202  0.5148 -0.8698 -0.3143
   92SAPS  H11A 8954   1.145   4.066   6.170 -0.1880 -0.8998 -2.8881
   92SAPS  H11B 8955   0.981   4.036   6.116 -0.7506  3.1927 -1.5973
   92SAPS     P 8956   1.101   3.878   6.363 -0.0773  0.1598 -0.4222
   92SAPS   O13 8957   1.071   3.749   6.300 -0.5976  0.6931  0.3133
   92SAPS   O14 8958   1.236   3.936   6.341 -0.8476  0.1578  0.1279
   92SAPS   O12 8959   1.002   3.990   6.318  0.2866  0.5350  0.3966
   92SAPS   O11 8960   1.082   3.871   6.522  0.5961  0.1826 -0.4809
   92SAPS    C1 8961   0.954   3.835   6.577  0.1481  0.3427  0.3527
   92SAPS    HA 8962   0.890   3.795   6.496 -0.5476  0.7524  0.6980
   92SAPS    HB 8963   0.962   3.757   6.655 -1.5609 -0.6250 -0.3798
   92SAPS    C2 8964   0.868   3.957   6.618 -0.0094  0.0353  0.3752
   92SAPS    HS 8965   0.855   4.019   6.526  4.3702  0.6738 -0.0340
   92SAPS   O21 8966   0.936   4.036   6.722 -0.2428 -0.4152 -0.1734
   92SAPS   C21 8967   1.029   4.113   6.690 -0.2483  0.2799  0.1938
   92SAPS   O22 8968   1.066   4.134   6.574  0.2289 -0.0251 -0.1876
   92SAPS   C22 8969   1.082   4.185   6.811  0.4148  0.3769  0.0244
   92SAPS   H2R 8970   1.176   4.239   6.788  1.3617 -0.6310  1.3559
   92SAPS   H2S 8971   0.997   4.250   6.842 -1.4329 -1.2197 -1.4254
   92SAPS    C3 8972   0.736   3.916   6.675  0.1317 -0.1119 -0.5511
   92SAPS    HX 8973   0.687   3.850   6.601 -0.4470  0.5670 -0.7891
   92SAPS    HY 8974   0.668   4.004   6.682 -0.4886 -0.6977  2.0122
   92SAPS   O31 8975   0.751   3.840   6.799 -0.0416  0.0696  0.0125
   92SAPS   C31 8976   0.727   3.916   6.905 -0.6454 -0.4988 -0.0280
   92SAPS   O32 8977   0.714   4.037   6.909 -0.3692  0.0650  0.5560
   92SAPS   C32 8978   0.706   3.829   7.027 -0.5454 -0.5841 -0.4520
   92SAPS   H2X 8979   0.795   3.763   7.024 -0.0483  0.0082  0.6838
   92SAPS   H2Y 8980   0.618   3.763   7.008 -1.1696  0.8508 -3.0249
   92SAPS   C23 8981   1.122   4.076   6.915  0.3138 -0.0792  0.4874
   92SAPS   H3R 8982   1.175   4.001   6.853  0.1948  1.8962 -2.1903
   92SAPS   H3S 8983   1.028   4.028   6.950 -0.3195  1.3996  0.8939
   92SAPS   C24 8984   1.199   4.135   7.035  0.2294  0.8661  0.1170
   92SAPS   H4R 8985   1.280   4.193   6.985 -0.7067  1.0285 -1.2399
   92SAPS   H4S 8986   1.242   4.050   7.092  1.3928  0.8907 -0.6861
   92SAPS   C25 8987   1.120   4.218   7.129  0.2034 -0.4138 -0.3585
   92SAPS   H5R 8988   1.122   4.319   7.087 -1.7948  0.3744  1.3027
   92SAPS   C26 8989   1.057   4.195   7.244  0.3036  0.4451 -0.7435
   92SAPS   H6R 8990   0.994   4.273   7.287 -1.3755  0.2037 -2.6055
   92SAPS   C27 8991   1.049   4.057   7.317 -0.3143 -0.3210 -0.3356
   92SAPS   H7R 8992   1.081   3.968   7.258 -1.5513 -1.4809  0.6822
   92SAPS   H7S 8993   0.940   4.041   7.328 -0.1131 -0.4953  1.8358
   92SAPS   C28 8994   1.133   4.078   7.445  0.3540 -0.3090 -0.3501
   92SAPS   H8R 8995   1.236   4.111   7.429  1.1104 -0.1743  3.7761
   92SAPS   C29 8996   1.094   4.087   7.578 -0.1911  0.1436  0.1370
   92SAPS   H9R 8997   1.170   4.084   7.658 -0.0148  0.0537 -0.0310
   92SAPS  C210 8998   0.951   4.077   7.631 -0.0277  0.3343  0.0174
   92SAPS  H10R 8999   0.938   3.972   7.665  0.8301  0.1686 -0.1250
   92SAPS  H10S 9000   0.882   4.097   7.547  2.3045 -0.4475 -2.2259
   92SAPS  C211 9001   0.929   4.156   7.759  0.7733  0.5842  0.3644
   92SAPS  H11R 9002   0.885   4.255   7.739 -2.3025 -0.8569 -0.5037
   92SAPS  C212 9003   0.958   4.114   7.885  0.4998  0.1372 -0.3727
   92SAPS  H12R 9004   0.937   4.175   7.974 -0.7381 -1.4274  0.4565
   92SAPS  C213 9005   1.012   3.976   7.921 -0.3525 -0.2043 -0.1431
   92SAPS  H13R 9006   1.119   3.986   7.949 -0.3210 -1.8739  0.4247
   92SAPS  H13S 9007   0.999   3.899   7.842  2.8674 -1.5501  0.4532
   92SAPS  C214 9008   0.944   3.934   8.053  0.4752  0.0583 -0.0546
   92SAPS  H14R 9009   0.837   3.959   8.065  0.1720 -0.7453 -1.0110
   92SAPS  C215 9010   1.005   3.879   8.158  0.0767 -0.8118 -0.3404
   92SAPS  H15R 9011   0.943   3.865   8.247 -0.6935  1.0984 -0.5174
   92SAPS  C216 9012   1.155   3.851   8.179 -0.8647  1.3456  0.3261
   92SAPS  H16R 9013   1.190   3.867   8.283 -0.0363 -1.5815  0.5804
   92SAPS  H16S 9014   1.217   3.928   8.127  0.1517  0.9557  0.9368
   92SAPS  C217 9015   1.201   3.714   8.124  0.6512 -0.2176 -0.7186
   92SAPS  H17R 9016   1.185   3.725   8.014 -0.6170  2.1954 -0.3766
   92SAPS  H17S 9017   1.138   3.633   8.167  1.6314 -0.0072  1.2098
   92SAPS  C218 9018   1.342   3.675   8.146  0.0217 -0.3287 -0.3039
   92SAPS  H18R 9019   1.400   3.717   8.062 -0.0136 -0.8269 -0.5836
   92SAPS  H18S 9020   1.351   3.566   8.126  1.2936 -0.3344  0.1877
   92SAPS  C219 9021   1.406   3.689   8.282 -1.1292  0.1932 -0.0408
   92SAPS  H19R 9022   1.334   3.672   8.364 -1.7904  0.0991 -0.6297
   92SAPS  H19S 9023   1.425   3.798   8.291 -0.0525  0.1591 -1.4637
   92SAPS  C220 9024   1.533   3.604   8.299  0.5093 -0.3677  0.0432
   92SAPS  H20R 9025   1.508   3.498   8.321  2.0542 -0.8426 -0.4020
   92SAPS  H20S 9026   1.597   3.641   8.381  0.5585  1.0183 -0.6062
   92SAPS  H20T 9027   1.601   3.615   8.212  0.3972 -0.0158  0.0006
   92SAPS   C33 9028   0.697   3.905   7.162  0.2218 -0.5208  0.0491
   92SAPS   H3X 9029   0.610   3.974   7.152  0.4040 -0.3353 -0.2683
   92SAPS   H3Y 9030   0.788   3.967   7.174  1.1772 -1.8808 -0.0319
   92SAPS   C34 9031   0.665   3.820   7.284 -0.2252  0.5755 -0.4369
   92SAPS   H4X 9032   0.749   3.748   7.295  1.2881  2.2290 -0.7069
   92SAPS   H4Y 9033   0.569   3.770   7.261  0.4032 -1.0450  0.2671
   92SAPS   C35 9034   0.652   3.904   7.414  0.3906  0.0151 -0.7430
   92SAPS   H5X 9035   0.561   3.966   7.398  0.8199  0.7439 -0.4025
   92SAPS   H5Y 9036   0.751   3.951   7.432 -0.0794  0.2808  1.5441
   92SAPS   C36 9037   0.622   3.817   7.540 -0.0433 -0.2186  0.4047
   92SAPS   H6X 9038   0.710   3.753   7.563 -0.2408 -1.1703 -1.3087
   92SAPS   H6Y 9039   0.527   3.762   7.530 -1.1663  1.6022  0.5770
   92SAPS   C37 9040   0.588   3.920   7.650 -0.4440 -0.4698 -0.1917
   92SAPS   H7X 9041   0.508   3.990   7.617 -0.1857  0.7560  1.6371
   92SAPS   H7Y 9042   0.678   3.982   7.666  0.2205 -1.1387 -1.2057
   92SAPS   C38 9043   0.557   3.860   7.787 -0.4383 -0.1117 -0.3019
   92SAPS   H8X 9044   0.638   3.788   7.809 -0.4701  0.1701  0.7828
   92SAPS   H8Y 9045   0.461   3.803   7.793 -0.4203 -0.0244  1.1959
   92SAPS   C39 9046   0.557   3.978   7.881 -0.2659 -0.0963 -0.4145
   92SAPS   H9X 9047   0.496   4.061   7.840  0.7160  0.3298 -1.0536
   92SAPS   H9Y 9048   0.662   4.009   7.898  0.8416 -3.4133 -0.4615
   92SAPS  C310 9049   0.490   3.925   8.011 -0.7737 -0.5062 -0.3151
   92SAPS  H10X 9050   0.535   3.827   8.039  0.2264  0.1121  0.2742
   92SAPS  H10Y 9051   0.380   3.915   7.994 -0.6933 -1.4689 -0.3188
   92SAPS  C311 9052   0.516   4.020   8.128  0.2916  0.4007  0.1587
   92SAPS  H11X 9053   0.471   4.115   8.092  0.6252  0.7993  0.7680
   92SAPS  H11Y 9054   0.626   4.033   8.133  0.2818  0.8787 -0.7476
   92SAPS  C312 9055   0.479   3.970   8.268  0.3482  0.8549 -0.0490
   92SAPS  H12X 9056   0.503   3.861   8.263  0.5403  0.9315 -1.2313
   92SAPS  H12Y 9057   0.368   3.965   8.281  0.0683  1.9578 -1.6218
   92SAPS  C313 9058   0.539   4.044   8.386  0.6882 -0.6669 -0.5676
   92SAPS  H13X 9059   0.478   4.020   8.475  0.0530  0.1306 -0.7746
   92SAPS  H13Y 9060   0.527   4.154   8.381 -0.9659 -0.8819 -1.8578
   92SAPS  C314 9061   0.685   4.016   8.402 -0.0336  0.0040 -0.0203
   92SAPS  H14X 9062   0.732   4.032   8.303  0.8123  0.0391  0.3720
   92SAPS  H14Y 9063   0.701   3.909   8.429  0.1256  0.2696  0.9780
   92SAPS  C315 9064   0.748   4.095   8.518 -0.0127  0.2998  0.1499
   92SAPS  H15X 9065   0.749   4.035   8.612  1.1203  0.0602  0.0046
   92SAPS  H15Y 9066   0.677   4.179   8.535  0.6685  1.2037 -1.2838
   92SAPS  C316 9067   0.889   4.135   8.486 -0.2732  0.0267 -0.4093
   92SAPS  H16X 9068   0.949   4.044   8.470  0.1632 -0.3826  2.8843
   92SAPS  H16Y 9069   0.928   4.190   8.574  0.9108  0.6720 -1.3084
   92SAPS  C317 9070   0.901   4.220   8.358  0.0483 -0.6437  0.4869
   92SAPS  H17X 9071   0.810   4.283   8.363  1.0643  1.0301 -0.8344
   92SAPS  H17Y 9072   0.903   4.152   8.270  2.1859 -0.9345  0.7061
   92SAPS  C318 9073   1.028   4.303   8.366  0.3183  0.2999  0.4179
   92SAPS  H18X 9074   1.016   4.379   8.447 -1.3866  0.4097  0.0898
   92SAPS  H18Y 9075   1.032   4.370   8.277  1.2871 -0.6082 -0.2402
   92SAPS  H18Z 9076   1.121   4.242   8.371  1.0993  1.5245  1.9284
   93SAPS     N 9077   2.280   2.658   6.064  0.4721 -0.4238 -0.0142
   93SAPS   HN1 9078   2.208   2.653   6.139  0.1954 -0.0963 -0.2555
   93SAPS   HN2 9079   2.235   2.639   5.972  0.0988 -0.2155  0.1212
   93SAPS   HN3 9080   2.360   2.594   6.080  2.3706  1.7691 -0.1957
   93SAPS   C12 9081   2.322   2.800   6.061  0.6379 -0.9089 -0.0555
   93SAPS  H12A 9082   2.413   2.817   6.004  0.1843 -1.2740 -0.9198
   93SAPS   C13 9083   2.205   2.889   6.003  0.0802 -0.7159 -0.2901
   93SAPS  O13A 9084   2.093   2.851   5.969  0.7228  0.5795  0.0888
   93SAPS  O13B 9085   2.235   3.012   5.977 -0.1814 -0.3039  0.0073
   93SAPS   C11 9086   2.339   2.857   6.203 -0.9424  0.2872  0.7457
   93SAPS  H11A 9087   2.366   2.964   6.195 -1.1634  0.1861 -2.9792
   93SAPS  H11B 9088   2.434   2.811   6.236  0.4939  2.2045 -0.5577
   93SAPS     P 9089   2.184   2.893   6.409 -0.3082 -0.1094  0.0529
   93SAPS   O13 9090   2.195   3.041   6.389 -0.1390  0.4091 -0.4784
   93SAPS   O14 9091   2.060   2.831   6.463 -0.3775  0.3095  0.6565
   93SAPS   O12 9092   2.221   2.815   6.277 -0.6559 -0.8304  0.3705
   93SAPS   O11 9093   2.298   2.861   6.512 -0.0403 -0.7182  0.6744
   93SAPS    C1 9094   2.306   2.719   6.548 -0.2315  0.8606  0.1318
   93SAPS    HA 9095   2.207   2.675   6.574 -0.3300  1.1816  0.2977
   93SAPS    HB 9096   2.358   2.662   6.468 -0.5869 -2.3738  2.0104
   93SAPS    C2 9097   2.384   2.704   6.687 -0.6329 -0.8812  0.0186
   93SAPS    HS 9098   2.382   2.597   6.719 -0.5780 -0.2688  2.2243
   93SAPS   O21 9099   2.329   2.781   6.789 -0.3507 -0.5611  0.4622
   93SAPS   C21 9100   2.220   2.744   6.832  0.8830  0.2500 -0.1289
   93SAPS   O22 9101   2.157   2.638   6.805 -0.4466 -0.0002 -0.1679
   93SAPS   C22 9102   2.164   2.851   6.929  0.3851  0.0254  0.6595
   93SAPS   H2R 9103   2.250   2.897   6.983 -1.6503  2.2379  2.1800
   93SAPS   H2S 9104   2.133   2.932   6.859 -0.6915  0.2944  1.4406
   93SAPS    C3 9105   2.534   2.745   6.670  1.0929  0.0556  0.7478
   93SAPS    HX 9106   2.548   2.847   6.628 -0.8223 -0.9315 -2.7568
   93SAPS    HY 9107   2.585   2.683   6.594 -1.3943 -1.8304  0.4755
   93SAPS   O31 9108   2.601   2.713   6.793  0.1669  0.4813 -0.2397
   93SAPS   C31 9109   2.724   2.748   6.802 -0.9860  0.3785 -0.0143
   93SAPS   O32 9110   2.789   2.821   6.727 -0.7063  0.3090 -0.3856
   93SAPS   C32 9111   2.780   2.670   6.922 -0.2120  0.5655 -0.1053
   93SAPS   H2X 9112   2.885   2.702   6.934 -0.7317  2.0944  0.6065
   93SAPS   H2Y 9113   2.769   2.561   6.903  1.5856  0.3923 -0.2852
   93SAPS   C23 9114   2.057   2.789   7.031 -0.7968 -0.3318  0.2427
   93SAPS   H3R 9115   1.977   2.757   6.960  1.2036 -2.3949 -1.2069
   93SAPS   H3S 9116   2.033   2.880   7.091 -0.4499  2.2734 -3.2336
   93SAPS   C24 9117   2.097   2.677   7.118 -0.9754 -0.2429 -0.0803
   93SAPS   H4R 9118   2.185   2.701   7.180 -0.0446  0.2063 -1.5162
   93SAPS   H4S 9119   2.119   2.582   7.065  1.1335  0.7965 -1.2044
   93SAPS   C25 9120   1.978   2.651   7.200  0.3548  0.1058 -0.0930
   93SAPS   H5R 9121   1.899   2.610   7.134 -0.6815  0.6486  0.7760
   93SAPS   C26 9122   1.958   2.650   7.330  0.3259 -0.6820  0.2151
   93SAPS   H6R 9123   1.859   2.622   7.369  0.6788 -1.2701  0.7148
   93SAPS   C27 9124   2.071   2.689   7.431  0.5410  0.4179  0.6924
   93SAPS   H7R 9125   2.070   2.800   7.436  2.8937  0.6702 -1.7823
   93SAPS   H7S 9126   2.174   2.663   7.398 -0.5527 -1.1170 -1.9086
   93SAPS   C28 9127   2.046   2.621   7.557  0.1479  0.2233  0.5970
   93SAPS   H8R 9128   1.997   2.523   7.545  0.0788  0.4272 -0.9834
   93SAPS   C29 9129   2.051   2.681   7.678 -0.8431  0.1661  0.0703
   93SAPS   H9R 9130   2.041   2.621   7.770  1.8097  2.5291  2.0689
   93SAPS  C210 9131   2.099   2.826   7.704 -1.0830  0.6452  0.0653
   93SAPS  H10R 9132   2.049   2.873   7.792 -2.0216  0.4935 -0.3778
   93SAPS  H10S 9133   2.094   2.893   7.616  1.2454  0.9828  0.1076
   93SAPS  C211 9134   2.248   2.832   7.732 -0.3283  0.0877 -0.3295
   93SAPS  H11R 9135   2.321   2.850   7.652  0.8751 -3.2457 -0.1350
   93SAPS  C212 9136   2.301   2.810   7.855 -0.1706  0.5446 -0.0977
   93SAPS  H12R 9137   2.410   2.796   7.862 -0.0452  0.7467 -1.4317
   93SAPS  C213 9138   2.227   2.778   7.985  0.0966 -0.0966 -0.5771
   93SAPS  H13R 9139   2.301   2.703   8.020 -0.4849 -1.4407 -2.0910
   93SAPS  H13S 9140   2.138   2.720   7.953 -0.5263  1.4650 -1.8211
   93SAPS  C214 9141   2.183   2.877   8.087  0.3715 -0.6457 -0.3879
   93SAPS  H14R 9142   2.082   2.918   8.071  0.7631 -0.2758 -2.1360
   93SAPS  C215 9143   2.253   2.915   8.192 -0.1513  0.4439  0.2282
   93SAPS  H15R 9144   2.213   2.982   8.270  0.3718  0.1389  0.7594
   93SAPS  C216 9145   2.398   2.883   8.218  0.0158 -0.1189  0.7283
   93SAPS  H16R 9146   2.454   2.969   8.262  2.1968 -0.0190 -1.9686
   93SAPS  H16S 9147   2.455   2.862   8.126  0.0668 -1.7477  1.1144
   93SAPS  C217 9148   2.412   2.777   8.320  0.2330 -0.0059 -0.1902
   93SAPS  H17R 9149   2.520   2.756   8.341  0.9691  1.1470 -2.4435
   93SAPS  H17S 9150   2.364   2.686   8.280 -2.4662  1.4353 -0.4270
   93SAPS  C218 9151   2.355   2.792   8.463  0.2872  0.6034 -0.7477
   93SAPS  H18R 9152   2.244   2.794   8.473  0.3310 -1.5433  0.6873
   93SAPS  H18S 9153   2.393   2.890   8.499 -1.1630  0.4179  1.5063
   93SAPS  C219 9154   2.395   2.686   8.562 -0.1380 -0.7564  0.2984
   93SAPS  H19R 9155   2.390   2.720   8.668  0.7162 -0.6017  0.2951
   93SAPS  H19S 9156   2.503   2.664   8.556  0.6234  2.6926 -0.7147
   93SAPS  C220 9157   2.314   2.558   8.555 -0.8093 -0.1193 -0.3817
   93SAPS  H20R 9158   2.338   2.492   8.641 -1.8660 -0.0497 -0.0105
   93SAPS  H20S 9159   2.339   2.495   8.467  0.9850 -0.7930  0.5740
   93SAPS  H20T 9160   2.205   2.582   8.552 -0.7682  0.1137 -0.1156
   93SAPS   C33 9161   2.714   2.702   7.058  0.0311  0.2431 -0.4457
   93SAPS   H3X 9162   2.667   2.803   7.054 -0.1269  0.1969  0.1767
   93SAPS   H3Y 9163   2.788   2.705   7.141 -1.7545  1.9372  1.2022
   93SAPS   C34 9164   2.618   2.599   7.108 -0.3893  0.3088  0.5779
   93SAPS   H4X 9165   2.662   2.497   7.117  0.6851  0.7169  0.1301
   93SAPS   H4Y 9166   2.524   2.601   7.049  0.9777  2.2423 -1.6846
   93SAPS   C35 9167   2.574   2.638   7.252  0.4886  0.3253 -0.0033
   93SAPS   H5X 9168   2.477   2.589   7.274  0.8360  0.5329  2.3139
   93SAPS   H5Y 9169   2.559   2.748   7.254 -2.0722  0.0232  1.8250
   93SAPS   C36 9170   2.661   2.588   7.358  1.1945  0.6918 -0.0815
   93SAPS   H6X 9171   2.764   2.591   7.317  0.1406 -0.5849 -3.0465
   93SAPS   H6Y 9172   2.640   2.479   7.368 -0.2641  0.8989 -0.5533
   93SAPS   C37 9173   2.643   2.652   7.499  0.2546  0.1941 -0.1669
   93SAPS   H7X 9174   2.536   2.645   7.527  0.4202  0.0374  0.4343
   93SAPS   H7Y 9175   2.656   2.762   7.487  1.6905  0.4341  2.8778
   93SAPS   C38 9176   2.718   2.585   7.616 -0.0676 -0.4496 -0.0424
   93SAPS   H8X 9177   2.827   2.602   7.601 -0.6192  0.5673 -4.1921
   93SAPS   H8Y 9178   2.700   2.476   7.625 -3.6733 -0.0307 -0.5324
   93SAPS   C39 9179   2.670   2.648   7.751 -0.2379  0.3436  0.7623
   93SAPS   H9X 9180   2.561   2.662   7.741 -0.2163  1.5454  1.8826
   93SAPS   H9Y 9181   2.730   2.742   7.757  0.2531  0.1619 -0.7359
   93SAPS  C310 9182   2.709   2.563   7.876  0.5313  0.3605 -0.6219
   93SAPS  H10X 9183   2.813   2.581   7.910  0.2619 -0.1620  0.5275
   93SAPS  H10Y 9184   2.711   2.454   7.854 -1.4874 -0.2035  1.4613
   93SAPS  C311 9185   2.611   2.580   7.996  0.2705  0.5560  0.5250
   93SAPS  H11X 9186   2.507   2.569   7.960  1.2297 -0.1656 -2.2487
   93SAPS  H11Y 9187   2.622   2.680   8.043  0.5690  0.5435  0.4846
   93SAPS  C312 9188   2.631   2.479   8.113  0.6004 -0.5669  0.1465
   93SAPS  H12X 9189   2.535   2.474   8.169  0.2068  2.6742 -0.0559
   93SAPS  H12Y 9190   2.713   2.498   8.186  1.1243  0.5340 -0.6924
   93SAPS  C313 9191   2.646   2.338   8.056 -0.2306  0.5414  0.7001
   93SAPS  H13X 9192   2.749   2.322   8.015 -1.2676 -3.8422 -0.8441
   93SAPS  H13Y 9193   2.574   2.311   7.976  1.0483 -0.4094 -0.1885
   93SAPS  C314 9194   2.627   2.231   8.166 -0.1156 -0.9934  0.7294
   93SAPS  H14X 9195   2.527   2.253   8.208 -0.0959  2.6892 -0.8329
   93SAPS  H14Y 9196   2.715   2.237   8.234 -0.0728 -0.1276  0.6103
   93SAPS  C315 9197   2.616   2.085   8.118  0.2049 -0.3211 -0.5065
   93SAPS  H15X 9198   2.705   2.073   8.052  0.4335 -3.3531  0.1759
   93SAPS  H15Y 9199   2.520   2.059   8.068 -2.3375 -0.1463  3.8357
   93SAPS  C316 9200   2.630   1.987   8.232 -0.5414 -0.2478  0.0280
   93SAPS  H16X 9201   2.549   1.999   8.307 -1.0846  0.2659 -0.6272
   93SAPS  H16Y 9202   2.724   2.009   8.288  0.0598 -2.0733 -0.2015
   93SAPS  C317 9203   2.657   1.846   8.185 -0.2274  0.4235  0.1278
   93SAPS  H17X 9204   2.758   1.845   8.140  0.3060 -0.3504  1.2946
   93SAPS  H17Y 9205   2.580   1.807   8.114  1.0380 -1.8744 -0.0774
   93SAPS  C318 9206   2.646   1.748   8.301  0.0264  0.1500 -0.7737
   93SAPS  H18X 9207   2.716   1.775   8.383 -0.7080 -0.8093  0.1961
   93SAPS  H18Y 9208   2.683   1.647   8.270  0.5726 -0.4356  1.5706
   93SAPS  H18Z 9209   2.545   1.739   8.344 -0.3295  0.9114 -1.4294
   94SAPS     N 9210   6.401   6.097   5.991  0.1940 -0.1299  0.3735
   94SAPS   HN1 9211   6.362   6.193   5.994  2.1676  0.7138  1.9743
   94SAPS   HN2 9212   6.335   6.017   5.987  1.8176 -1.4986 -0.4735
   94SAPS   HN3 9213   6.446   6.092   6.085  1.0165 -0.9745 -0.0419
   94SAPS   C12 9214   6.501   6.097   5.881  0.6484  0.4936 -0.7099
   94SAPS  H12A 9215   6.528   5.995   5.858 -1.8714 -0.0601 -1.5476
   94SAPS   C13 9216   6.450   6.153   5.753  0.9308 -0.1791  0.1490
   94SAPS  O13A 9217   6.324   6.185   5.753  0.1109  0.4274  0.3413
   94SAPS  O13B 9218   6.523   6.146   5.652  0.1340  0.4386  0.1199
   94SAPS   C11 9219   6.615   6.168   5.947  0.2163 -0.2347 -0.4008
   94SAPS  H11A 9220   6.580   6.259   6.000  0.6142  1.4832 -2.9330
   94SAPS  H11B 9221   6.687   6.196   5.867 -1.6076  0.4582 -1.8609
   94SAPS     P 9222   6.781   5.977   5.988 -0.0339  0.3292  0.2163
   94SAPS   O13 9223   6.715   5.845   5.986 -0.2799  0.4172 -0.3397
   94SAPS   O14 9224   6.832   6.015   5.858  0.2179 -0.5180 -0.4895
   94SAPS   O12 9225   6.688   6.086   6.045  0.3019 -0.6352  0.3537
   94SAPS   O11 9226   6.907   5.971   6.089 -0.1437 -0.5927  0.4682
   94SAPS    C1 9227   6.896   5.997   6.225 -0.7545  0.2967 -0.1719
   94SAPS    HA 9228   6.989   6.049   6.256 -0.4688 -1.4031  2.0151
   94SAPS    HB 9229   6.810   6.062   6.252 -1.2841 -0.8874  1.0913
   94SAPS    C2 9230   6.885   5.869   6.305 -0.6194  0.1974  0.4087
   94SAPS    HS 9231   6.788   5.825   6.275  0.0084 -1.9519  1.3331
   94SAPS   O21 9232   6.910   5.886   6.448  0.1802 -0.1985 -0.1182
   94SAPS   C21 9233   6.810   5.943   6.512  0.7573  0.2456 -0.9402
   94SAPS   O22 9234   6.706   5.984   6.460  0.6187 -0.1788  0.1070
   94SAPS   C22 9235   6.836   5.941   6.662 -0.2295 -0.0228  0.6253
   94SAPS   H2R 9236   6.749   5.976   6.721 -0.2873 -0.8189  1.0229
   94SAPS   H2S 9237   6.849   5.834   6.689 -0.8946  0.2725  2.2097
   94SAPS    C3 9238   6.999   5.772   6.248 -0.4129 -0.4502  0.1085
   94SAPS    HX 9239   7.092   5.833   6.252 -0.4211 -0.3826 -0.5888
   94SAPS    HY 9240   6.976   5.756   6.141  0.4573 -1.6648  0.0761
   94SAPS   O31 9241   7.003   5.654   6.325  0.4464 -0.6893 -0.0684
   94SAPS   C31 9242   6.972   5.538   6.270  0.1232 -0.0596  0.6208
   94SAPS   O32 9243   6.930   5.529   6.151 -0.5139  0.2722 -0.0067
   94SAPS   C32 9244   6.976   5.429   6.375 -0.1084 -0.0886  0.5106
   94SAPS   H2X 9245   6.891   5.444   6.446  2.5715  0.0059  3.9850
   94SAPS   H2Y 9246   7.066   5.444   6.439 -0.8830 -0.9021  1.8476
   94SAPS   C23 9247   6.966   6.024   6.689  0.4225  0.4634 -0.1825
   94SAPS   H3R 9248   6.947   6.126   6.649 -0.0793 -0.7950 -3.4731
   94SAPS   H3S 9249   7.055   5.987   6.634 -1.0499  0.2288 -2.5864
   94SAPS   C24 9250   7.010   6.028   6.838  0.1709  0.0566 -0.4338
   94SAPS   H4R 9251   6.962   6.113   6.892 -1.2413 -1.2112  0.4067
   94SAPS   H4S 9252   7.117   6.057   6.838 -0.2127  1.5960 -0.5841
   94SAPS   C25 9253   6.988   5.896   6.909 -0.6516 -0.0817  0.0691
   94SAPS   H5R 9254   7.005   5.810   6.843 -2.0682  0.2007 -0.6967
   94SAPS   C26 9255   6.932   5.883   7.028  0.7653 -0.4198 -0.7176
   94SAPS   H6R 9256   6.917   5.782   7.068 -1.4987  0.0851 -0.1739
   94SAPS   C27 9257   6.885   5.993   7.122  0.5792  0.1309  0.8595
   94SAPS   H7R 9258   6.810   6.058   7.073 -2.3883 -4.5357 -1.4668
   94SAPS   H7S 9259   6.973   6.060   7.133  0.3881  0.4779  0.3233
   94SAPS   C28 9260   6.851   5.962   7.265 -0.1392  0.2981 -0.4248
   94SAPS   H8R 9261   6.921   5.895   7.317 -0.5975 -1.0668 -1.4726
   94SAPS   C29 9262   6.753   6.009   7.347  0.0287  0.1504 -0.1468
   94SAPS   H9R 9263   6.736   5.948   7.437  1.3277 -1.1662 -0.7436
   94SAPS  C210 9264   6.649   6.111   7.313 -0.4294 -0.3270 -0.3606
   94SAPS  H10R 9265   6.551   6.058   7.312 -0.7489  0.1663  1.3068
   94SAPS  H10S 9266   6.664   6.155   7.212  1.7779  2.0890  0.9041
   94SAPS  C211 9267   6.644   6.217   7.411 -0.2520  0.1947  0.0163
   94SAPS  H11R 9268   6.655   6.182   7.514  1.5248 -0.7046 -0.4398
   94SAPS  C212 9269   6.593   6.338   7.394  0.0633 -0.8512  0.2379
   94SAPS  H12R 9270   6.593   6.405   7.481  0.1781 -2.3249  1.4194
   94SAPS  C213 9271   6.553   6.408   7.269  0.3399  0.0315 -0.3134
   94SAPS  H13R 9272   6.495   6.344   7.199 -1.6837  1.4093  0.0177
   94SAPS  H13S 9273   6.643   6.422   7.204 -1.1733 -0.5162 -2.6785
   94SAPS  C214 9274   6.475   6.531   7.286  0.3150 -0.4677 -0.5880
   94SAPS  H14R 9275   6.387   6.515   7.351  0.4093 -0.4877 -0.4634
   94SAPS  C215 9276   6.501   6.658   7.246 -0.8932  0.5376  0.5922
   94SAPS  H15R 9277   6.433   6.744   7.259 -2.7226 -1.1823  3.0844
   94SAPS  C216 9278   6.626   6.689   7.158  0.2371 -0.6991 -0.3550
   94SAPS  H16R 9279   6.710   6.617   7.170  0.0055 -0.6944  1.8495
   94SAPS  H16S 9280   6.668   6.781   7.204 -1.1050 -0.1436 -0.1837
   94SAPS  C217 9281   6.599   6.709   7.009  0.4973  0.7069  0.4417
   94SAPS  H17R 9282   6.516   6.778   6.984  0.4935 -0.2917 -2.7892
   94SAPS  H17S 9283   6.573   6.613   6.958  0.9963  1.0405 -0.4672
   94SAPS  C218 9284   6.723   6.767   6.937  0.0225 -0.0763 -0.1984
   94SAPS  H18R 9285   6.802   6.692   6.953 -0.7001 -0.8922 -0.3795
   94SAPS  H18S 9286   6.750   6.862   6.989  1.0690 -1.0639  1.1090
   94SAPS  C219 9287   6.704   6.772   6.781 -0.0663 -0.1381  0.0006
   94SAPS  H19R 9288   6.615   6.836   6.765  1.6249  2.3499  0.0110
   94SAPS  H19S 9289   6.692   6.669   6.742 -0.4455 -0.1687  0.1957
   94SAPS  C220 9290   6.814   6.849   6.706  0.2550 -0.2259  0.6197
   94SAPS  H20R 9291   6.817   6.956   6.735  0.7186 -0.1505  0.3016
   94SAPS  H20S 9292   6.783   6.844   6.599 -1.1403 -0.8959  1.0306
   94SAPS  H20T 9293   6.919   6.814   6.692  0.8795  2.5235 -3.0148
   94SAPS   C33 9294   6.971   5.285   6.319 -0.8262  0.2088  0.0017
   94SAPS   H3X 9295   7.042   5.270   6.235 -1.6473 -0.7125 -0.5474
   94SAPS   H3Y 9296   6.866   5.264   6.292 -0.9423  2.4520 -1.5736
   94SAPS   C34 9297   7.017   5.166   6.417 -0.0237 -0.3245 -0.4791
   94SAPS   H4X 9298   7.123   5.180   6.445 -0.4297  0.8385  0.5892
   94SAPS   H4Y 9299   6.992   5.069   6.369  0.3767 -0.6271 -0.0783
   94SAPS   C35 9300   6.934   5.160   6.547  0.4364  0.2680  0.9447
   94SAPS   H5X 9301   6.824   5.150   6.532  0.2507 -0.4540  2.5178
   94SAPS   H5Y 9302   6.949   5.263   6.585  0.5811  1.3452 -1.8256
   94SAPS   C36 9303   6.981   5.055   6.659 -0.0509  0.0407  0.2164
   94SAPS   H6X 9304   7.064   5.101   6.717  0.7144 -0.3097 -0.5833
   94SAPS   H6Y 9305   7.008   4.957   6.614  1.0803  0.4330  0.0108
   94SAPS   C37 9306   6.855   5.030   6.748  0.0624  0.6726  0.4034
   94SAPS   H7X 9307   6.788   4.958   6.699 -1.6392  2.2084  0.3730
   94SAPS   H7Y 9308   6.792   5.119   6.770  1.2975  1.0722  2.7404
   94SAPS   C38 9309   6.893   4.973   6.889  0.0977 -0.0289 -0.4709
   94SAPS   H8X 9310   6.997   4.936   6.879  0.5532  1.7201 -3.9095
   94SAPS   H8Y 9311   6.822   4.893   6.921 -0.8980  0.9274 -0.2323
   94SAPS   C39 9312   6.903   5.088   6.998  0.2068 -0.5407  0.5339
   94SAPS   H9X 9313   6.833   5.172   6.979  2.0212  1.3430  1.7553
   94SAPS   H9Y 9314   7.007   5.127   6.987  0.5369 -0.7078  2.6642
   94SAPS  C310 9315   6.897   5.042   7.145 -0.4655 -0.5558 -0.3416
   94SAPS  H10X 9316   6.988   4.980   7.161 -0.9023 -1.1914 -0.2799
   94SAPS  H10Y 9317   6.805   4.980   7.154 -1.2257  0.5204 -0.4392
   94SAPS  C311 9318   6.904   5.161   7.251  0.1556  0.0217 -0.3788
   94SAPS  H11X 9319   6.823   5.234   7.229 -2.3929 -3.0615 -1.9489
   94SAPS  H11Y 9320   6.999   5.213   7.224  0.3941 -0.2839 -0.1264
   94SAPS  C312 9321   6.910   5.125   7.400 -0.0105  1.1789 -0.1401
   94SAPS  H12X 9322   6.997   5.057   7.400 -0.5043  0.5106  1.1587
   94SAPS  H12Y 9323   6.819   5.064   7.419 -0.2640  1.8477  0.8834
   94SAPS  C313 9324   6.936   5.232   7.506 -0.3694  0.6875  0.1969
   94SAPS  H13X 9325   6.863   5.314   7.493 -1.5963 -0.2909  0.6968
   94SAPS  H13Y 9326   7.038   5.267   7.481 -0.3129 -0.6964 -1.7635
   94SAPS  C314 9327   6.925   5.174   7.648  0.4814 -0.0543  0.2993
   94SAPS  H14X 9328   7.010   5.105   7.666  1.6965  2.0198  3.2251
   94SAPS  H14Y 9329   6.834   5.111   7.657  2.1538 -2.5576  0.6177
   94SAPS  C315 9330   6.919   5.278   7.760 -0.0907  0.6509 -0.6106
   94SAPS  H15X 9331   6.937   5.222   7.854  2.0860  1.2825 -0.5871
   94SAPS  H15Y 9332   6.821   5.328   7.776  1.1426  3.0724 -0.2238
   94SAPS  C316 9333   7.033   5.374   7.747 -0.4598 -0.1186 -0.5233
   94SAPS  H16X 9334   7.006   5.454   7.674 -0.9099  1.0589  0.8865
   94SAPS  H16Y 9335   7.116   5.314   7.704 -0.1390 -2.0388  2.5108
   94SAPS  C317 9336   7.074   5.433   7.886 -0.9420 -0.0488  0.9223
   94SAPS  H17X 9337   7.096   5.340   7.942 -2.3357 -0.4859  0.7757
   94SAPS  H17Y 9338   6.999   5.499   7.934 -0.9096  0.2113  0.6210
   94SAPS  C318 9339   7.203   5.517   7.878  0.1344  0.4033 -0.1386
   94SAPS  H18X 9340   7.178   5.606   7.816  0.6269  1.2674  0.8793
   94SAPS  H18Y 9341   7.298   5.472   7.841  0.6453  1.9194 -0.7447
   94SAPS  H18Z 9342   7.221   5.559   7.979  3.6519 -1.0781  0.0154
   95SAPS     N 9343   2.773   4.827   5.902 -0.6385 -0.0854 -0.3956
   95SAPS   HN1 9344   2.695   4.796   5.963  0.7484 -0.9836  1.0224
   95SAPS   HN2 9345   2.756   4.924   5.870 -0.4980 -0.3146 -1.1994
   95SAPS   HN3 9346   2.783   4.773   5.813  4.7328  1.0465 -0.8235
   95SAPS   C12 9347   2.897   4.828   5.983  0.2940 -0.0958 -0.8409
   95SAPS  H12A 9348   2.926   4.725   6.000 -0.6063 -0.1683  0.3122
   95SAPS   C13 9349   3.008   4.903   5.904 -0.0534  0.6582  0.1157
   95SAPS  O13A 9350   2.987   4.967   5.801  0.2389 -0.2393 -0.2198
   95SAPS  O13B 9351   3.127   4.868   5.939  1.5559  0.6625  0.5147
   95SAPS   C11 9352   2.877   4.902   6.126  0.4362 -0.8910  0.1529
   95SAPS  H11A 9353   2.833   5.003   6.118  1.9229  0.0006  2.2270
   95SAPS  H11B 9354   2.980   4.917   6.166  0.1830  2.2407 -0.1154
   95SAPS     P 9355   2.645   4.816   6.240 -0.2924 -0.3788 -0.2028
   95SAPS   O13 9356   2.576   4.836   6.107  0.4725 -0.3168  0.5208
   95SAPS   O14 9357   2.608   4.699   6.315 -0.3857  0.1414 -0.3405
   95SAPS   O12 9358   2.804   4.824   6.219  0.1352 -0.0596  0.0671
   95SAPS   O11 9359   2.609   4.945   6.327 -0.3934  0.1130  0.0258
   95SAPS    C1 9360   2.705   5.026   6.402 -0.0277 -0.0886 -0.3281
   95SAPS    HA 9361   2.779   5.070   6.332 -1.2509  1.4331 -0.7163
   95SAPS    HB 9362   2.657   5.116   6.447 -1.8727 -2.1877  2.2031
   95SAPS    C2 9363   2.771   4.955   6.520  0.0125 -0.4112  0.3073
   95SAPS    HS 9364   2.847   4.890   6.471 -0.5941  0.7590 -2.4359
   95SAPS   O21 9365   2.674   4.883   6.596 -0.5000 -0.0208  0.6315
   95SAPS   C21 9366   2.715   4.766   6.627 -0.1746  0.3793 -0.2429
   95SAPS   O22 9367   2.824   4.714   6.600  0.0934 -0.0256 -0.0757
   95SAPS   C22 9368   2.612   4.698   6.718 -0.8075  0.5462  0.4721
   95SAPS   H2R 9369   2.516   4.686   6.663  0.7894 -0.4034 -2.3561
   95SAPS   H2S 9370   2.655   4.595   6.722  2.6480  1.8088 -0.0932
   95SAPS    C3 9371   2.855   5.047   6.614 -0.4935 -0.3997 -0.0105
   95SAPS    HX 9372   2.778   5.118   6.651  1.0869  0.8580  0.9670
   95SAPS    HY 9373   2.933   5.102   6.557 -0.1378 -1.3378 -0.4482
   95SAPS   O31 9374   2.917   4.977   6.720 -0.4898  0.0335  0.3724
   95SAPS   C31 9375   3.038   4.917   6.695  0.4195 -0.6896  0.0285
   95SAPS   O32 9376   3.095   4.925   6.589 -0.6531 -0.1115  0.1278
   95SAPS   C32 9377   3.076   4.841   6.819 -0.0902 -0.6713 -1.0810
   95SAPS   H2X 9378   3.050   4.735   6.797  2.9857 -1.3884 -1.6402
   95SAPS   H2Y 9379   3.025   4.883   6.909  2.8703  2.4643 -0.6535
   95SAPS   C23 9380   2.588   4.764   6.858 -0.1730  0.4430  0.3328
   95SAPS   H3R 9381   2.515   4.708   6.920  1.0240  0.2678  1.6396
   95SAPS   H3S 9382   2.560   4.871   6.848 -0.8714  0.3253  0.9734
   95SAPS   C24 9383   2.715   4.769   6.950  0.3862  0.1975  0.5713
   95SAPS   H4R 9384   2.692   4.808   7.052  1.9251  1.0099  0.6258
   95SAPS   H4S 9385   2.780   4.845   6.903  0.9282 -0.6046 -0.0050
   95SAPS   C25 9386   2.782   4.631   6.962 -0.0345  0.0722 -0.7549
   95SAPS   H5R 9387   2.869   4.606   6.899  0.2220 -1.3581  0.1101
   95SAPS   C26 9388   2.741   4.529   7.036 -0.0202  0.3456 -0.6174
   95SAPS   H6R 9389   2.792   4.431   7.036 -2.5920 -1.1000 -2.0965
   95SAPS   C27 9390   2.625   4.529   7.139 -0.8345 -0.3254 -0.0642
   95SAPS   H7R 9391   2.529   4.506   7.089 -0.5373  1.2916 -1.4762
   95SAPS   H7S 9392   2.604   4.630   7.180  0.4890  0.3555 -0.9730
   95SAPS   C28 9393   2.663   4.435   7.244 -0.9371  0.0982  0.1598
   95SAPS   H8R 9394   2.771   4.431   7.262 -0.9027  2.7030  1.0088
   95SAPS   C29 9395   2.582   4.361   7.318  0.7661  0.4958  0.2297
   95SAPS   H9R 9396   2.633   4.285   7.380  1.8046  2.2420  1.6490
   95SAPS  C210 9397   2.430   4.356   7.312  0.1535 -0.3485 -0.3021
   95SAPS  H10R 9398   2.407   4.334   7.206 -0.5134 -2.3221  0.2138
   95SAPS  H10S 9399   2.398   4.458   7.342 -1.6422 -1.4815  1.9718
   95SAPS  C211 9400   2.361   4.267   7.413  0.4061 -0.3001  0.3435
   95SAPS  H11R 9401   2.338   4.166   7.376  0.7608 -0.2733  0.0483
   95SAPS  C212 9402   2.348   4.302   7.538 -0.5767  0.5390  0.0427
   95SAPS  H12R 9403   2.289   4.240   7.607  0.8467  0.6037  1.3654
   95SAPS  C213 9404   2.398   4.431   7.604  0.0408  0.9044 -0.5734
   95SAPS  H13R 9405   2.319   4.428   7.682  1.7745 -0.2477  1.2446
   95SAPS  H13S 9406   2.391   4.517   7.535  2.4661  1.0086 -0.7723
   95SAPS  C214 9407   2.530   4.415   7.669 -0.2823 -0.2870 -0.5561
   95SAPS  H14R 9408   2.614   4.461   7.615 -0.5504 -0.5369 -1.1980
   95SAPS  C215 9409   2.552   4.364   7.798 -0.4033 -0.0147  0.8515
   95SAPS  H15R 9410   2.648   4.377   7.851  1.3509  1.2337 -2.3467
   95SAPS  C216 9411   2.453   4.297   7.884 -0.1436  0.1380  0.0780
   95SAPS  H16R 9412   2.377   4.239   7.827 -1.1075  2.3402 -1.0184
   95SAPS  H16S 9413   2.403   4.369   7.953  0.6651  1.1569 -0.3692
   95SAPS  C217 9414   2.514   4.184   7.975  0.6929 -0.5811 -0.2575
   95SAPS  H17R 9415   2.600   4.216   8.038 -0.7668  3.2867  0.0724
   95SAPS  H17S 9416   2.567   4.114   7.907  1.5425 -0.1536 -0.0609
   95SAPS  C218 9417   2.406   4.103   8.049  0.4620 -0.0253 -0.8522
   95SAPS  H18R 9418   2.444   4.005   8.086  1.2668  0.3512 -0.6703
   95SAPS  H18S 9419   2.324   4.078   7.979  0.4970 -4.2438  0.3426
   95SAPS  C219 9420   2.339   4.174   8.171  0.1622 -0.8888 -0.4513
   95SAPS  H19R 9421   2.276   4.256   8.131 -0.8349 -0.6694  1.4235
   95SAPS  H19S 9422   2.415   4.218   8.240  0.4655  1.4995 -2.2026
   95SAPS  C220 9423   2.260   4.068   8.243  0.0547 -0.1377 -0.0013
   95SAPS  H20R 9424   2.210   4.114   8.331  0.5346  0.7218 -0.1703
   95SAPS  H20S 9425   2.321   3.982   8.278 -0.2140 -0.2917  0.0908
   95SAPS  H20T 9426   2.183   4.034   8.170 -0.6500 -0.5699  0.9250
   95SAPS   C33 9427   3.229   4.839   6.856 -0.2295 -0.7514 -0.9216
   95SAPS   H3X 9428   3.266   4.942   6.876  1.3033 -1.4358 -0.0025
   95SAPS   H3Y 9429   3.285   4.797   6.769  1.2539 -0.6995 -0.0255
   95SAPS   C34 9430   3.246   4.740   6.978 -0.3288  0.0059  0.9174
   95SAPS   H4X 9431   3.355   4.731   7.000  0.0626  0.4967 -0.7027
   95SAPS   H4Y 9432   3.213   4.644   6.932 -0.1312 -0.0896  0.9742
   95SAPS   C35 9433   3.178   4.760   7.107  0.1423  0.3167 -0.7551
   95SAPS   H5X 9434   3.067   4.767   7.099  0.2075  2.2325 -0.4665
   95SAPS   H5Y 9435   3.211   4.854   7.156 -3.6472  1.2967  0.2749
   95SAPS   C36 9436   3.204   4.650   7.216 -0.6159 -1.0146 -0.2961
   95SAPS   H6X 9437   3.313   4.630   7.219 -0.9267 -2.7464  2.3420
   95SAPS   H6Y 9438   3.149   4.559   7.184  0.2401 -1.8148  0.4632
   95SAPS   C37 9439   3.173   4.691   7.363  0.2117 -0.0778  0.2504
   95SAPS   H7X 9440   3.065   4.713   7.378  1.0830  4.1064  1.6927
   95SAPS   H7Y 9441   3.232   4.781   7.389  2.3498 -1.2245 -0.4499
   95SAPS   C38 9442   3.211   4.579   7.461 -1.5423 -0.0933 -0.5086
   95SAPS   H8X 9443   3.295   4.518   7.423  1.3910  3.0203  0.5161
   95SAPS   H8Y 9444   3.115   4.523   7.472 -1.1307 -0.7274 -0.0992
   95SAPS   C39 9445   3.256   4.627   7.599 -0.7859  0.2338  0.0742
   95SAPS   H9X 9446   3.171   4.689   7.634 -0.3390  0.0531  1.5259
   95SAPS   H9Y 9447   3.350   4.683   7.580 -1.5539  1.7538  0.5813
   95SAPS  C310 9448   3.280   4.525   7.701  0.2303  0.1704  0.2940
   95SAPS  H10X 9449   3.346   4.445   7.663 -0.1144 -0.5250  1.1306
   95SAPS  H10Y 9450   3.183   4.471   7.710  0.2982 -0.0898 -0.4939
   95SAPS  C311 9451   3.340   4.578   7.842  0.3791  0.4340 -0.9380
   95SAPS  H11X 9452   3.263   4.646   7.884  1.4778 -0.4931  2.8858
   95SAPS  H11Y 9453   3.441   4.618   7.817  1.0805 -1.5021 -1.4052
   95SAPS  C312 9454   3.359   4.468   7.942  0.3396  0.1885 -0.2393
   95SAPS  H12X 9455   3.451   4.407   7.927 -1.3815 -2.9743  1.1967
   95SAPS  H12Y 9456   3.273   4.399   7.940  0.4789  0.0293 -1.8705
   95SAPS  C313 9457   3.384   4.525   8.082 -0.1519  0.1099 -0.9169
   95SAPS  H13X 9458   3.444   4.618   8.069  0.7126  0.4847  3.7120
   95SAPS  H13Y 9459   3.442   4.453   8.143 -0.3342  0.9288  0.2586
   95SAPS  C314 9460   3.250   4.554   8.154  0.0585 -0.2078  0.4928
   95SAPS  H14X 9461   3.186   4.464   8.140  1.0227 -0.6509 -1.5132
   95SAPS  H14Y 9462   3.204   4.644   8.110 -0.5230 -1.2929 -1.2444
   95SAPS  C315 9463   3.268   4.596   8.299  0.6017  0.1328 -0.9767
   95SAPS  H15X 9464   3.163   4.597   8.336  0.8348  0.2331 -0.2984
   95SAPS  H15Y 9465   3.319   4.692   8.321  1.5626 -0.7246  0.8026
   95SAPS  C316 9466   3.340   4.496   8.396 -0.0504  0.5566 -0.0174
   95SAPS  H16X 9467   3.449   4.510   8.383  0.4182 -1.6147  1.0948
   95SAPS  H16Y 9468   3.317   4.391   8.369  0.4203  0.9354 -2.0495
   95SAPS  C317 9469   3.316   4.515   8.543  0.6307  0.0911 -0.0456
   95SAPS  H17X 9470   3.213   4.490   8.575  0.8397  0.7533  1.2408
   95SAPS  H17Y 9471   3.325   4.622   8.572 -1.2969  0.0934  0.6486
   95SAPS  C318 9472   3.403   4.425   8.617  0.2073 -0.1298  0.3328
   95SAPS  H18X 9473   3.509   4.443   8.591 -0.1687 -1.0156 -2.1544
   95SAPS  H18Y 9474   3.371   4.328   8.571 -1.3467  1.1037 -1.3356
   95SAPS  H18Z 9475   3.381   4.426   8.726  1.0149  1.2133  0.4983
   96SAPS     N 9476   5.081   6.251   6.332 -0.0597  0.5796 -0.0627
   96SAPS   HN1 9477   5.033   6.186   6.397 -4.6967  1.4650 -2.1731
   96SAPS   HN2 9478   5.144   6.326   6.365 -0.6039  0.3397  1.6037
   96SAPS   HN3 9479   4.999   6.290   6.280 -1.4239 -2.0413 -0.0616
   96SAPS   C12 9480   5.162   6.168   6.225 -0.2197  0.6308 -0.4081
   96SAPS  H12A 9481   5.095   6.099   6.177 -1.0433 -0.4437  2.1224
   96SAPS   C13 9482   5.229   6.271   6.125 -0.0270  0.2930 -1.0063
   96SAPS  O13A 9483   5.206   6.392   6.147  0.5091 -0.8426  0.0956
   96SAPS  O13B 9484   5.318   6.235   6.043  0.2586 -0.1831  0.5297
   96SAPS   C11 9485   5.263   6.068   6.292  0.2754  0.1288  0.8668
   96SAPS  H11A 9486   5.339   6.132   6.343  0.4583  0.0794  0.6618
   96SAPS  H11B 9487   5.316   6.011   6.213 -0.8788  3.0969 -2.3256
   96SAPS     P 9488   5.105   5.864   6.364 -0.2392 -0.1087 -0.0391
   96SAPS   O13 9489   5.036   5.817   6.482  0.2770  0.5163 -0.4261
   96SAPS   O14 9490   5.021   5.905   6.252  0.4728 -0.1446 -0.4155
   96SAPS   O12 9491   5.197   5.993   6.395 -0.7786  0.2647  0.1526
   96SAPS   O11 9492   5.205   5.743   6.327 -0.0753 -0.5932  0.2056
   96SAPS    C1 9493   5.343   5.736   6.333 -0.2966 -0.4082  0.0192
   96SAPS    HA 9494   5.392   5.726   6.234 -1.3954 -2.5094 -0.3725
   96SAPS    HB 9495   5.387   5.820   6.392  1.5466 -1.0444 -0.3744
   96SAPS    C2 9496   5.410   5.614   6.410 -0.0847  0.0028 -0.4548
   96SAPS    HS 9497   5.377   5.528   6.349 -1.3045  0.5336 -0.5693
   96SAPS   O21 9498   5.375   5.609   6.549  0.6084 -0.5997 -0.0799
   96SAPS   C21 9499   5.260   5.551   6.571 -0.7450  0.4651 -0.4761
   96SAPS   O22 9500   5.210   5.463   6.505  0.4825 -0.2025 -0.1860
   96SAPS   C22 9501   5.203   5.581   6.711  0.1989 -0.2447  0.3518
   96SAPS   H2R 9502   5.239   5.508   6.786  0.3677 -2.1226 -1.4693
   96SAPS   H2S 9503   5.247   5.678   6.741  0.8769 -0.4975  0.1926
   96SAPS    C3 9504   5.565   5.637   6.394  0.1603 -0.3758  0.1762
   96SAPS    HX 9505   5.588   5.635   6.286  2.7048 -1.5844  0.6456
   96SAPS    HY 9506   5.607   5.552   6.452  2.1618 -0.3552 -1.1470
   96SAPS   O31 9507   5.613   5.765   6.449 -0.2486 -0.5827  0.7337
   96SAPS   C31 9508   5.730   5.766   6.514 -0.9745 -0.4948  0.8069
   96SAPS   O32 9509   5.821   5.685   6.503  0.6246  0.0482 -0.0164
   96SAPS   C32 9510   5.741   5.891   6.608  0.8300  0.5161 -0.2949
   96SAPS   H2X 9511   5.650   5.954   6.604 -0.0057 -0.5540  0.9126
   96SAPS   H2Y 9512   5.835   5.936   6.570  1.0921  0.2005 -0.0260
   96SAPS   C23 9513   5.049   5.582   6.702  0.4690  0.3702  0.1718
   96SAPS   H3R 9514   5.004   5.485   6.672 -1.9173  2.0631 -2.1018
   96SAPS   H3S 9515   5.005   5.653   6.629 -0.2253 -1.2123 -0.9902
   96SAPS   C24 9516   4.993   5.626   6.841 -0.2910  0.0979  0.6762
   96SAPS   H4R 9517   4.891   5.667   6.823 -0.1601 -0.5982 -2.3261
   96SAPS   H4S 9518   5.062   5.707   6.871 -0.6122  0.7983 -0.4123
   96SAPS   C25 9519   4.992   5.509   6.933  0.0197  0.1329  0.3298
   96SAPS   H5R 9520   5.017   5.414   6.884 -0.4711  0.0091  0.3136
   96SAPS   C26 9521   4.990   5.515   7.069  0.3500  0.4809 -0.1332
   96SAPS   H6R 9522   4.999   5.422   7.128 -1.0222 -0.8802 -1.9422
   96SAPS   C27 9523   4.988   5.640   7.162  0.1608  0.0409 -0.4989
   96SAPS   H7R 9524   5.000   5.733   7.103  0.1023  0.7596  0.6046
   96SAPS   H7S 9525   5.081   5.639   7.222  0.7702 -4.5804 -1.1692
   96SAPS   C28 9526   4.868   5.653   7.250  0.0873  0.3217  0.0130
   96SAPS   H8R 9527   4.782   5.694   7.195 -0.4469  0.7225  1.1392
   96SAPS   C29 9528   4.850   5.642   7.378  0.1206 -0.9485  0.8469
   96SAPS   H9R 9529   4.750   5.665   7.417 -1.4183  0.0040 -3.1815
   96SAPS  C210 9530   4.957   5.616   7.487  0.0057  0.3820  0.2307
   96SAPS  H10R 9531   4.976   5.697   7.560  0.0922  0.8661 -0.3167
   96SAPS  H10S 9532   5.055   5.612   7.434  0.9791  2.5427  1.7041
   96SAPS  C211 9533   4.957   5.482   7.554  0.8820  0.5472  0.0314
   96SAPS  H11R 9534   4.989   5.397   7.492  0.0170  0.4985 -0.3589
   96SAPS  C212 9535   4.920   5.458   7.683 -0.8090 -0.1723 -0.5876
   96SAPS  H12R 9536   4.928   5.356   7.723  0.2744  0.3228  0.5243
   96SAPS  C213 9537   4.883   5.559   7.786 -0.1086  0.3105 -0.3933
   96SAPS  H13R 9538   4.884   5.660   7.740 -1.7805  0.9341  0.8142
   96SAPS  H13S 9539   4.950   5.570   7.874  0.3445  1.9845 -0.9126
   96SAPS  C214 9540   4.740   5.539   7.828 -0.0257 -0.5732  0.7699
   96SAPS  H14R 9541   4.673   5.480   7.764 -0.1146 -0.7504  1.0233
   96SAPS  C215 9542   4.687   5.595   7.941  0.3139  0.0534  0.2104
   96SAPS  H15R 9543   4.587   5.571   7.981 -0.0748 -1.2329 -1.4389
   96SAPS  C216 9544   4.754   5.683   8.036  0.4053  0.0310 -0.7056
   96SAPS  H16R 9545   4.720   5.786   8.010 -0.7327 -0.1800 -0.1127
   96SAPS  H16S 9546   4.864   5.675   8.025  0.3618 -0.9132 -0.5328
   96SAPS  C217 9547   4.737   5.660   8.191 -0.4040 -0.5202 -0.8509
   96SAPS  H17R 9548   4.804   5.575   8.217  2.8751  1.8529 -0.8476
   96SAPS  H17S 9549   4.631   5.645   8.220 -0.9563  0.1207 -2.4017
   96SAPS  C218 9550   4.790   5.782   8.272  0.5819 -0.3674  0.2698
   96SAPS  H18R 9551   4.744   5.880   8.247  2.5899  0.8957  1.1858
   96SAPS  H18S 9552   4.894   5.807   8.241 -0.4124  2.5981 -0.9899
   96SAPS  C219 9553   4.785   5.749   8.426  0.5077 -0.5555 -0.3866
   96SAPS  H19R 9554   4.829   5.648   8.439  0.2726 -0.5488  0.5505
   96SAPS  H19S 9555   4.679   5.741   8.461  0.0785  1.7222 -0.9856
   96SAPS  C220 9556   4.849   5.851   8.522  0.0923  0.5795  0.1742
   96SAPS  H20R 9557   4.844   5.819   8.629 -2.7839  1.0724  0.2886
   96SAPS  H20S 9558   4.793   5.947   8.514 -1.3475 -0.0675  1.7173
   96SAPS  H20T 9559   4.955   5.863   8.491  0.0104  1.2345  0.1320
   96SAPS   C33 9560   5.760   5.841   6.757  0.0815  0.7519  0.2358
   96SAPS   H3X 9561   5.796   5.917   6.830 -0.5591 -0.8783  2.3610
   96SAPS   H3Y 9562   5.833   5.758   6.764  0.3592  1.1114  2.7630
   96SAPS   C34 9563   5.636   5.776   6.821 -0.0576  0.0620  0.3101
   96SAPS   H4X 9564   5.613   5.682   6.766  1.0824  0.3544 -0.7197
   96SAPS   H4Y 9565   5.552   5.844   6.795 -0.4247 -0.2753  0.5956
   96SAPS   C35 9566   5.633   5.764   6.976  0.3188  0.4962  0.0771
   96SAPS   H5X 9567   5.683   5.673   7.014 -2.6032 -0.4097  2.1230
   96SAPS   H5Y 9568   5.526   5.757   7.004  0.2071  0.0370 -0.4628
   96SAPS   C36 9569   5.690   5.882   7.065 -0.0016  0.7006  0.0460
   96SAPS   H6X 9570   5.643   5.982   7.056 -3.1234 -0.4792  1.9007
   96SAPS   H6Y 9571   5.800   5.888   7.045  0.3743  1.4786  2.0905
   96SAPS   C37 9572   5.684   5.848   7.214 -0.0099 -0.3384 -0.5130
   96SAPS   H7X 9573   5.764   5.775   7.238 -2.8834 -3.2462  0.9877
   96SAPS   H7Y 9574   5.581   5.811   7.235 -0.1178  0.0439 -0.3585
   96SAPS   C38 9575   5.702   5.964   7.307 -0.4819  0.5743 -0.5413
   96SAPS   H8X 9576   5.624   6.040   7.284  0.5145  1.6196 -0.6115
   96SAPS   H8Y 9577   5.806   6.004   7.296  0.0329 -0.6189 -0.1409
   96SAPS   C39 9578   5.678   5.920   7.452  0.2127  0.4962 -0.3342
   96SAPS   H9X 9579   5.726   5.823   7.474  0.2954  0.6260  0.0622
   96SAPS   H9Y 9580   5.569   5.902   7.461  0.3370 -0.3403 -0.4398
   96SAPS  C310 9581   5.724   6.009   7.565 -0.5442  0.2413 -0.0514
   96SAPS  H10X 9582   5.691   6.114   7.548 -1.4745 -0.3121 -2.1422
   96SAPS  H10Y 9583   5.834   5.994   7.563 -0.5708 -0.1891 -2.6917
   96SAPS  C311 9584   5.671   5.965   7.692  0.4988  0.7409 -0.0138
   96SAPS  H11X 9585   5.666   5.854   7.681 -0.5767  0.7310  0.4399
   96SAPS  H11Y 9586   5.565   5.996   7.696 -0.2097 -1.4451 -0.6261
   96SAPS  C312 9587   5.768   6.010   7.805  0.2616 -0.4394  0.8152
   96SAPS  H12X 9588   5.774   6.121   7.803 -2.1470 -0.1877  2.6430
   96SAPS  H12Y 9589   5.866   5.958   7.805  1.0583  0.9474  2.2563
   96SAPS  C313 9590   5.715   5.991   7.953  0.3221 -0.0428 -0.5093
   96SAPS  H13X 9591   5.793   5.996   8.032 -0.2208 -0.7743  0.0938
   96SAPS  H13Y 9592   5.657   5.897   7.950  0.5183 -0.1533 -0.9687
   96SAPS  C314 9593   5.599   6.088   7.998 -0.6780  0.0851 -0.3312
   96SAPS  H14X 9594   5.535   6.120   7.913 -2.0316  0.6327  0.8551
   96SAPS  H14Y 9595   5.646   6.178   8.043  0.0333 -0.6910  0.5380
   96SAPS  C315 9596   5.505   6.016   8.104 -0.1133  0.5752  0.1067
   96SAPS  H15X 9597   5.441   6.095   8.150 -0.8507 -0.2288  0.4942
   96SAPS  H15Y 9598   5.570   5.965   8.178  0.9932  1.7047 -0.0530
   96SAPS  C316 9599   5.404   5.906   8.055  0.5142 -0.3625  0.2341
   96SAPS  H16X 9600   5.453   5.812   8.020 -0.0672 -0.9128  0.8527
   96SAPS  H16Y 9601   5.343   5.956   7.978 -0.1722 -1.5470 -0.0103
   96SAPS  C317 9602   5.300   5.872   8.164  0.0325 -0.3235  0.1960
   96SAPS  H17X 9603   5.241   5.959   8.199  0.5117 -0.3326  1.0645
   96SAPS  H17Y 9604   5.359   5.832   8.250  0.2538 -0.3069  0.0534
   96SAPS  C318 9605   5.198   5.771   8.114  0.4325 -0.3323  0.3869
   96SAPS  H18X 9606   5.124   5.744   8.192 -0.9740 -1.6244 -1.3265
   96SAPS  H18Y 9607   5.251   5.680   8.079 -0.1090 -0.5961  0.2411
   96SAPS  H18Z 9608   5.142   5.809   8.027 -0.3977 -2.8704 -0.2642
   97SAPS     N 9609   5.449   3.703   6.657 -0.6574  0.3861 -0.4103
   97SAPS   HN1 9610   5.505   3.791   6.652 -0.1311  0.4957  3.9554
   97SAPS   HN2 9611   5.398   3.705   6.747  1.2929 -1.5490  0.8331
   97SAPS   HN3 9612   5.513   3.622   6.660 -2.0255 -0.6994  0.9946
   97SAPS   C12 9613   5.368   3.691   6.534 -0.4335  0.3945  0.3680
   97SAPS  H12A 9614   5.302   3.777   6.530 -0.6103  0.2319 -0.4445
   97SAPS   C13 9615   5.449   3.678   6.404  0.2417  0.1704 -0.8475
   97SAPS  O13A 9616   5.573   3.686   6.406  0.5976  0.1842 -0.2913
   97SAPS  O13B 9617   5.393   3.686   6.286  0.0899 -0.6024 -0.2267
   97SAPS   C11 9618   5.276   3.567   6.544 -0.6699  0.2384  0.4215
   97SAPS  H11A 9619   5.330   3.474   6.571  0.5056  1.1734  1.3940
   97SAPS  H11B 9620   5.230   3.541   6.446  1.5674  0.6963 -0.8243
   97SAPS     P 9621   5.051   3.653   6.648  0.3713  0.3719 -0.0411
   97SAPS   O13 9622   5.028   3.755   6.751  0.0409 -0.0244  0.1570
   97SAPS   O14 9623   5.024   3.709   6.513 -0.2062 -0.1589  0.1078
   97SAPS   O12 9624   5.191   3.584   6.654  0.2040  0.0175 -0.4686
   97SAPS   O11 9625   4.961   3.524   6.668 -0.1429 -0.3332 -0.2080
   97SAPS    C1 9626   4.914   3.481   6.795 -0.3751  0.1493  0.3525
   97SAPS    HA 9627   4.922   3.558   6.874  4.9123 -0.2452  0.5695
   97SAPS    HB 9628   4.806   3.458   6.789 -0.6887  1.6282 -0.0565
   97SAPS    C2 9629   4.978   3.346   6.843 -0.0226 -0.0595  0.2694
   97SAPS    HS 9630   4.942   3.325   6.946  2.0585 -0.1694  1.0292
   97SAPS   O21 9631   5.124   3.364   6.840 -0.2576 -0.1394  0.0009
   97SAPS   C21 9632   5.184   3.429   6.937  0.0259  0.1182  0.6264
   97SAPS   O22 9633   5.128   3.492   7.027 -0.6278 -0.0368  0.0508
   97SAPS   C22 9634   5.338   3.419   6.919  0.7498 -0.9175 -0.1456
   97SAPS   H2R 9635   5.358   3.390   6.814 -0.5500  2.6640 -1.5316
   97SAPS   H2S 9636   5.375   3.524   6.925  0.4861 -0.7845 -0.7484
   97SAPS    C3 9637   4.942   3.224   6.757 -0.3794 -0.0210 -1.2160
   97SAPS    HX 9638   4.979   3.230   6.652 -0.8950 -2.6531 -1.6206
   97SAPS    HY 9639   4.831   3.219   6.754 -0.5560 -1.2711  2.3900
   97SAPS   O31 9640   4.983   3.094   6.805 -0.3238 -0.4451  0.1762
   97SAPS   C31 9641   5.088   3.046   6.746  0.4499 -0.3722  0.0153
   97SAPS   O32 9642   5.142   3.084   6.639  1.3620 -0.1102  0.0180
   97SAPS   C32 9643   5.140   2.936   6.825  0.0201  0.1826 -0.2134
   97SAPS   H2X 9644   5.247   2.953   6.847  0.6362 -0.8194 -2.2400
   97SAPS   H2Y 9645   5.125   2.852   6.754 -1.6429  0.3709 -0.1342
   97SAPS   C23 9646   5.399   3.336   7.026 -0.2847  0.4731 -0.1172
   97SAPS   H3R 9647   5.372   3.378   7.125  4.2393  0.0045  1.5277
   97SAPS   H3S 9648   5.509   3.350   7.018 -0.1441  0.5377  1.5207
   97SAPS   C24 9649   5.359   3.185   7.025  0.4456  0.5302  0.1593
   97SAPS   H4R 9650   5.352   3.150   6.920  1.0284 -0.7134  0.5167
   97SAPS   H4S 9651   5.259   3.168   7.069 -1.2257  1.4002 -2.9668
   97SAPS   C25 9652   5.460   3.076   7.078 -0.1246 -0.6789 -0.7530
   97SAPS   H5R 9653   5.497   3.005   7.003  0.2173 -3.0500  1.5234
   97SAPS   C26 9654   5.488   3.055   7.206 -0.5987 -0.6280  0.0634
   97SAPS   H6R 9655   5.570   2.990   7.240  1.0638  0.3337 -1.8543
   97SAPS   C27 9656   5.437   3.133   7.321  0.7444 -0.5291  0.5094
   97SAPS   H7R 9657   5.429   3.241   7.296  0.1040 -0.6762  0.0478
   97SAPS   H7S 9658   5.515   3.148   7.399 -1.4718 -0.3022  2.8198
   97SAPS   C28 9659   5.310   3.078   7.386 -0.5168  0.1485  0.0890
   97SAPS   H8R 9660   5.210   3.116   7.360 -1.0013 -0.8096  0.5150
   97SAPS   C29 9661   5.317   2.986   7.483 -1.0156 -0.0076 -0.1296
   97SAPS   H9R 9662   5.226   2.958   7.538  1.2469 -2.5037  2.7388
   97SAPS  C210 9663   5.445   2.914   7.536 -0.3201 -0.6935  0.4170
   97SAPS  H10R 9664   5.521   2.984   7.576  0.4842 -1.0064 -0.5070
   97SAPS  H10S 9665   5.491   2.860   7.451  0.8615  0.8036  0.0681
   97SAPS  C211 9666   5.421   2.802   7.641  0.0084 -0.4308  0.6975
   97SAPS  H11R 9667   5.411   2.696   7.613 -0.9289 -1.1877  3.4915
   97SAPS  C212 9668   5.413   2.823   7.774  0.6631 -0.7261 -0.2460
   97SAPS  H12R 9669   5.398   2.737   7.841  0.7656  0.9370  2.0225
   97SAPS  C213 9670   5.424   2.955   7.844  0.3231  0.0865  0.4701
   97SAPS  H13R 9671   5.324   2.989   7.877  0.6400  0.5564  0.9790
   97SAPS  H13S 9672   5.456   3.032   7.771  0.3505 -0.2328  0.1459
   97SAPS  C214 9673   5.523   2.966   7.955  0.3422  0.4037 -0.3557
   97SAPS  H14R 9674   5.625   2.933   7.928  1.6184  2.4502  1.6719
   97SAPS  C215 9675   5.508   3.013   8.076 -0.3762  0.0400  0.3038
   97SAPS  H15R 9676   5.596   3.024   8.140 -0.2906 -0.2166  0.2331
   97SAPS  C216 9677   5.382   3.069   8.125  0.3095 -0.4142 -0.1440
   97SAPS  H16R 9678   5.326   3.106   8.037  0.1046 -0.3860 -0.0038
   97SAPS  H16S 9679   5.396   3.154   8.195  3.0803 -0.2828 -0.7393
   97SAPS  C217 9680   5.273   2.972   8.180 -0.4584 -0.2099  0.8731
   97SAPS  H17R 9681   5.245   2.901   8.100 -1.3920  1.2468 -0.1328
   97SAPS  H17S 9682   5.185   3.036   8.203 -2.0106 -2.5594  1.8794
   97SAPS  C218 9683   5.311   2.903   8.307  0.3642 -0.1765  0.1461
   97SAPS  H18R 9684   5.219   2.880   8.364  0.7600 -0.1997  0.7863
   97SAPS  H18S 9685   5.360   2.973   8.379  0.9055 -1.6117  1.2399
   97SAPS  C219 9686   5.395   2.780   8.275  0.2306 -0.0409 -0.6710
   97SAPS  H19R 9687   5.495   2.802   8.231 -0.0860 -0.1838 -1.4821
   97SAPS  H19S 9688   5.340   2.718   8.201  0.1389  1.7009 -2.1288
   97SAPS  C220 9689   5.407   2.689   8.402 -0.4145 -0.2303 -0.4963
   97SAPS  H20R 9690   5.429   2.581   8.388 -3.7345 -1.1796  0.7158
   97SAPS  H20S 9691   5.305   2.685   8.446  0.4491  0.7396  1.7318
   97SAPS  H20T 9692   5.480   2.736   8.471  0.7221 -0.1065 -1.7362
   97SAPS   C33 9693   5.061   2.902   6.952  0.0657  0.1217  0.7122
   97SAPS   H3X 9694   4.955   2.878   6.932  0.1134  0.4867 -0.0362
   97SAPS   H3Y 9695   5.070   2.985   7.025  1.1171  0.7700 -0.1203
   97SAPS   C34 9696   5.119   2.772   7.004 -0.6252  0.2584  0.1940
   97SAPS   H4X 9697   5.224   2.772   6.966  0.0715 -0.0219  2.0271
   97SAPS   H4Y 9698   5.068   2.688   6.951 -0.1317  0.8462 -1.2651
   97SAPS   C35 9699   5.108   2.755   7.155 -0.1577 -0.1186 -0.1630
   97SAPS   H5X 9700   5.004   2.779   7.185 -0.8390 -1.6647 -1.1934
   97SAPS   H5Y 9701   5.177   2.821   7.211  0.7751 -0.8902 -0.3782
   97SAPS   C36 9702   5.147   2.622   7.209 -0.4658  0.4463 -0.0639
   97SAPS   H6X 9703   5.251   2.598   7.176  0.0682 -0.3244  2.0360
   97SAPS   H6Y 9704   5.086   2.536   7.173 -0.5592  0.5805 -0.2283
   97SAPS   C37 9705   5.153   2.633   7.359 -0.3003  0.1807  0.4738
   97SAPS   H7X 9706   5.058   2.676   7.396 -0.5910  0.2546 -0.3341
   97SAPS   H7Y 9707   5.244   2.687   7.392 -1.1616  3.2249 -1.7262
   97SAPS   C38 9708   5.159   2.494   7.438 -0.1894 -0.4989  0.9424
   97SAPS   H8X 9709   5.252   2.443   7.407 -1.4451 -0.9284 -2.4775
   97SAPS   H8Y 9710   5.066   2.437   7.418 -0.1731 -0.1276 -0.2423
   97SAPS   C39 9711   5.176   2.500   7.587 -0.1747  0.4818  0.4677
   97SAPS   H9X 9712   5.271   2.557   7.599 -0.3815  0.7006  1.1115
   97SAPS   H9Y 9713   5.198   2.396   7.617  1.7724  0.9238  0.7001
   97SAPS  C310 9714   5.057   2.560   7.668 -1.2239 -0.0578  0.4257
   97SAPS  H10X 9715   4.971   2.490   7.659 -1.9510  0.8401  0.1751
   97SAPS  H10Y 9716   5.036   2.657   7.618  0.3869 -0.0040 -0.2087
   97SAPS  C311 9717   5.091   2.581   7.814  0.2241 -0.1318  0.2959
   97SAPS  H11X 9718   5.018   2.652   7.857 -0.2230 -1.2403  1.4148
   97SAPS  H11Y 9719   5.189   2.633   7.825  0.6319 -0.3177 -1.9216
   97SAPS  C312 9720   5.079   2.455   7.901  0.1686  0.6583 -0.2240
   97SAPS  H12X 9721   5.148   2.390   7.844  2.7807  1.7755  1.4657
   97SAPS  H12Y 9722   4.978   2.413   7.885  0.1005  0.2820  1.0604
   97SAPS  C313 9723   5.097   2.475   8.052  0.3036  0.1034 -0.7275
   97SAPS  H13X 9724   5.033   2.559   8.086 -0.1931 -0.9473  1.0875
   97SAPS  H13Y 9725   5.204   2.494   8.075  0.3469 -1.3276  0.4081
   97SAPS  C314 9726   5.045   2.347   8.126 -0.2459  0.0250  0.6374
   97SAPS  H14X 9727   5.108   2.264   8.087  0.1838  0.8067 -0.3840
   97SAPS  H14Y 9728   4.943   2.332   8.086 -0.2568  2.0322 -0.1808
   97SAPS  C315 9729   5.053   2.363   8.285  0.0158  0.3583  0.2329
   97SAPS  H15X 9730   4.987   2.448   8.315 -0.7398 -0.6460  1.5334
   97SAPS  H15Y 9731   5.154   2.370   8.328  0.8442 -1.3595 -1.3118
   97SAPS  C316 9732   4.983   2.241   8.362 -0.7857  0.5410  1.0584
   97SAPS  H16X 9733   5.047   2.152   8.350  0.1230  0.7592  3.6547
   97SAPS  H16Y 9734   4.879   2.224   8.327 -0.4543 -2.3382  1.2759
   97SAPS  C317 9735   4.960   2.277   8.515 -0.0963 -0.2955  0.4170
   97SAPS  H17X 9736   4.910   2.376   8.517  2.6925  1.2797 -1.2089
   97SAPS  H17Y 9737   5.060   2.291   8.561 -0.3188  0.4046  0.6910
   97SAPS  C318 9738   4.888   2.163   8.590 -0.5299 -0.4724 -0.0863
   97SAPS  H18X 9739   4.892   2.198   8.695 -1.1643 -1.2619  0.2169
   97SAPS  H18Y 9740   4.938   2.063   8.582 -0.3420 -0.3085 -1.0767
   97SAPS  H18Z 9741   4.785   2.153   8.551 -0.5102 -1.0803  0.0074
   98SAPS     N 9742   5.314   1.879   5.747  0.3157 -0.4449 -0.3278
   98SAPS   HN1 9743   5.367   1.792   5.766 -0.0296 -0.4418  0.7746
   98SAPS   HN2 9744   5.326   1.907   5.648 -0.4880 -0.0353 -0.3147
   98SAPS   HN3 9745   5.360   1.945   5.814  3.4829 -0.4620 -2.2934
   98SAPS   C12 9746   5.166   1.847   5.771 -0.6343 -0.0664 -0.2762
   98SAPS  H12A 9747   5.108   1.887   5.689 -0.3628 -1.8224 -1.3896
   98SAPS   C13 9748   5.152   1.692   5.773  0.3277 -0.7764  0.5220
   98SAPS  O13A 9749   5.242   1.614   5.727 -0.4123 -0.2376 -0.2804
   98SAPS  O13B 9750   5.037   1.652   5.786  0.0286  0.7535 -0.0595
   98SAPS   C11 9751   5.131   1.915   5.907  0.2070  0.9726  1.3781
   98SAPS  H11A 9752   5.184   1.888   6.001  1.2683  0.4869  0.6605
   98SAPS  H11B 9753   5.026   1.885   5.925  0.5104  0.2060  1.9135
   98SAPS     P 9754   5.099   2.163   5.983 -0.1753 -0.1364 -0.0079
   98SAPS   O13 9755   5.156   2.294   5.936  0.6333 -0.2846 -0.6121
   98SAPS   O14 9756   4.954   2.153   5.989  0.4370 -0.4270 -0.3232
   98SAPS   O12 9757   5.149   2.050   5.880  0.3623  0.1368  0.1340
   98SAPS   O11 9758   5.170   2.122   6.119  0.4420 -0.4291 -0.1521
   98SAPS    C1 9759   5.308   2.093   6.133 -0.1974 -0.4089  0.6134
   98SAPS    HA 9760   5.337   1.985   6.130  3.6529  0.4616 -2.6736
   98SAPS    HB 9761   5.368   2.136   6.051  0.8715  1.1672  2.1496
   98SAPS    C2 9762   5.353   2.176   6.254 -0.3043 -0.9311 -0.5319
   98SAPS    HS 9763   5.464   2.172   6.264 -0.1411  0.5306 -1.5618
   98SAPS   O21 9764   5.292   2.124   6.373  0.0231 -0.5680  0.2209
   98SAPS   C21 9765   5.340   2.009   6.415 -0.3432 -0.0204 -0.4694
   98SAPS   O22 9766   5.442   1.956   6.368 -0.0458 -0.4837 -0.0370
   98SAPS   C22 9767   5.238   1.953   6.511 -0.4415 -0.4094  0.6602
   98SAPS   H2R 9768   5.171   2.039   6.532  0.0360  0.8792 -2.4552
   98SAPS   H2S 9769   5.185   1.879   6.447  0.3556 -0.5699  0.1728
   98SAPS    C3 9770   5.336   2.327   6.234  0.2509 -0.1588  0.0355
   98SAPS    HX 9771   5.242   2.335   6.176  0.1666 -4.1742 -0.6437
   98SAPS    HY 9772   5.414   2.366   6.166 -1.2362  1.7002 -0.6983
   98SAPS   O31 9773   5.344   2.403   6.354 -0.4952 -0.0885  0.4326
   98SAPS   C31 9774   5.283   2.517   6.353 -0.0320  1.2927 -0.1879
   98SAPS   O32 9775   5.211   2.563   6.265  0.0108 -0.3138  0.4136
   98SAPS   C32 9776   5.285   2.591   6.497  0.1077  0.1419 -0.3370
   98SAPS   H2X 9777   5.193   2.653   6.488  0.0651  0.6906  2.7956
   98SAPS   H2Y 9778   5.372   2.658   6.509 -0.5227  1.2740 -1.8098
   98SAPS   C23 9779   5.289   1.901   6.640  0.0107  0.3314  0.0199
   98SAPS   H3R 9780   5.209   1.920   6.716  1.3417  2.6007  0.9575
   98SAPS   H3S 9781   5.378   1.951   6.683 -0.9203  1.6146  0.5466
   98SAPS   C24 9782   5.338   1.753   6.618 -0.3550  0.0005  0.2579
   98SAPS   H4R 9783   5.426   1.759   6.551  0.4928  2.3614  1.4770
   98SAPS   H4S 9784   5.261   1.691   6.568 -1.4921  1.3603  0.2549
   98SAPS   C25 9785   5.387   1.689   6.747 -0.7028  0.0623  0.1991
   98SAPS   H5R 9786   5.495   1.673   6.764 -0.8088  1.0200  2.0854
   98SAPS   C26 9787   5.304   1.664   6.849 -0.7661  0.3934 -0.1343
   98SAPS   H6R 9788   5.355   1.639   6.943 -1.3385  0.0258  0.0848
   98SAPS   C27 9789   5.157   1.682   6.865 -0.0251  0.1833 -0.8682
   98SAPS   H7R 9790   5.116   1.723   6.770  0.1071  2.2954 -0.0781
   98SAPS   H7S 9791   5.129   1.765   6.933 -0.6272 -1.7266  1.3262
   98SAPS   C28 9792   5.091   1.552   6.881  0.0896 -0.0263  0.4889
   98SAPS   H8R 9793   5.099   1.470   6.808 -0.7978 -1.7135  2.1946
   98SAPS   C29 9794   5.031   1.518   6.999 -0.3334 -0.5248 -0.5521
   98SAPS   H9R 9795   4.971   1.426   7.011 -1.3699  0.3209  1.1549
   98SAPS  C210 9796   5.032   1.603   7.124  0.2009  0.2045 -0.4555
   98SAPS  H10R 9797   4.930   1.645   7.136 -0.7799 -2.6497  2.8170
   98SAPS  H10S 9798   5.107   1.685   7.120  0.8860 -0.3777  0.1845
   98SAPS  C211 9799   5.056   1.509   7.240 -0.9297  0.8147 -0.4819
   98SAPS  H11R 9800   5.110   1.416   7.217 -2.7964 -0.1646 -1.1388
   98SAPS  C212 9801   5.014   1.529   7.362  0.2359  0.0763  0.4005
   98SAPS  H12R 9802   5.040   1.460   7.444  0.1452  1.3240  1.5108
   98SAPS  C213 9803   4.942   1.648   7.419  0.1824 -1.0654  0.5431
   98SAPS  H13R 9804   4.844   1.610   7.455 -0.1185 -1.0159 -0.2081
   98SAPS  H13S 9805   4.900   1.708   7.336 -3.8107 -3.5192  0.5314
   98SAPS  C214 9806   5.001   1.734   7.525  0.6143 -0.0767  0.0659
   98SAPS  H14R 9807   4.985   1.843   7.517 -1.0212 -0.1744  1.4592
   98SAPS  C215 9808   5.047   1.695   7.645  0.2070 -0.4726 -0.2523
   98SAPS  H15R 9809   5.075   1.770   7.721  0.0652 -0.2989 -0.3716
   98SAPS  C216 9810   5.047   1.557   7.700  0.5507 -0.6996 -0.7020
   98SAPS  H16R 9811   4.996   1.482   7.636 -0.1830 -2.4392  1.7737
   98SAPS  H16S 9812   4.985   1.555   7.791 -2.5252 -0.1774 -2.6399
   98SAPS  C217 9813   5.198   1.520   7.722 -1.2023  0.8432 -0.0979
   98SAPS  H17R 9814   5.265   1.564   7.645 -1.3840 -0.0380 -0.7783
   98SAPS  H17S 9815   5.212   1.412   7.700 -0.0941  0.4892  2.1102
   98SAPS  C218 9816   5.243   1.556   7.863 -1.1208  0.3831  0.1411
   98SAPS  H18R 9817   5.218   1.664   7.860 -0.0223  0.6339 -0.3426
   98SAPS  H18S 9818   5.354   1.552   7.865 -1.1292  0.2091  0.3253
   98SAPS  C219 9819   5.183   1.460   7.969 -0.3163  0.3695  0.0217
   98SAPS  H19R 9820   5.247   1.372   7.946 -1.6593 -0.8699  0.8725
   98SAPS  H19S 9821   5.079   1.433   7.940  0.2886 -0.6876 -1.2487
   98SAPS  C220 9822   5.198   1.497   8.118  1.0411 -0.5427  1.0234
   98SAPS  H20R 9823   5.151   1.414   8.175 -0.4810 -0.1760  0.3499
   98SAPS  H20S 9824   5.147   1.596   8.124 -3.6468 -2.4911 -1.3644
   98SAPS  H20T 9825   5.306   1.500   8.143  1.0289  1.0795  0.9732
   98SAPS   C33 9826   5.277   2.507   6.623 -0.1246  0.2447 -0.6434
   98SAPS   H3X 9827   5.255   2.570   6.711 -1.3590 -2.3919  1.0349
   98SAPS   H3Y 9828   5.375   2.456   6.638 -0.7875 -0.3725  2.0934
   98SAPS   C34 9829   5.174   2.389   6.613 -0.3046 -0.2748  0.1524
   98SAPS   H4X 9830   5.165   2.347   6.510 -0.2003 -0.4906  0.2303
   98SAPS   H4Y 9831   5.083   2.447   6.640 -1.1933 -1.4841 -0.1317
   98SAPS   C35 9832   5.191   2.275   6.715 -0.0514 -0.3509 -0.9074
   98SAPS   H5X 9833   5.280   2.216   6.687  1.3585  1.2679 -0.0012
   98SAPS   H5Y 9834   5.105   2.205   6.716 -0.4626  0.1450 -0.2510
   98SAPS   C36 9835   5.214   2.314   6.864  0.1769 -0.3572  0.4455
   98SAPS   H6X 9836   5.128   2.375   6.898  1.4821 -0.0007  3.3944
   98SAPS   H6Y 9837   5.307   2.375   6.866 -0.3358  0.4629  0.0338
   98SAPS   C37 9838   5.223   2.198   6.967  0.6012 -0.2131 -0.6165
   98SAPS   H7X 9839   5.304   2.126   6.942  1.5786 -0.0366  1.7529
   98SAPS   H7Y 9840   5.121   2.153   6.957 -0.7892  2.7676 -0.8950
   98SAPS   C38 9841   5.242   2.245   7.103 -0.2492  0.1935 -0.5477
   98SAPS   H8X 9842   5.175   2.327   7.137  0.8259  0.6856  0.4562
   98SAPS   H8Y 9843   5.343   2.290   7.107  0.0956 -0.5421 -0.9312
   98SAPS   C39 9844   5.225   2.139   7.214  0.2625 -0.1766 -0.1119
   98SAPS   H9X 9845   5.119   2.110   7.224  0.8815 -1.7189  2.7209
   98SAPS   H9Y 9846   5.257   2.175   7.314  0.7008  0.8822 -0.6089
   98SAPS  C310 9847   5.308   2.002   7.183 -0.2869  0.2340 -0.3192
   98SAPS  H10X 9848   5.413   2.034   7.168  0.0359  0.8026  2.4871
   98SAPS  H10Y 9849   5.265   1.955   7.092 -0.7351 -0.5314  0.2697
   98SAPS  C311 9850   5.300   1.902   7.296 -0.7059 -0.0098  0.2724
   98SAPS  H11X 9851   5.197   1.866   7.317 -0.2990 -2.1242 -1.0989
   98SAPS  H11Y 9852   5.335   1.961   7.384 -1.9622  1.9279 -0.4659
   98SAPS  C312 9853   5.387   1.777   7.252 -0.1611 -0.0254 -0.1110
   98SAPS  H12X 9854   5.491   1.816   7.240  1.2676 -3.2726  0.5416
   98SAPS  H12Y 9855   5.349   1.740   7.154  0.6669 -0.6632 -0.2025
   98SAPS  C313 9856   5.390   1.668   7.359  0.6673 -0.2181  0.2227
   98SAPS  H13X 9857   5.288   1.639   7.393  1.7068 -3.1922  1.1577
   98SAPS  H13Y 9858   5.434   1.709   7.452  1.2827  0.6221 -0.4271
   98SAPS  C314 9859   5.472   1.542   7.317  0.4652 -0.3052 -0.5902
   98SAPS  H14X 9860   5.572   1.571   7.280  0.5875  2.9322  1.8746
   98SAPS  H14Y 9861   5.421   1.494   7.230 -0.6215  2.4673 -1.5932
   98SAPS  C315 9862   5.502   1.432   7.421 -0.4437  0.4564 -0.5014
   98SAPS  H15X 9863   5.553   1.355   7.359  1.9328  1.1854  0.4372
   98SAPS  H15Y 9864   5.412   1.378   7.456  1.0797 -2.4684 -0.7260
   98SAPS  C316 9865   5.592   1.466   7.539 -0.4124  0.4548  0.0280
   98SAPS  H16X 9866   5.548   1.558   7.583 -1.5593 -0.8184  1.6574
   98SAPS  H16Y 9867   5.694   1.496   7.507 -0.7244  1.1221 -0.3515
   98SAPS  C317 9868   5.603   1.342   7.631  0.2008  0.3792 -0.1344
   98SAPS  H17X 9869   5.628   1.254   7.569  0.2327 -0.4041  0.9696
   98SAPS  H17Y 9870   5.503   1.325   7.676  0.2784  0.8383  0.2255
   98SAPS  C318 9871   5.709   1.343   7.742 -0.1083  0.0138 -0.2967
   98SAPS  H18X 9872   5.701   1.256   7.811  0.0376  1.9060  2.2454
   98SAPS  H18Y 9873   5.689   1.437   7.798  1.3554  2.2092 -3.2437
   98SAPS  H18Z 9874   5.815   1.344   7.711 -0.0623  1.4499 -0.1433
   99SAPS     N 9875   5.771   0.228   6.015  0.0304  0.0852 -0.0086
   99SAPS   HN1 9876   5.817   0.242   6.107  0.5243 -0.2362 -0.1983
   99SAPS   HN2 9877   5.672   0.250   6.037  0.6165  0.8363  2.0851
   99SAPS   HN3 9878   5.779   0.127   5.993 -0.8310  0.0019  0.0451
   99SAPS   C12 9879   5.829   0.324   5.911  0.8847  0.2709  0.2417
   99SAPS  H12A 9880   5.937   0.325   5.909  0.8821  1.3549 -0.2761
   99SAPS   C13 9881   5.773   0.284   5.774  0.2916  0.3313  0.5866
   99SAPS  O13A 9882   5.666   0.217   5.765 -0.4087 -0.3497  0.1531
   99SAPS  O13B 9883   5.816   0.342   5.669 -0.6526  0.2056  0.4054
   99SAPS   C11 9884   5.767   0.472   5.937 -0.1378  0.1776 -0.6244
   99SAPS  H11A 9885   5.660   0.452   5.961  0.5828  0.0456  2.9480
   99SAPS  H11B 9886   5.789   0.532   5.846  0.4590  0.2977 -0.4038
   99SAPS     P 9887   5.768   0.660   6.117  0.2453 -0.2089  0.1410
   99SAPS   O13 9888   5.880   0.735   6.177 -0.7340  0.1202  0.1859
   99SAPS   O14 9889   5.665   0.733   6.039 -0.2975 -0.2012 -0.7224
   99SAPS   O12 9890   5.838   0.554   6.027  0.1671  0.3607 -0.1351
   99SAPS   O11 9891   5.703   0.574   6.227  0.6292  0.3634 -0.0179
   99SAPS    C1 9892   5.629   0.640   6.334  0.1789  0.2694 -0.8674
   99SAPS    HA 9893   5.576   0.734   6.306 -0.6790  1.1092  2.9833
   99SAPS    HB 9894   5.557   0.570   6.381  0.1665  0.4598 -0.6007
   99SAPS    C2 9895   5.721   0.674   6.462  0.1537  0.0084  0.1614
   99SAPS    HS 9896   5.786   0.756   6.426 -0.3040  2.1978  3.9000
   99SAPS   O21 9897   5.790   0.552   6.494  0.1554 -0.1777  0.1068
   99SAPS   C21 9898   5.912   0.570   6.542 -0.2574 -0.5061 -0.5630
   99SAPS   O22 9899   5.981   0.672   6.535 -0.7418  0.8263  0.0635
   99SAPS   C22 9900   5.952   0.431   6.585 -0.0644  0.0197 -0.0993
   99SAPS   H2R 9901   5.870   0.357   6.598  1.5679 -1.6581  1.0364
   99SAPS   H2S 9902   6.017   0.390   6.505  1.3836  1.3839  0.3179
   99SAPS    C3 9903   5.656   0.736   6.587 -0.5837  0.6736 -0.3198
   99SAPS    HX 9904   5.595   0.651   6.624 -0.4878  0.5205 -0.5139
   99SAPS    HY 9905   5.588   0.820   6.565 -0.5240  1.7571  2.9996
   99SAPS   O31 9906   5.749   0.766   6.695 -0.1459  0.1281  0.3542
   99SAPS   C31 9907   5.770   0.895   6.730 -0.1533  0.2339 -0.2299
   99SAPS   O32 9908   5.738   0.992   6.664 -0.2393 -0.0372  0.7183
   99SAPS   C32 9909   5.870   0.886   6.846  0.4475 -0.2328  0.0227
   99SAPS   H2X 9910   5.968   0.905   6.798 -0.0432 -0.6800 -1.1926
   99SAPS   H2Y 9911   5.876   0.787   6.895 -4.2076 -0.6837  0.1551
   99SAPS   C23 9912   6.035   0.434   6.716  0.6053 -0.0643 -1.0309
   99SAPS   H3R 9913   6.115   0.511   6.713  0.4682  0.1198 -0.2465
   99SAPS   H3S 9914   6.082   0.334   6.733 -0.7035 -0.3659  1.1949
   99SAPS   C24 9915   5.934   0.461   6.834  0.4354  0.4774  0.5516
   99SAPS   H4R 9916   5.857   0.535   6.802  1.5807  0.7166 -1.9556
   99SAPS   H4S 9917   5.992   0.517   6.910  1.6555  0.2591 -0.1854
   99SAPS   C25 9918   5.870   0.339   6.891 -0.7119  0.6623 -0.1840
   99SAPS   H5R 9919   5.784   0.302   6.833  1.1959 -1.9158 -1.5542
   99SAPS   C26 9920   5.894   0.285   7.014  0.6404 -0.8187  0.2264
   99SAPS   H6R 9921   5.839   0.192   7.034 -0.1108 -0.4180  0.0498
   99SAPS   C27 9922   6.004   0.325   7.111  0.3573 -0.1940 -0.1737
   99SAPS   H7R 9923   6.040   0.428   7.093 -0.9782  0.4923  0.8700
   99SAPS   H7S 9924   6.089   0.257   7.086  1.7739  1.4421  0.0424
   99SAPS   C28 9925   5.961   0.328   7.254 -0.5350 -0.1985  0.1026
   99SAPS   H8R 9926   5.871   0.381   7.287 -0.5701 -0.0011 -0.3116
   99SAPS   C29 9927   6.044   0.297   7.353  0.2760 -0.3149 -0.2290
   99SAPS   H9R 9928   6.009   0.314   7.456 -2.0545 -0.9208 -0.8635
   99SAPS  C210 9929   6.186   0.255   7.336  0.3370 -0.0724  0.4326
   99SAPS  H10R 9930   6.247   0.295   7.420  0.3590 -0.8501  0.7909
   99SAPS  H10S 9931   6.220   0.309   7.245 -1.1183  0.0881 -0.0436
   99SAPS  C211 9932   6.184   0.101   7.321  0.0278 -0.1973  0.1706
   99SAPS  H11R 9933   6.180   0.068   7.216 -1.2487 -1.8316  0.6950
   99SAPS  C212 9934   6.187   0.009   7.423 -1.0523 -0.3352 -0.0192
   99SAPS  H12R 9935   6.190  -0.097   7.393  1.9452 -0.6256  0.9698
   99SAPS  C213 9936   6.187   0.021   7.578  0.3491  0.2142  0.5607
   99SAPS  H13R 9937   6.106  -0.036   7.629  2.3392 -0.9607  2.5828
   99SAPS  H13S 9938   6.174   0.130   7.591  3.5976  1.0827 -2.0982
   99SAPS  C214 9939   6.315  -0.031   7.635 -0.5229  0.2987  0.8522
   99SAPS  H14R 9940   6.372  -0.094   7.566 -1.7870  0.4466 -0.3527
   99SAPS  C215 9941   6.361  -0.013   7.759 -0.0938  0.6309 -0.2434
   99SAPS  H15R 9942   6.456  -0.064   7.784  0.3167  0.2312 -2.4335
   99SAPS  C216 9943   6.291   0.061   7.874  0.6528  0.0394  0.7564
   99SAPS  H16R 9944   6.262   0.165   7.847  1.0979 -0.1421 -0.4886
   99SAPS  H16S 9945   6.371   0.071   7.950  1.9962  3.2632 -0.8442
   99SAPS  C217 9946   6.170  -0.010   7.930  0.5849  0.7254 -0.1213
   99SAPS  H17R 9947   6.204  -0.106   7.975  0.6461  0.5179 -0.6039
   99SAPS  H17S 9948   6.097  -0.032   7.849  0.0320 -0.5754  0.7084
   99SAPS  C218 9949   6.091   0.065   8.037 -0.1129  0.4138  0.0907
   99SAPS  H18R 9950   5.999   0.006   8.057  0.1229  0.7422  2.4706
   99SAPS  H18S 9951   6.064   0.168   8.004 -4.3188  0.2183  2.3568
   99SAPS  C219 9952   6.176   0.079   8.168 -0.1874  0.7483 -0.2618
   99SAPS  H19R 9953   6.099   0.136   8.225 -1.9948 -1.0717 -0.7541
   99SAPS  H19S 9954   6.265   0.144   8.157 -0.4616  1.0545 -0.7256
   99SAPS  C220 9955   6.196  -0.051   8.237 -0.1023 -0.5658 -0.0952
   99SAPS  H20R 9956   6.103  -0.110   8.223 -0.4667  0.3630 -1.7760
   99SAPS  H20S 9957   6.213  -0.028   8.344  0.8459 -0.7302 -0.2033
   99SAPS  H20T 9958   6.273  -0.113   8.185 -1.2428 -0.6648 -1.7406
   99SAPS   C33 9959   5.837   0.989   6.952 -1.0384  0.0848  0.2616
   99SAPS   H3X 9960   5.828   1.095   6.919 -0.9157  1.2381  3.6066
   99SAPS   H3Y 9961   5.926   0.990   7.019 -0.5468 -1.0468 -0.3421
   99SAPS   C34 9962   5.707   0.961   7.034 -0.0150  0.0784 -0.2713
   99SAPS   H4X 9963   5.621   0.971   6.965 -0.8268  0.8054  0.8027
   99SAPS   H4Y 9964   5.693   1.046   7.104  0.6934 -0.1405  0.1456
   99SAPS   C35 9965   5.702   0.838   7.123  0.8081 -0.0697  0.9731
   99SAPS   H5X 9966   5.723   0.748   7.061  0.8578  2.2869 -2.7587
   99SAPS   H5Y 9967   5.599   0.831   7.163  0.9041 -0.4420  1.1536
   99SAPS   C36 9968   5.804   0.839   7.226 -0.7430 -0.9308 -0.5593
   99SAPS   H6X 9969   5.777   0.929   7.285  1.3596  0.3532 -1.4324
   99SAPS   H6Y 9970   5.907   0.864   7.192 -0.9320  0.9978  0.2055
   99SAPS   C37 9971   5.820   0.719   7.326 -0.5264  0.1589  0.3244
   99SAPS   H7X 9972   5.898   0.748   7.399  0.6241  0.6246 -1.0419
   99SAPS   H7Y 9973   5.842   0.634   7.258 -4.5294 -1.3199  0.6088
   99SAPS   C38 9974   5.694   0.692   7.398  0.4848 -0.4504 -0.1837
   99SAPS   H8X 9975   5.715   0.598   7.453  1.3061  0.6310  1.4481
   99SAPS   H8Y 9976   5.620   0.679   7.317  0.4281  3.4623 -0.9601
   99SAPS   C39 9977   5.658   0.802   7.504  0.3349  0.0189  0.0389
   99SAPS   H9X 9978   5.660   0.898   7.449 -1.1377 -0.4174 -0.8381
   99SAPS   H9Y 9979   5.730   0.821   7.586 -0.3120  0.2880  0.5571
   99SAPS  C310 9980   5.524   0.788   7.572  0.0824 -0.1936 -1.1591
   99SAPS  H10X 9981   5.544   0.718   7.655  2.6749  1.4041 -0.3394
   99SAPS  H10Y 9982   5.449   0.743   7.504  0.1059 -0.7785 -0.7996
   99SAPS  C311 9983   5.473   0.921   7.641  0.1758  0.2288  0.0263
   99SAPS  H11X 9984   5.378   0.887   7.687 -0.1368 -0.5672 -1.1733
   99SAPS  H11Y 9985   5.443   0.995   7.564  0.5600 -0.4258 -0.7590
   99SAPS  C312 9986   5.567   0.985   7.741 -0.0803 -0.0117  0.3120
   99SAPS  H12X 9987   5.526   1.083   7.775 -0.5847 -0.7113  1.8083
   99SAPS  H12Y 9988   5.665   1.004   7.692 -0.1062  0.9922  0.6206
   99SAPS  C313 9989   5.605   0.906   7.867  0.1736 -0.5699  0.1562
   99SAPS  H13X 9990   5.667   0.977   7.926 -3.7868 -0.6039  5.0186
   99SAPS  H13Y 9991   5.673   0.822   7.840  1.1018  0.0561  0.4755
   99SAPS  C314 9992   5.493   0.854   7.948  0.2478 -0.2334 -0.3087
   99SAPS  H14X 9993   5.429   0.784   7.890 -0.8367  0.7133 -0.2854
   99SAPS  H14Y 9994   5.428   0.936   7.985  1.1583  0.5386 -0.3829
   99SAPS  C315 9995   5.547   0.789   8.070 -0.1423  0.4911  0.0423
   99SAPS  H15X 9996   5.627   0.849   8.120 -0.3226  0.4949  0.3305
   99SAPS  H15Y 9997   5.586   0.689   8.041 -3.1290 -0.8457  0.2405
   99SAPS  C316 9998   5.446   0.762   8.186 -0.6225 -0.6064  0.3571
   99SAPS  H16X 9999   5.373   0.685   8.151 -1.6666  0.9762 -1.1112
   99SAPS  H16Y10000   5.394   0.857   8.209  0.7408  0.1102  0.5921
   99SAPS  C31710001   5.512   0.709   8.312 -0.3541 -0.2530  0.3798
   99SAPS  H17X10002   5.552   0.796   8.369  1.5758 -1.3447  0.7689
   99SAPS  H17Y10003   5.597   0.655   8.266  0.1971  1.3301 -0.5220
   99SAPS  C31810004   5.429   0.614   8.397  0.6519  0.5200  0.3431
   99SAPS  H18X10005   5.378   0.539   8.332  1.4915 -1.6958  2.1253
   99SAPS  H18Y10006   5.350   0.670   8.452  0.2182 -0.0975  0.3524
   99SAPS  H18Z10007   5.497   0.559   8.465  0.4182  1.1025  1.0661
  100SAPS     N10008   6.498   2.626   6.086 -0.0093 -0.3987 -0.4497
  100SAPS   HN110009   6.540   2.581   6.002  0.8625 -0.0281 -0.2197
  100SAPS   HN210010   6.565   2.603   6.162 -0.3653  0.4046  0.1240
  100SAPS   HN310011   6.406   2.580   6.103  1.3380 -2.5840  1.4039
  100SAPS   C1210012   6.480   2.770   6.059  0.2200 -0.3738 -0.2362
  100SAPS  H12A10013   6.580   2.800   6.029  0.0080 -0.2801 -0.8697
  100SAPS   C1310014   6.386   2.797   5.931 -0.8792 -0.1571 -0.5417
  100SAPS  O13A10015   6.350   2.698   5.869  0.1040 -0.5112  0.1014
  100SAPS  O13B10016   6.403   2.909   5.871 -0.5355 -0.3919 -0.2104
  100SAPS   C1110017   6.418   2.843   6.184  0.1595  0.0485  0.5341
  100SAPS  H11A10018   6.432   2.951   6.164  2.2098 -0.3552 -0.5168
  100SAPS  H11B10019   6.481   2.826   6.274 -0.1151 -0.2855  0.6623
  100SAPS     P10020   6.170   2.879   6.276 -0.0424 -0.0994  0.0303
  100SAPS   O1310021   6.166   3.013   6.217 -0.7316  0.3833  0.1412
  100SAPS   O1410022   6.042   2.802   6.269 -0.2392  1.1078  0.2221
  100SAPS   O1210023   6.283   2.792   6.206 -0.3928 -0.1968 -0.0933
  100SAPS   O1110024   6.224   2.904   6.426  0.2755 -0.4156  0.4513
  100SAPS    C110025   6.247   2.793   6.509 -0.4044  0.2403  0.1760
  100SAPS    HA10026   6.160   2.723   6.503  0.2078 -0.4380 -1.3098
  100SAPS    HB10027   6.334   2.727   6.490  2.2979  3.1794  1.5054
  100SAPS    C210028   6.249   2.816   6.664  0.0431  0.9465 -0.3367
  100SAPS    HS10029   6.233   2.715   6.707  0.6015  0.2632 -1.6833
  100SAPS   O2110030   6.143   2.903   6.707 -0.1536 -0.6239  0.2861
  100SAPS   C2110031   6.095   2.884   6.822  0.3466 -0.7452 -0.6961
  100SAPS   O2210032   6.099   2.785   6.895  0.0052  0.0436  0.0598
  100SAPS   C2210033   6.042   3.019   6.876  0.4840 -0.2328 -0.3229
  100SAPS   H2R10034   6.131   3.086   6.873 -0.7346  1.4459 -0.1341
  100SAPS   H2S10035   5.966   3.067   6.811 -1.0020 -0.6201  1.0755
  100SAPS    C310036   6.391   2.867   6.707  0.4347  0.3137 -0.3577
  100SAPS    HX10037   6.406   2.970   6.668 -1.4172  1.3646  1.5210
  100SAPS    HY10038   6.471   2.810   6.654  0.2754  1.2417 -1.6331
  100SAPS   O3110039   6.416   2.872   6.846  0.7508  0.0629  0.7026
  100SAPS   C3110040   6.443   2.760   6.915 -0.4539  0.9171 -0.1342
  100SAPS   O3210041   6.445   2.646   6.865 -0.2582 -0.3704  0.8020
  100SAPS   C3210042   6.454   2.793   7.065  0.0304 -0.7458 -0.1352
  100SAPS   H2X10043   6.359   2.843   7.092  0.0002 -1.1777  0.5944
  100SAPS   H2Y10044   6.524   2.879   7.067 -0.7861 -0.0750  2.1582
  100SAPS   C2310045   5.976   2.999   7.022 -0.0473  0.4024 -0.5055
  100SAPS   H3R10046   6.052   3.001   7.103 -1.9967  1.5321  1.4127
  100SAPS   H3S10047   5.924   2.901   7.023 -0.3596  0.5595  0.5886
  100SAPS   C2410048   5.875   3.109   7.055  0.2704 -0.4174 -0.2532
  100SAPS   H4R10049   5.820   3.082   7.148  0.7011  2.2387  0.8679
  100SAPS   H4S10050   5.799   3.111   6.974 -0.1045 -0.7860  0.0892
  100SAPS   C2510051   5.941   3.242   7.085 -0.0289 -0.0072  0.1721
  100SAPS   H5R10052   6.018   3.278   7.015 -0.1291  2.9148  1.4333
  100SAPS   C2610053   5.894   3.336   7.170 -0.1111  0.3272  0.0390
  100SAPS   H6R10054   5.941   3.435   7.172 -0.3968  0.5354 -2.0456
  100SAPS   C2710055   5.773   3.333   7.264  0.5110 -0.2075 -0.0133
  100SAPS   H7R10056   5.699   3.259   7.226  2.1660 -1.7125 -0.4525
  100SAPS   H7S10057   5.725   3.433   7.258  1.9185  0.4279 -1.7892
  100SAPS   C2810058   5.823   3.293   7.401 -0.0615  0.2939  0.0916
  100SAPS   H8R10059   5.910   3.226   7.402 -0.4983 -0.2674  0.8515
  100SAPS   C2910060   5.773   3.334   7.518  0.5774  0.0400 -0.7400
  100SAPS   H9R10061   5.815   3.289   7.610 -2.5875 -0.2572  0.6677
  100SAPS  C21010062   5.655   3.430   7.533 -0.1406 -0.3841  0.2553
  100SAPS  H10R10063   5.596   3.432   7.439 -0.3353 -2.0335  0.3053
  100SAPS  H10S10064   5.689   3.530   7.566 -1.6056  0.1034  0.3569
  100SAPS  C21110065   5.554   3.379   7.635 -0.4865  1.1784  0.6887
  100SAPS  H11R10066   5.458   3.334   7.603 -0.5739  2.2662 -0.6830
  100SAPS  C21210067   5.574   3.369   7.769  0.6303 -0.2725 -0.6012
  100SAPS  H12R10068   5.489   3.341   7.832  0.3869  1.4388 -0.1153
  100SAPS  C21310069   5.699   3.404   7.844  0.0189 -0.1001  0.5392
  100SAPS  H13R10070   5.683   3.502   7.894 -1.8012 -0.1296  0.0870
  100SAPS  H13S10071   5.777   3.440   7.774 -0.1672  1.7331  1.2102
  100SAPS  C21410072   5.767   3.297   7.931 -0.1255  0.6448 -0.1636
  100SAPS  H14R10073   5.803   3.203   7.888  0.0326 -0.0851  1.4816
  100SAPS  C21510074   5.775   3.319   8.066 -0.6831  0.2409  0.3591
  100SAPS  H15R10075   5.836   3.250   8.126 -3.1747 -0.1724  2.6171
  100SAPS  C21610076   5.723   3.433   8.151  0.9777 -0.0453  0.3665
  100SAPS  H16R10077   5.627   3.482   8.125  0.0400  0.2822  3.8815
  100SAPS  H16S10078   5.782   3.525   8.133  2.5146 -0.9414  0.6056
  100SAPS  C21710079   5.716   3.409   8.299  0.0348  0.1756  0.6629
  100SAPS  H17R10080   5.676   3.501   8.349  0.2512  0.8724 -0.4140
  100SAPS  H17S10081   5.807   3.389   8.359  0.0692  0.5760  0.7504
  100SAPS  C21810082   5.602   3.311   8.331  0.0744 -0.4943 -0.2692
  100SAPS  H18R10083   5.623   3.209   8.294 -2.0226 -0.7718 -0.8169
  100SAPS  H18S10084   5.500   3.338   8.296  0.8686  0.3757 -2.0256
  100SAPS  C21910085   5.580   3.305   8.482 -1.1158  0.3173 -0.6376
  100SAPS  H19R10086   5.545   3.405   8.515 -1.6272  0.1270 -0.5943
  100SAPS  H19S10087   5.677   3.287   8.534 -2.1318  3.0921  2.5688
  100SAPS  C22010088   5.488   3.201   8.536 -0.0346 -0.1587 -0.2714
  100SAPS  H20R10089   5.521   3.094   8.536 -0.8092 -0.4187 -1.3169
  100SAPS  H20S10090   5.388   3.214   8.490  0.2812 -1.1234 -1.2913
  100SAPS  H20T10091   5.466   3.225   8.642 -0.4755 -0.5419 -0.2716
  100SAPS   C3310092   6.490   2.673   7.154  0.1654 -0.3640 -0.5131
  100SAPS   H3X10093   6.594   2.653   7.121  0.0473  0.2409 -1.2786
  100SAPS   H3Y10094   6.435   2.578   7.133 -0.6631  0.0932 -0.4596
  100SAPS   C3410095   6.483   2.709   7.303  0.1268  0.2724  0.3648
  100SAPS   H4X10096   6.543   2.802   7.301  0.6667 -0.0547  1.0254
  100SAPS   H4Y10097   6.537   2.629   7.359 -0.1810 -0.2860 -0.1190
  100SAPS   C3510098   6.344   2.753   7.352 -0.0805  0.9205 -0.2304
  100SAPS   H5X10099   6.274   2.668   7.362  0.4371  0.6327  1.0671
  100SAPS   H5Y10100   6.304   2.829   7.281 -0.9959  2.8060  2.1658
  100SAPS   C3610101   6.345   2.828   7.489 -0.3230  0.8346  0.0632
  100SAPS   H6X10102   6.260   2.900   7.498  0.1855  1.8652 -2.3836
  100SAPS   H6Y10103   6.438   2.889   7.488  0.0588  0.2482 -0.6696
  100SAPS   C3710104   6.344   2.730   7.603 -0.6137 -0.4447 -0.0040
  100SAPS   H7X10105   6.450   2.702   7.623 -0.5362  0.5699  1.1359
  100SAPS   H7Y10106   6.287   2.635   7.587  0.2599 -0.8571 -0.7039
  100SAPS   C3810107   6.291   2.785   7.737 -0.1419  0.1937 -0.1941
  100SAPS   H8X10108   6.181   2.798   7.731 -0.3608 -1.1658  0.5279
  100SAPS   H8Y10109   6.343   2.878   7.768 -1.3598  0.8400 -0.0389
  100SAPS   C3910110   6.312   2.683   7.853  0.1023  0.3065  0.7005
  100SAPS   H9X10111   6.420   2.657   7.853  0.0686  0.1674  0.7595
  100SAPS   H9Y10112   6.259   2.588   7.832  0.0322  0.5099 -0.1001
  100SAPS  C31010113   6.274   2.742   7.987  0.3270  0.5633 -0.0881
  100SAPS  H10X10114   6.341   2.827   8.009  1.3577 -0.7631  2.3958
  100SAPS  H10Y10115   6.282   2.670   8.071 -1.9608 -1.9960 -1.8597
  100SAPS  C31110116   6.135   2.814   7.993  0.3241 -0.5185  0.2268
  100SAPS  H11X10117   6.060   2.733   7.980 -0.5652  0.4563 -0.8649
  100SAPS  H11Y10118   6.128   2.897   7.919 -0.3437  2.1858  3.1244
  100SAPS  C31210119   6.116   2.891   8.128  0.3924  0.0881  0.2651
  100SAPS  H12X10120   6.173   2.986   8.133 -0.0353  0.3876 -0.4663
  100SAPS  H12Y10121   6.157   2.822   8.205 -1.1705 -0.6275  0.4952
  100SAPS  C31310122   5.964   2.906   8.154 -0.0208  0.1384 -0.1514
  100SAPS  H13X10123   5.904   2.824   8.110 -0.0466 -0.5993  1.2131
  100SAPS  H13Y10124   5.931   3.000   8.105 -1.0365 -1.9824 -4.0265
  100SAPS  C31410125   5.949   2.908   8.306 -0.2954 -0.9348  0.0250
  100SAPS  H14X10126   6.022   2.985   8.339  0.3336 -0.3430 -2.5524
  100SAPS  H14Y10127   5.981   2.812   8.352 -0.1134 -0.4010  1.0380
  100SAPS  C31510128   5.807   2.945   8.343 -0.1272  0.0211  0.3260
  100SAPS  H15X10129   5.751   2.869   8.285 -2.3210  2.5901 -1.1308
  100SAPS  H15Y10130   5.783   3.042   8.295  1.5074 -0.8483 -2.5251
  100SAPS  C31610131   5.773   2.933   8.495  0.8882  0.3125 -0.1564
  100SAPS  H16X10132   5.811   2.841   8.544  1.5154 -0.3967 -1.9115
  100SAPS  H16Y10133   5.662   2.936   8.504  0.6000 -2.7295 -1.4909
  100SAPS  C31710134   5.833   3.048   8.586 -0.3639  1.0088  0.7081
  100SAPS  H17X10135   5.827   3.147   8.537  0.1061  0.5563 -0.2937
  100SAPS  H17Y10136   5.941   3.025   8.577 -0.8400 -0.8643 -0.9205
  100SAPS  C31810137   5.781   3.050   8.724 -0.2057 -0.6468 -0.1917
  100SAPS  H18X10138   5.673   3.076   8.718 -0.3772 -1.3997 -0.4525
  100SAPS  H18Y10139   5.826   3.132   8.785 -2.7965 -1.7438  3.5543
  100SAPS  H18Z10140   5.799   2.952   8.773 -1.3211  0.0173  1.6213
  101OSM      N10141   6.575   1.971  10.936 -0.5201  0.1744 -0.1277
  101OSM    C1510142   6.622   1.828  10.955 -0.0830 -0.4288  1.3099
  101OSM   H15A10143   6.548   1.749  10.945  0.1564 -0.7463  1.9720
  101OSM   H15B10144   6.672   1.828  11.051 -0.9480  1.8997  1.8251
  101OSM   H15C10145   6.699   1.819  10.880 -1.3170  2.0839 -0.4100
  101OSM    C1410146   6.475   1.984  11.050  0.2365  0.4484 -0.7766
  101OSM   H14A10147   6.391   1.916  11.046  1.0469 -0.5117 -2.3902
  101OSM   H14B10148   6.442   2.087  11.046  0.0229  0.5281  1.5546
  101OSM   H14C10149   6.528   1.981  11.144 -0.2738  1.2631 -0.4538
  101OSM    C1310150   6.682   2.078  10.956  0.2409 -0.1280  0.5157
  101OSM   H13A10151   6.712   2.076  11.060 -1.1272  1.6398  1.0040
  101OSM   H13B10152   6.655   2.181  10.939  1.1361  0.0142 -0.0782
  101OSM   H13C10153   6.764   2.052  10.891 -0.2107 -1.1311  0.3225
  101OSM    C1210154   6.506   1.985  10.800  0.8776 -0.1056 -0.1179
  101OSM   H12A10155   6.573   1.966  10.718  1.7450 -1.0059  0.7803
  101OSM   H12B10156   6.485   2.090  10.783  1.1883  0.0916  0.6885
  101OSM    C1110157   6.368   1.899  10.757 -0.9440 -0.5646 -0.5232
  101OSM   H11A10158   6.378   1.788  10.757 -0.4318 -0.5200 -0.4002
  101OSM   H11B10159   6.361   1.928  10.650 -2.0495  2.6178  0.3005
  101OSM      P10160   6.180   2.078  10.813 -0.1436  0.0680  0.4135
  101OSM    O1310161   6.086   2.101  10.928 -0.1395  0.4530  0.4633
  101OSM    O1410162   6.283   2.182  10.797  0.4814  0.3759  0.7659
  101OSM    O1110163   6.108   2.068  10.673 -0.2866  0.5807  0.5667
  101OSM    O1210164   6.259   1.939  10.834 -0.8330  0.2495 -1.0850
  101OSM    C1S10165   5.992   1.978  10.664 -0.5677 -0.0294  0.1640
  101OSM    H1S10166   5.914   2.028  10.725 -0.4983  0.7843 -0.3943
  101OSM    H1T10167   6.015   1.877  10.705  0.8384  0.6453  1.1510
  101OSM     NF10168   5.818   1.933  10.487  0.2665  0.0302  0.4920
  101OSM    HNF10169   5.792   1.860  10.424 -1.7100  0.4615  0.7545
  101OSM    C2S10170   5.955   1.974  10.515  0.7038 -0.4018 -0.6811
  101OSM    H2S10171   5.959   2.081  10.488  2.3148 -0.0284  0.8401
  101OSM    C3S10172   6.064   1.888  10.438  0.2987 -0.0223 -0.3689
  101OSM    H3S10173   6.073   1.785  10.478 -0.9136  0.2255  0.6144
  101OSM     O310174   6.197   1.938  10.461  0.2611 -0.5470  0.0223
  101OSM    HO310175   6.190   2.014  10.520  0.8615 -0.6795  0.2641
  101OSM    C4S10176   6.042   1.868  10.291 -0.3503 -0.3547 -0.4786
  101OSM    H4S10177   6.101   1.940  10.233 -0.1451 -0.6952 -0.6893
  101OSM    C5S10178   5.961   1.780  10.233 -0.3746  0.5559  0.3553
  101OSM    H5S10179   5.894   1.725  10.300  0.0894 -0.7062 -0.1950
  101OSM    C6S10180   5.937   1.764  10.084 -0.5480  0.4098  0.1099
  101OSM    H6S10181   5.827   1.757  10.069 -0.7541 -0.5817  1.8209
  101OSM    H6T10182   5.988   1.670  10.056 -0.1849  0.6139  0.0835
  101OSM    C7S10183   5.983   1.872   9.982  0.2799  0.1144 -0.4088
  101OSM    H7S10184   6.093   1.888   9.989  0.3652 -0.0977 -1.2301
  101OSM    H7T10185   5.952   1.974  10.013 -0.0484 -0.3240  0.7579
  101OSM    C8S10186   5.940   1.848   9.838 -0.0042 -0.1872  0.2240
  101OSM    H8S10187   5.981   1.749   9.808 -0.1343 -0.4235  0.8245
  101OSM    H8T10188   5.992   1.914   9.766  1.2285 -0.8637  0.4670
  101OSM    C9S10189   5.789   1.869   9.807  0.1971  0.6686 -0.9755
  101OSM    H9S10190   5.764   1.971   9.843 -1.9648 -0.2738  0.4570
  101OSM    H9T10191   5.719   1.806   9.866 -1.3291  2.2441 -1.0323
  101OSM   C10S10192   5.749   1.852   9.662  0.3031 -0.0112  0.3924
  101OSM   H10S10193   5.825   1.907   9.602 -0.7543  0.6470 -0.3762
  101OSM   H10T10194   5.647   1.890   9.641  0.2164 -1.2050 -1.6188
  101OSM   C11S10195   5.752   1.703   9.621 -0.4062 -0.1391  0.1918
  101OSM   H11S10196   5.731   1.634   9.706  0.0188 -1.0358 -0.4178
  101OSM   H11T10197   5.856   1.680   9.589 -0.8887  1.1538 -2.5410
  101OSM   C12S10198   5.648   1.677   9.508 -0.2159 -0.4648 -0.3502
  101OSM   H12S10199   5.665   1.742   9.420 -1.4310  2.0156  1.1299
  101OSM   H12T10200   5.543   1.695   9.542  0.6667  1.8584  1.4383
  101OSM   C13S10201   5.654   1.529   9.459  0.1396 -0.1366 -0.5782
  101OSM   H13S10202   5.654   1.450   9.537 -0.2867 -0.4992 -0.9421
  101OSM   H13T10203   5.752   1.518   9.408  0.9702  2.0518  0.4061
  101OSM   C14S10204   5.547   1.505   9.352 -0.4107 -0.7253 -0.0292
  101OSM   H14S10205   5.577   1.579   9.275 -0.7438  0.8486  1.2980
  101OSM   H14T10206   5.450   1.532   9.397 -1.3924 -0.5031 -2.1683
  101OSM   C15S10207   5.544   1.364   9.286  0.1780 -0.0720  0.8653
  101OSM   H15S10208   5.538   1.282   9.360 -3.5132 -1.6000 -0.8631
  101OSM   H15T10209   5.642   1.350   9.236  0.1814  1.0912  0.5071
  101OSM   C16S10210   5.442   1.363   9.172  0.1268  0.0974 -0.4528
  101OSM   H16S10211   5.483   1.437   9.100  3.9745 -0.4408  0.9433
  101OSM   H16T10212   5.346   1.406   9.208 -0.2208 -1.0817  0.0760
  101OSM   C17S10213   5.429   1.231   9.089 -0.2396 -0.2075  0.3437
  101OSM   H17S10214   5.377   1.148   9.142  0.9220 -0.3373  1.3435
  101OSM   H17T10215   5.526   1.185   9.059 -0.1429  0.2255 -0.0115
  101OSM   C18S10216   5.349   1.263   8.955 -0.3195  0.2374  0.2425
  101OSM   H18S10217   5.265   1.330   8.981 -1.0236 -0.2291 -0.7623
  101OSM   H18T10218   5.331   1.164   8.907  1.5375 -0.3424  0.6226
  101OSM   H18U10219   5.417   1.330   8.898  0.7070 -0.9158  0.0606
  101OSM    C1F10220   5.719   1.981  10.556  0.6873 -0.1133 -0.2098
  101OSM     OF10221   5.721   2.088  10.621  0.4497  0.0909 -0.3846
  101OSM    C2F10222   5.588   1.901  10.551  0.4004  0.1207  0.2776
  101OSM    H2F10223   5.540   1.874  10.647 -1.2466 -2.3526 -1.1188
  101OSM    H2G10224   5.597   1.803  10.499 -1.9382 -0.5165  0.9390
  101OSM    C3F10225   5.477   1.978  10.472 -0.5771  0.1405  0.0347
  101OSM    H3F10226   5.454   2.074  10.523  1.4269  0.9693 -0.5224
  101OSM    H3G10227   5.386   1.915  10.472  0.4087 -1.3564 -0.5166
  101OSM    C4F10228   5.518   1.995  10.327  0.0439 -0.4881 -0.1365
  101OSM    H4F10229   5.555   1.893  10.300 -0.1523  0.2174 -3.5518
  101OSM    H4G10230   5.606   2.062  10.317  0.3120 -0.1693  3.3313
  101OSM    C5F10231   5.394   2.036  10.240  0.1237  0.3944 -0.4394
  101OSM    H5F10232   5.329   2.120  10.271  0.5353  0.8672 -0.8496
  101OSM    H5G10233   5.336   1.941  10.247  2.0432 -0.8412 -0.4508
  101OSM    C6F10234   5.443   2.044  10.090 -0.1742 -0.3666  0.0343
  101OSM    H6F10235   5.489   1.949  10.055 -1.3166 -0.2988 -1.8238
  101OSM    H6G10236   5.524   2.118  10.073  0.5801 -0.8875  1.2050
  101OSM    C7F10237   5.328   2.069   9.996  0.2367 -0.8594 -0.6424
  101OSM    H7F10238   5.280   2.167  10.014 -0.9506 -1.7502  1.4379
  101OSM    H7G10239   5.250   1.993  10.020  1.5813 -3.0726 -2.8489
  101OSM    C8F10240   5.366   2.062   9.844 -0.3342  0.3992  0.0933
  101OSM    H8F10241   5.278   2.092   9.783 -0.6590  1.7151  1.1583
  101OSM    H8G10242   5.378   1.952   9.842  2.0597  0.6111  0.2341
  101OSM    C9F10243   5.491   2.119   9.791  0.6180 -0.4369  0.3486
  101OSM    H9F10244   5.579   2.126   9.856  0.1870  1.2825  0.7899
  101OSM   C10F10245   5.497   2.175   9.670 -0.7470 -0.1046  0.4712
  101OSM   H10F10246   5.603   2.202   9.655 -0.1404 -1.4564  1.9744
  101OSM   C11F10247   5.401   2.200   9.551  0.3391 -0.4582 -0.3537
  101OSM   H11F10248   5.413   2.306   9.522  1.0945 -0.3452  0.3333
  101OSM   H11G10249   5.295   2.189   9.580 -0.6999 -1.7660 -4.0769
  101OSM   C12F10250   5.412   2.098   9.435  0.6838  0.4754 -1.0129
  101OSM   H12F10251   5.515   2.116   9.399 -0.4422  0.6559 -4.4692
  101OSM   H12G10252   5.337   2.128   9.358  0.1663  2.5007  0.1859
  101OSM   C13F10253   5.379   1.956   9.469 -0.8894 -0.2927  0.0525
  101OSM   H13F10254   5.281   1.938   9.519 -0.5503  0.0938  0.8743
  101OSM   H13G10255   5.455   1.925   9.544 -0.2440  1.3719  0.1377
  101OSM   C14F10256   5.390   1.851   9.351  0.0366 -0.4834  0.2751
  101OSM   H14F10257   5.365   1.745   9.374 -1.8319 -0.8935 -2.9702
  101OSM   H14G10258   5.494   1.846   9.314  0.9138 -1.6396  2.7302
  101OSM   C15F10259   5.278   1.891   9.251 -0.1082 -0.2642 -0.5239
  101OSM   H15F10260   5.302   1.989   9.206 -0.7267  0.3408  0.4437
  101OSM   H15G10261   5.186   1.903   9.310  0.4379 -1.6468  0.6796
  101OSM   C16F10262   5.249   1.789   9.134 -0.1397 -0.2808  1.0487
  101OSM   H16F10263   5.149   1.810   9.089 -1.3459  2.2227  4.4921
  101OSM   H16G10264   5.244   1.687   9.178 -0.3656 -0.0579  1.5452
  101OSM   C17F10265   5.369   1.785   9.032  0.3668  0.0611 -0.2144
  101OSM   H17F10266   5.467   1.754   9.076  0.0551  0.4328  0.7481
  101OSM   H17G10267   5.377   1.888   8.990 -2.8569 -0.8109 -3.5104
  101OSM   C18F10268   5.328   1.697   8.912 -0.2821  0.0150 -0.0767
  101OSM   H18F10269   5.371   1.594   8.912 -3.1049 -1.2991  2.0227
  101OSM   H18G10270   5.358   1.751   8.820  1.4619 -0.1321  0.3789
  101OSM   H18H10271   5.219   1.675   8.906 -0.5239  1.3034 -0.6188
  102OSM      N10272   5.032   1.117  10.509 -0.2204 -0.0906  0.2507
  102OSM    C1510273   5.123   1.156  10.617  0.1536 -0.3172 -0.1259
  102OSM   H15A10274   5.126   1.264  10.618 -0.4879 -0.2711 -0.9776
  102OSM   H15B10275   5.221   1.114  10.605  0.4029  0.2706 -0.1819
  102OSM   H15C10276   5.080   1.130  10.712 -0.4992 -1.7397 -0.7642
  102OSM    C1410277   5.090   1.165  10.377 -0.0404 -0.2983 -0.4462
  102OSM   H14A10278   5.019   1.151  10.297  0.8904 -0.6846 -1.2337
  102OSM   H14B10279   5.188   1.124  10.357  0.9477  1.5498  0.3789
  102OSM   H14C10280   5.096   1.272  10.386 -0.2778 -0.3806  0.9441
  102OSM    C1310281   5.009   0.968  10.513 -0.4176 -0.4542 -0.0631
  102OSM   H13A10282   4.981   0.933  10.611 -0.7281 -2.1229 -0.7014
  102OSM   H13B10283   5.107   0.922  10.505  0.2220  0.6955  0.8407
  102OSM   H13C10284   4.946   0.931  10.433 -1.7721 -0.8325  1.1330
  102OSM    C1210285   4.892   1.175  10.522  0.0129 -0.3998 -0.0742
  102OSM   H12A10286   4.860   1.152  10.622  1.8414 -2.9300  0.0204
  102OSM   H12B10287   4.828   1.128  10.448 -1.5346 -0.3456  1.1597
  102OSM    C1110288   4.894   1.329  10.512  0.1915 -0.5527  0.4913
  102OSM   H11A10289   4.905   1.362  10.406  2.1625 -0.2775  0.7453
  102OSM   H11B10290   4.979   1.367  10.573  0.3887 -0.0420 -0.0929
  102OSM      P10291   4.680   1.496  10.553 -0.2625  0.3545  0.0339
  102OSM    O1310292   4.551   1.454  10.504  0.2887  0.0085  0.0662
  102OSM    O1410293   4.683   1.603  10.653  0.9848  0.3019  0.3084
  102OSM    O1110294   4.751   1.562  10.430 -0.2137 -0.1264 -0.1917
  102OSM    O1210295   4.779   1.377  10.583  0.1189 -0.0994 -0.4360
  102OSM    C1S10296   4.877   1.631  10.433 -0.3874 -0.0341 -0.2361
  102OSM    H1S10297   4.960   1.580  10.488  2.5407  1.9722 -2.4839
  102OSM    H1T10298   4.866   1.736  10.466  0.9428 -0.6584  2.5260
  102OSM     NF10299   5.068   1.662  10.277  0.1007  0.0551 -0.0412
  102OSM    HNF10300   5.087   1.754  10.243 -0.3027  0.0308 -0.3260
  102OSM    C2S10301   4.926   1.622  10.288 -0.3007 -0.1233  0.3491
  102OSM    H2S10302   4.926   1.520  10.243  2.6232  0.9371 -2.4039
  102OSM    C3S10303   4.830   1.707  10.199  0.2874  0.6310 -0.0071
  102OSM    H3S10304   4.822   1.811  10.239  2.7730  1.6759 -1.9739
  102OSM     O310305   4.691   1.663  10.188  0.1806 -0.1064  0.1978
  102OSM    HO310306   4.678   1.613  10.268  0.3840  0.4839  0.6096
  102OSM    C4S10307   4.876   1.711  10.063 -0.9702 -0.0350 -0.1095
  102OSM    H4S10308   4.864   1.613  10.014  1.6665 -1.4010  1.7204
  102OSM    C5S10309   4.912   1.821   9.998 -0.0539  0.5111 -0.1910
  102OSM    H5S10310   4.913   1.919  10.048  3.4876  0.2552  0.4673
  102OSM    C6S10311   4.943   1.824   9.854 -0.5256  0.0344  0.7759
  102OSM    H6S10312   5.029   1.893   9.838 -1.1170  0.1983 -2.4651
  102OSM    H6T10313   4.853   1.867   9.804 -0.3280  1.1647  1.3724
  102OSM    C7S10314   4.976   1.686   9.787  0.1732 -0.8126 -0.6579
  102OSM    H7S10315   4.886   1.622   9.794 -0.2627 -0.0336  1.6112
  102OSM    H7T10316   5.063   1.651   9.847  2.0052  1.2431 -1.9512
  102OSM    C8S10317   5.029   1.696   9.643  0.3360  0.1077  0.4020
  102OSM    H8S10318   5.132   1.737   9.651  0.8930 -1.3554  1.2358
  102OSM    H8T10319   4.964   1.764   9.584 -1.9094 -0.4550  2.1012
  102OSM    C9S10320   5.037   1.558   9.573  0.5173 -0.9873 -0.5612
  102OSM    H9S10321   4.953   1.491   9.603 -1.2740  1.3649  0.0081
  102OSM    H9T10322   5.127   1.507   9.613 -1.9320 -3.3330  2.5484
  102OSM   C10S10323   5.038   1.565   9.423  0.0654  0.1336  1.0267
  102OSM   H10S10324   5.118   1.634   9.389 -1.8614  1.7571 -0.4999
  102OSM   H10T10325   4.944   1.611   9.385 -0.4214 -1.0229  0.7879
  102OSM   C11S10326   5.062   1.420   9.362  0.5249  0.4658  0.8120
  102OSM   H11S10327   4.981   1.360   9.408  1.5434 -1.0565  0.6748
  102OSM   H11T10328   5.164   1.391   9.395  0.3932  0.6237  1.3804
  102OSM   C12S10329   5.045   1.414   9.206  0.2720  0.2297 -0.8061
  102OSM   H12S10330   5.058   1.312   9.164  0.4172 -0.4864  0.9025
  102OSM   H12T10331   5.124   1.473   9.157 -0.3999 -0.0810 -2.3034
  102OSM   C13S10332   4.911   1.462   9.152 -0.1227  0.0141  0.8803
  102OSM   H13S10333   4.882   1.561   9.195  0.7006  0.0915  1.2594
  102OSM   H13T10334   4.832   1.391   9.185  0.7597 -2.0835 -1.2530
  102OSM   C14S10335   4.900   1.474   9.002 -0.0184  0.6858  0.6803
  102OSM   H14S10336   4.968   1.555   8.968  0.9719 -0.6911 -0.8366
  102OSM   H14T10337   4.798   1.508   8.976 -1.0260 -1.5652  1.4752
  102OSM   C15S10338   4.915   1.336   8.923  0.1783  0.1969  0.1420
  102OSM   H15S10339   4.853   1.261   8.976  0.3669 -1.2570 -1.6101
  102OSM   H15T10340   5.019   1.296   8.927  0.4440  0.9041  0.5568
  102OSM   C16S10341   4.881   1.342   8.781 -0.2757 -0.2004 -0.1678
  102OSM   H16S10342   4.815   1.429   8.762  0.9976  0.9253  0.3497
  102OSM   H16T10343   4.807   1.263   8.758 -1.8110  0.4205  2.2354
  102OSM   C17S10344   5.014   1.344   8.697 -0.4832 -0.1027 -0.2625
  102OSM   H17S10345   4.995   1.332   8.588 -0.1534  2.1715 -0.6328
  102OSM   H17T10346   5.076   1.260   8.734  2.3888  1.5917 -0.9411
  102OSM   C18S10347   5.104   1.470   8.716  0.4345  0.6452  0.3410
  102OSM   H18S10348   5.059   1.571   8.702 -2.7531 -0.7567 -0.4094
  102OSM   H18T10349   5.193   1.472   8.651 -0.1513  0.8347 -0.4762
  102OSM   H18U10350   5.155   1.461   8.814  0.4703 -2.2350  0.1373
  102OSM    C1F10351   5.167   1.586  10.317  0.5572  0.2850  0.2090
  102OSM     OF10352   5.152   1.476  10.356 -0.0683  0.2806  0.2237
  102OSM    C2F10353   5.301   1.654  10.324 -0.2092 -0.2360  0.6763
  102OSM    H2F10354   5.338   1.620  10.423  0.5309 -0.4988  0.3188
  102OSM    H2G10355   5.289   1.764  10.329  1.8643  0.0821 -0.2016
  102OSM    C3F10356   5.394   1.622  10.205 -0.5336  0.5086  0.4913
  102OSM    H3F10357   5.420   1.516  10.185 -0.8135  0.6606 -0.7935
  102OSM    H3G10358   5.486   1.683  10.223  1.5138 -1.8661 -1.1490
  102OSM    C4F10359   5.356   1.680  10.077  0.4303 -0.5712  0.1209
  102OSM    H4F10360   5.316   1.782  10.093 -0.9986 -1.1999  0.7685
  102OSM    H4G10361   5.273   1.615  10.042 -1.4646  1.1844  1.1665
  102OSM    C5F10362   5.467   1.675   9.970  0.1121  0.1256 -0.3552
  102OSM    H5F10363   5.562   1.710  10.014 -0.4166 -0.1905  1.0805
  102OSM    H5G10364   5.434   1.745   9.891  3.1824  2.0262 -0.1081
  102OSM    C6F10365   5.475   1.529   9.914 -0.7283 -0.0908  0.2790
  102OSM    H6F10366   5.470   1.451   9.993 -1.9869 -2.4084 -1.9318
  102OSM    H6G10367   5.576   1.516   9.869 -1.8563  0.4124 -2.6772
  102OSM    C7F10368   5.362   1.497   9.812 -0.5238  0.0624 -0.2152
  102OSM    H7F10369   5.379   1.569   9.729  1.8374 -0.5172 -0.3042
  102OSM    H7G10370   5.263   1.515   9.858 -1.1944  1.2559 -2.0147
  102OSM    C8F10371   5.380   1.361   9.746  0.2377 -0.5163 -0.0287
  102OSM    H8F10372   5.481   1.340   9.704  0.4875 -3.7092  1.8795
  102OSM    H8G10373   5.311   1.357   9.659 -0.3356  0.3721  0.3668
  102OSM    C9F10374   5.344   1.242   9.826 -0.6220 -0.3514  0.4743
  102OSM    H9F10375   5.336   1.254   9.935 -0.5225 -2.8930  0.8229
  102OSM   C10F10376   5.344   1.109   9.780 -0.4750 -0.2065 -0.2733
  102OSM   H10F10377   5.284   1.040   9.840  1.0221 -1.3445 -0.0132
  102OSM   C11F10378   5.389   1.075   9.641 -0.3687 -0.0998  0.5955
  102OSM   H11F10379   5.469   1.002   9.666 -1.7256 -1.1730  2.0349
  102OSM   H11G10380   5.431   1.171   9.603 -2.0122  1.5623  2.7259
  102OSM   C12F10381   5.271   1.019   9.550 -0.3912  0.3491  0.6516
  102OSM   H12F10382   5.197   1.103   9.544  1.1514  1.6610 -1.1924
  102OSM   H12G10383   5.224   0.935   9.605  0.9508 -0.5970  0.3931
  102OSM   C13F10384   5.319   0.972   9.416 -0.5214 -0.4082  0.1118
  102OSM   H13F10385   5.350   1.062   9.359  1.3665 -0.8848  0.3060
  102OSM   H13G10386   5.228   0.932   9.366 -1.0409  1.8966 -0.8985
  102OSM   C14F10387   5.437   0.874   9.423  0.7766  0.1815 -0.6085
  102OSM   H14F10388   5.401   0.802   9.499  2.2298  1.0139  0.9225
  102OSM   H14G10389   5.529   0.923   9.460  1.1167 -1.2990  0.6051
  102OSM   C15F10390   5.474   0.799   9.296  0.2848  0.2775 -0.0451
  102OSM   H15F10391   5.561   0.737   9.324 -0.2936 -1.1620 -1.2808
  102OSM   H15G10392   5.501   0.875   9.219 -1.8143 -0.4250 -1.5792
  102OSM   C16F10393   5.361   0.712   9.247  0.3863 -0.0731  0.5976
  102OSM   H16F10394   5.384   0.676   9.144 -1.1488  1.4167 -0.3183
  102OSM   H16G10395   5.272   0.776   9.228 -1.5783 -2.3780  1.4624
  102OSM   C17F10396   5.321   0.589   9.330  0.3848  0.4525 -0.3356
  102OSM   H17F10397   5.291   0.625   9.431 -0.1361 -1.9539  0.4195
  102OSM   H17G10398   5.403   0.516   9.344  0.7853  0.5839 -1.9134
  102OSM   C18F10399   5.207   0.510   9.271 -0.1008  0.2593  0.7333
  102OSM   H18F10400   5.202   0.413   9.326 -0.4732 -0.0524  0.1612
  102OSM   H18G10401   5.235   0.498   9.164  0.0371 -0.8137  0.8765
  102OSM   H18H10402   5.117   0.574   9.273 -1.9677 -2.2264  1.1555
  103OSM      N10403   6.402   4.897  10.992  1.0545  0.2419  0.1115
  103OSM    C1510404   6.337   5.035  11.002  0.0876  0.3008  0.2998
  103OSM   H15A10405   6.386   5.106  10.937 -2.5720  2.1370  0.1504
  103OSM   H15B10406   6.333   5.072  11.103  1.7894 -0.7348  0.7898
  103OSM   H15C10407   6.237   5.031  10.963 -0.2213  1.7922  0.8973
  103OSM    C1410408   6.320   4.790  11.061  0.1162 -0.6000 -0.1079
  103OSM   H14A10409   6.373   4.698  11.040  1.1410  0.0151 -0.2703
  103OSM   H14B10410   6.226   4.779  11.010  0.8957  0.2813 -1.8245
  103OSM   H14C10411   6.309   4.802  11.168 -1.1972 -1.3289 -0.1468
  103OSM    C1310412   6.413   4.875  10.844 -0.1605  1.3869 -0.2620
  103OSM   H13A10413   6.317   4.861  10.796  0.4320 -1.7705 -0.7901
  103OSM   H13B10414   6.457   4.778  10.824 -1.3595  1.2854 -2.8666
  103OSM   H13C10415   6.475   4.951  10.798  2.5955  0.2794  1.3651
  103OSM    C1210416   6.536   4.903  11.050 -0.1089 -0.5693 -0.4522
  103OSM   H12A10417   6.534   4.904  11.158  0.9662 -0.3119 -0.4222
  103OSM   H12B10418   6.573   5.002  11.030 -0.8174 -0.3278 -0.5867
  103OSM    C1110419   6.644   4.790  11.003  0.5024  0.3379 -0.7385
  103OSM   H11A10420   6.741   4.822  11.048 -0.7064  2.4224  0.5328
  103OSM   H11B10421   6.653   4.791  10.892  2.8730 -1.0338 -0.6222
  103OSM      P10422   6.709   4.552  11.101 -0.4308 -0.2004  0.8563
  103OSM    O1310423   6.796   4.627  11.195  0.4987  0.2231  0.2626
  103OSM    O1410424   6.635   4.436  11.157 -0.1940 -0.0776 -0.1171
  103OSM    O1110425   6.802   4.505  10.989  0.0379  0.7056  0.4344
  103OSM    O1210426   6.611   4.655  11.036  0.5933  0.0302 -0.1622
  103OSM    C1S10427   6.749   4.447  10.869  0.0546 -1.1892  0.8543
  103OSM    H1S10428   6.638   4.441  10.859  0.1453 -0.9581 -0.4631
  103OSM    H1T10429   6.805   4.354  10.848  1.0252 -0.5426  0.4893
  103OSM     NF10430   6.731   4.485  10.623  0.1188 -0.2633  0.1918
  103OSM    HNF10431   6.776   4.403  10.590 -0.5358 -1.4184  1.9952
  103OSM    C2S10432   6.795   4.535  10.745 -0.5855  0.1147 -0.0065
  103OSM    H2S10433   6.765   4.641  10.754 -1.1307  0.1208 -1.5187
  103OSM    C3S10434   6.953   4.543  10.737 -0.3215 -0.0542 -0.3429
  103OSM    H3S10435   7.001   4.443  10.729  0.9095  0.6484 -2.6906
  103OSM     O310436   7.014   4.596  10.855 -0.3263  0.2079  0.5706
  103OSM    HO310437   6.941   4.586  10.916  0.9301 -2.5901  1.8022
  103OSM    C4S10438   6.994   4.618  10.615 -0.5939 -0.3166  0.0833
  103OSM    H4S10439   6.960   4.723  10.608 -0.9353 -0.4977 -1.0680
  103OSM    C5S10440   7.081   4.572  10.521  0.2758  0.6239 -0.1943
  103OSM    H5S10441   7.128   4.473  10.534 -0.9472  0.0368 -0.1081
  103OSM    C6S10442   7.113   4.649  10.401  0.2380  0.3470 -0.0140
  103OSM    H6S10443   7.207   4.705  10.422 -0.2754  1.4534 -0.6137
  103OSM    H6T10444   7.039   4.729  10.378  1.5612  1.7104  0.2652
  103OSM    C7S10445   7.151   4.562  10.283 -0.0263  0.0266 -0.0597
  103OSM    H7S10446   7.060   4.501  10.266 -0.5586 -0.0820  2.7169
  103OSM    H7T10447   7.239   4.499  10.309  1.1034  1.2113 -0.8679
  103OSM    C8S10448   7.157   4.649  10.153 -0.4487  0.3168 -0.2009
  103OSM    H8S10449   7.229   4.733  10.161 -1.0562  0.8329 -0.0422
  103OSM    H8T10450   7.059   4.698  10.136 -1.1860 -1.2925 -0.7944
  103OSM    C9S10451   7.193   4.565  10.024 -0.1794 -0.7478  0.0921
  103OSM    H9S10452   7.129   4.476  10.008  0.0509 -0.7406 -0.8890
  103OSM    H9T10453   7.298   4.531  10.043  0.1609  0.4795  0.5218
  103OSM   C10S10454   7.182   4.651   9.891 -0.3845  0.0362 -0.0249
  103OSM   H10S10455   7.277   4.707   9.872  1.1079 -2.3783 -0.1085
  103OSM   H10T10456   7.085   4.704   9.903 -2.7140 -3.0874 -3.0171
  103OSM   C11S10457   7.162   4.561   9.766  0.5676  0.1180  0.1599
  103OSM   H11S10458   7.068   4.503   9.777 -0.5772  1.6798 -0.9571
  103OSM   H11T10459   7.248   4.491   9.765 -0.0991 -0.7305  0.5489
  103OSM   C12S10460   7.146   4.633   9.635 -0.5662 -0.2366  0.0341
  103OSM   H12S10461   7.240   4.690   9.617 -1.1616  0.4906 -0.8711
  103OSM   H12T10462   7.064   4.707   9.642  1.2783  1.8471  0.9213
  103OSM   C13S10463   7.135   4.540   9.514  0.2005 -0.1072  0.6615
  103OSM   H13S10464   7.034   4.494   9.508  0.6110 -0.8670 -1.1634
  103OSM   H13T10465   7.201   4.451   9.524 -1.4151 -1.6979 -1.8312
  103OSM   C14S10466   7.158   4.599   9.375 -0.2587  0.3841 -0.2678
  103OSM   H14S10467   7.263   4.636   9.381 -0.6921  1.6126  0.1187
  103OSM   H14T10468   7.090   4.686   9.361 -0.4931 -0.0270 -1.8860
  103OSM   C15S10469   7.127   4.501   9.256  0.5283  0.0645 -0.0152
  103OSM   H15S10470   7.020   4.473   9.248  0.0214  1.9253 -0.3463
  103OSM   H15T10471   7.180   4.407   9.280  2.9473  1.2832 -0.2487
  103OSM   C16S10472   7.180   4.538   9.121 -0.4050 -0.3489  0.2825
  103OSM   H16S10473   7.156   4.463   9.043  2.3381  0.3864 -1.3769
  103OSM   H16T10474   7.290   4.544   9.116 -0.3781  0.0348  1.1035
  103OSM   C17S10475   7.132   4.686   9.083 -0.1135  0.7033  0.6081
  103OSM   H17S10476   7.164   4.764   9.155  1.9740  0.3010  0.1602
  103OSM   H17T10477   7.021   4.676   9.082 -0.0888 -0.6400 -2.7793
  103OSM   C18S10478   7.189   4.727   8.945  1.2652  0.5066  0.3568
  103OSM   H18S10479   7.159   4.654   8.867  2.0274  0.3152  0.2350
  103OSM   H18T10480   7.300   4.731   8.940  1.3270 -0.4193  0.6433
  103OSM   H18U10481   7.148   4.821   8.902  0.2403 -0.3807 -0.6801
  103OSM    C1F10482   6.613   4.511  10.583  0.0916 -0.6997  0.4329
  103OSM     OF10483   6.534   4.583  10.644 -0.0373  0.6278  0.0208
  103OSM    C2F10484   6.564   4.441  10.455  0.1160 -0.0919 -0.1025
  103OSM    H2F10485   6.460   4.406  10.472  1.4417 -3.5514  1.8557
  103OSM    H2G10486   6.620   4.346  10.448  0.6421  0.0788  1.3517
  103OSM    C3F10487   6.584   4.515  10.323 -0.4452 -0.1437 -0.3100
  103OSM    H3F10488   6.524   4.608  10.323  0.9938  0.8237 -1.3570
  103OSM    H3G10489   6.532   4.451  10.248 -0.2819 -0.2529 -0.3319
  103OSM    C4F10490   6.731   4.540  10.283 -0.4887  0.2944  0.2148
  103OSM    H4F10491   6.793   4.448  10.285  3.9763  2.6601 -4.7075
  103OSM    H4G10492   6.794   4.605  10.348  1.5272 -1.7508  0.4271
  103OSM    C5F10493   6.758   4.582  10.134  0.3003  0.1481 -0.0884
  103OSM    H5F10494   6.718   4.496  10.075  2.5604 -2.3346  1.7739
  103OSM    H5G10495   6.866   4.581  10.111  0.4360  4.7910 -0.4767
  103OSM    C6F10496   6.694   4.723  10.095 -0.2871  0.4031  0.2358
  103OSM    H6F10497   6.734   4.794  10.170  1.3358 -0.6183  0.3932
  103OSM    H6G10498   6.585   4.703  10.101 -0.5389  1.0551 -1.4334
  103OSM    C7F10499   6.735   4.768   9.951 -0.2606  0.0624  0.5180
  103OSM    H7F10500   6.840   4.800   9.964  1.0091 -3.1497 -0.7726
  103OSM    H7G10501   6.677   4.857   9.918  2.0920  1.6274  0.3585
  103OSM    C8F10502   6.732   4.669   9.828  0.7721 -0.2906  0.2243
  103OSM    H8F10503   6.803   4.584   9.838  1.0822  0.0232  0.7685
  103OSM    H8G10504   6.773   4.725   9.742  1.8026 -1.2408  0.0728
  103OSM    C9F10505   6.599   4.632   9.772 -0.5809  0.2436 -0.6861
  103OSM    H9F10506   6.508   4.690   9.796 -1.1349 -0.5080 -0.9346
  103OSM   C10F10507   6.581   4.531   9.685  0.5887  0.1201  0.2436
  103OSM   H10F10508   6.486   4.520   9.631 -0.3514  2.3406  1.3349
  103OSM   C11F10509   6.699   4.446   9.642  0.2105  0.0251 -0.4395
  103OSM   H11F10510   6.689   4.342   9.682  1.3279  0.8098  2.0543
  103OSM   H11G10511   6.796   4.489   9.673 -0.3474  0.4474  0.7778
  103OSM   C12F10512   6.694   4.445   9.486 -0.7042  0.2545 -0.0413
  103OSM   H12F10513   6.608   4.381   9.457  0.0816 -0.8954  0.0883
  103OSM   H12G10514   6.787   4.392   9.454 -0.9710 -0.0917 -0.2550
  103OSM   C13F10515   6.683   4.584   9.426  0.1067  0.1024  1.1040
  103OSM   H13F10516   6.583   4.630   9.441  0.4353  0.7202  1.4477
  103OSM   H13G10517   6.767   4.650   9.457  1.0883 -1.2797  1.4468
  103OSM   C14F10518   6.689   4.576   9.267 -0.3108  0.0889  0.6630
  103OSM   H14F10519   6.618   4.497   9.234 -1.0941  0.1588  2.0976
  103OSM   H14G10520   6.793   4.546   9.241  0.6699  1.1470  3.0354
  103OSM   C15F10521   6.654   4.710   9.208  0.2333 -0.9694 -0.0097
  103OSM   H15F10522   6.722   4.792   9.242 -0.7296 -0.3476  0.4808
  103OSM   H15G10523   6.551   4.733   9.244 -0.5553 -0.6627 -2.2976
  103OSM   C16F10524   6.647   4.716   9.056  0.5920  0.2534 -0.2989
  103OSM   H16F10525   6.615   4.816   9.020  1.8650  0.5665 -0.6169
  103OSM   H16G10526   6.571   4.638   9.039  1.5739 -0.6784 -0.5448
  103OSM   C17F10527   6.779   4.675   8.984 -0.2289 -0.2479 -0.5886
  103OSM   H17F10528   6.813   4.573   9.013  1.6433  0.1113 -1.3871
  103OSM   H17G10529   6.853   4.753   9.012  1.5427 -1.4407 -1.6636
  103OSM   C18F10530   6.756   4.690   8.829  0.1806  0.2765 -0.3523
  103OSM   H18F10531   6.835   4.628   8.781 -0.5285 -1.7727  0.9679
  103OSM   H18G10532   6.780   4.795   8.802  0.2004  0.3949  0.1136
  103OSM   H18H10533   6.652   4.658   8.809  0.0116 -0.1550  1.0892
  104OSM      N10534   4.437   4.663  11.231 -0.0239 -0.3864  0.3785
  104OSM    C1510535   4.347   4.591  11.329 -0.2868  0.2107 -0.6887
  104OSM   H15A10536   4.354   4.484  11.317  1.1161  0.0780  0.9369
  104OSM   H15B10537   4.242   4.608  11.310 -0.4118 -0.8479 -1.0008
  104OSM   H15C10538   4.372   4.619  11.430 -1.4881 -0.1303 -0.2788
  104OSM    C1410539   4.413   4.611  11.096  0.3696  0.4681  0.4655
  104OSM   H14A10540   4.411   4.504  11.085 -0.4384  0.5489 -0.2913
  104OSM   H14B10541   4.485   4.651  11.026 -0.1259  1.0916  0.2969
  104OSM   H14C10542   4.317   4.646  11.060 -0.0780 -0.2487  0.9546
  104OSM    C1310543   4.389   4.805  11.246  0.2226 -0.2119 -0.2719
  104OSM   H13A10544   4.454   4.876  11.196 -0.8581 -0.0962 -1.5767
  104OSM   H13B10545   4.368   4.827  11.350 -1.1941 -3.8169  0.3319
  104OSM   H13C10546   4.296   4.807  11.192 -0.6168 -0.1365  1.1445
  104OSM    C1210547   4.576   4.653  11.276  0.1914  0.3204 -0.3114
  104OSM   H12A10548   4.595   4.547  11.282  1.3123  0.4791 -0.8285
  104OSM   H12B10549   4.575   4.680  11.381 -0.8319  0.8120 -0.4431
  104OSM    C1110550   4.689   4.727  11.203 -0.1799 -0.5923  0.0932
  104OSM   H11A10551   4.769   4.718  11.279 -0.4053 -0.4277  0.3511
  104OSM   H11B10552   4.671   4.836  11.195  0.0734 -0.6717 -2.6382
  104OSM      P10553   4.815   4.551  11.066 -0.2683  0.3253  0.0377
  104OSM    O1310554   4.953   4.605  11.086 -0.2829 -0.1858 -0.2528
  104OSM    O1410555   4.770   4.430  11.139 -0.1311 -0.1785 -0.4860
  104OSM    O1110556   4.808   4.495  10.917  0.3164 -0.1914  0.3510
  104OSM    O1210557   4.720   4.668  11.075  0.5987  0.0694  0.7601
  104OSM    C1S10558   4.749   4.572  10.809 -0.4664 -0.9455  0.2089
  104OSM    H1S10559   4.734   4.679  10.834 -0.4982 -1.2301  1.4415
  104OSM    H1T10560   4.646   4.535  10.789 -0.8528  1.0051 -1.8474
  104OSM     NF10561   4.772   4.658  10.589  0.0939 -0.0079  0.4212
  104OSM    HNF10562   4.694   4.637  10.531  1.7650 -4.7699 -0.5319
  104OSM    C2S10563   4.813   4.547  10.671  0.3896  0.2425  0.5230
  104OSM    H2S10564   4.924   4.556  10.673  0.5569 -0.8218 -1.4255
  104OSM    C3S10565   4.779   4.412  10.612 -0.4962 -0.0565  0.5509
  104OSM    H3S10566   4.669   4.400  10.622 -0.4581  0.2382  1.4429
  104OSM     O310567   4.840   4.319  10.701 -0.2755  0.8638  0.0036
  104OSM    HO310568   4.858   4.381  10.771 -0.3760  2.1040 -1.0376
  104OSM    C4S10569   4.814   4.399  10.466 -0.4763 -0.5534 -0.6244
  104OSM    H4S10570   4.726   4.420  10.402 -1.5573 -0.8103  0.7371
  104OSM    C5S10571   4.930   4.372  10.400  0.3529  0.7255 -0.1729
  104OSM    H5S10572   5.027   4.376  10.453 -0.5369  0.4392  1.5531
  104OSM    C6S10573   4.928   4.365  10.251 -0.0534 -0.0991  0.2816
  104OSM    H6S10574   4.839   4.321  10.203  1.3561 -1.3989 -1.2299
  104OSM    H6T10575   5.001   4.290  10.214 -1.8223 -0.8554 -1.8634
  104OSM    C7S10576   4.956   4.496  10.177 -0.1287  0.3844 -0.3122
  104OSM    H7S10577   5.060   4.526  10.201 -0.7168 -0.0267  3.3755
  104OSM    H7T10578   4.885   4.576  10.208 -0.0904 -0.2227  1.4736
  104OSM    C8S10579   4.937   4.477  10.016 -0.6928 -0.5944  0.3860
  104OSM    H8S10580   4.956   4.574   9.965  1.2377 -1.7441 -1.2489
  104OSM    H8T10581   4.830   4.451  10.009 -0.7349 -0.7586  1.5354
  104OSM    C9S10582   5.041   4.384   9.956  0.2109 -0.6250  0.4033
  104OSM    H9S10583   4.993   4.287   9.929 -0.0698 -0.0558 -1.3259
  104OSM    H9T10584   5.127   4.371  10.024  0.5956 -0.3080 -0.0201
  104OSM   C10S10585   5.091   4.444   9.823 -0.5976 -0.9342 -0.2727
  104OSM   H10S10586   5.163   4.375   9.774 -0.0685 -0.1700 -0.6021
  104OSM   H10T10587   5.133   4.545   9.842 -1.0833 -0.9760  1.0711
  104OSM   C11S10588   4.981   4.466   9.718  0.7452  0.0910 -0.4856
  104OSM   H11S10589   5.020   4.534   9.640  1.4829 -0.9481 -1.0424
  104OSM   H11T10590   4.891   4.521   9.752  0.3798  0.1952 -1.5787
  104OSM   C12S10591   4.925   4.346   9.649  0.7463  0.0428 -0.4565
  104OSM   H12S10592   4.884   4.278   9.726  2.4747  1.5645  1.9420
  104OSM   H12T10593   5.015   4.300   9.603 -0.5371 -3.1036 -0.0744
  104OSM   C13S10594   4.822   4.375   9.536  0.4129 -0.0272 -0.4427
  104OSM   H13S10595   4.880   4.419   9.452 -0.3294  1.3969 -0.2337
  104OSM   H13T10596   4.752   4.449   9.580  0.2772 -0.4790  0.1181
  104OSM   C14S10597   4.747   4.242   9.497  0.0520 -0.0046 -0.6252
  104OSM   H14S10598   4.700   4.209   9.592 -0.4748  0.6485 -0.6544
  104OSM   H14T10599   4.810   4.163   9.451 -1.2992 -1.0645 -0.6956
  104OSM   C15S10600   4.629   4.282   9.404 -1.1394 -0.3721  0.3331
  104OSM   H15S10601   4.666   4.350   9.325  0.4713 -0.0427  1.3271
  104OSM   H15T10602   4.555   4.345   9.459 -0.6919 -0.1335  0.6673
  104OSM   C16S10603   4.558   4.154   9.335 -0.1931 -0.6302 -0.3273
  104OSM   H16S10604   4.637   4.084   9.300  0.3533 -1.2596  1.9800
  104OSM   H16T10605   4.500   4.178   9.244 -3.2129 -0.3039  1.5418
  104OSM   C17S10606   4.486   4.076   9.440  0.5932 -0.7767 -0.3947
  104OSM   H17S10607   4.414   4.153   9.476 -0.9426 -2.6590  0.8128
  104OSM   H17T10608   4.557   4.033   9.514 -0.8062 -1.8287  0.4122
  104OSM   C18S10609   4.419   3.953   9.382  0.2034 -0.3813  0.5951
  104OSM   H18S10610   4.369   3.967   9.284  2.1079 -2.6426 -0.8062
  104OSM   H18T10611   4.343   3.911   9.451  0.7676 -1.0436  0.8246
  104OSM   H18U10612   4.493   3.871   9.370 -0.8593 -1.3891  0.8470
  104OSM    C1F10613   4.833   4.773  10.599 -0.2831  0.1671 -0.0646
  104OSM     OF10614   4.929   4.795  10.673  0.1790 -0.5368 -0.1735
  104OSM    C2F10615   4.764   4.886  10.526  0.2750  0.1509  0.2608
  104OSM    H2F10616   4.746   4.965  10.602  2.8277  1.0442  0.0373
  104OSM    H2G10617   4.664   4.842  10.506 -1.2799  2.3460  2.5802
  104OSM    C3F10618   4.844   4.944  10.404  0.1261  0.3789 -0.0698
  104OSM    H3F10619   4.946   4.979  10.430 -0.0238  2.0389 -1.5595
  104OSM    H3G10620   4.796   5.034  10.361  0.1426  0.1584 -0.5608
  104OSM    C4F10621   4.840   4.852  10.284 -0.1361  0.4636 -0.5587
  104OSM    H4F10622   4.745   4.798  10.266  0.2795 -0.2671 -0.6083
  104OSM    H4G10623   4.918   4.775  10.303 -0.7943 -0.7399 -2.5263
  104OSM    C5F10624   4.884   4.932  10.155  0.4794 -0.0079 -1.0799
  104OSM    H5F10625   4.962   5.007  10.181 -1.2355  1.7576 -0.7806
  104OSM    H5G10626   4.800   5.001  10.132  0.2396  0.1514  0.1762
  104OSM    C6F10627   4.928   4.844  10.042 -0.2554 -0.1690  0.2211
  104OSM    H6F10628   4.846   4.779  10.008 -0.5616  1.2374 -1.9442
  104OSM    H6G10629   5.011   4.778  10.075 -0.1491 -1.8662 -3.0976
  104OSM    C7F10630   4.967   4.934   9.918 -0.1823  0.3476 -0.8651
  104OSM    H7F10631   5.032   5.020   9.944 -2.1590  1.0451  2.2254
  104OSM    H7G10632   4.873   4.986   9.891 -0.1296  0.7253 -0.3402
  104OSM    C8F10633   5.025   4.851   9.794 -1.0073  0.3372 -0.2974
  104OSM    H8F10634   4.977   4.751   9.790 -0.7674  0.2246 -0.3268
  104OSM    H8G10635   5.134   4.838   9.811 -1.3959  0.0895  2.6384
  104OSM    C9F10636   4.997   4.950   9.675 -0.0106  0.2537  0.1393
  104OSM    H9F10637   5.047   5.046   9.692 -1.1195  0.9342 -0.3601
  104OSM   C10F10638   4.916   4.922   9.569  0.0040  0.0308 -0.3706
  104OSM   H10F10639   4.889   5.004   9.502  0.2359 -0.6373 -1.3043
  104OSM   C11F10640   4.841   4.793   9.532 -0.4822  0.1312 -0.7211
  104OSM   H11F10641   4.743   4.795   9.586  0.6086 -1.1447  1.4492
  104OSM   H11G10642   4.890   4.698   9.562 -0.7118  0.0648 -0.5475
  104OSM   C12F10643   4.788   4.782   9.388 -0.0614 -0.0428 -0.7155
  104OSM   H12F10644   4.710   4.862   9.381 -0.6549 -0.1676  2.8382
  104OSM   H12G10645   4.719   4.695   9.387 -0.3570  0.1414  0.8912
  104OSM   C13F10646   4.898   4.781   9.284 -0.3330 -1.1047  0.3848
  104OSM   H13F10647   4.869   4.709   9.205 -1.8649 -1.4949  1.2625
  104OSM   H13G10648   4.988   4.734   9.328 -0.7056 -1.3457  0.8990
  104OSM   C14F10649   4.932   4.921   9.228  0.2876 -0.5716 -0.2021
  104OSM   H14F10650   4.963   4.994   9.307  0.8791 -0.7871 -0.2372
  104OSM   H14G10651   4.838   4.959   9.182  0.0927  1.2931  1.5775
  104OSM   C15F10652   5.036   4.897   9.117  0.0751 -0.3340 -0.3208
  104OSM   H15F10653   5.023   4.802   9.060 -0.7331 -0.3945 -0.0440
  104OSM   H15G10654   5.142   4.906   9.150  0.3053 -2.9478 -0.0757
  104OSM   C16F10655   5.003   5.002   9.005 -0.1681  0.4401 -0.0192
  104OSM   H16F10656   5.020   5.106   9.038  0.2568  0.6919 -1.0135
  104OSM   H16G10657   4.898   5.008   8.969  0.0974  2.0431 -0.6033
  104OSM   C17F10658   5.088   4.965   8.876 -0.0854 -0.0200  0.0527
  104OSM   H17F10659   5.191   4.938   8.904  0.0350  0.4429  0.0735
  104OSM   H17G10660   5.098   5.054   8.809  0.2121  0.0004  0.1243
  104OSM   C18F10661   5.022   4.858   8.794 -0.5501  0.1903  0.1914
  104OSM   H18F10662   5.035   4.878   8.686  0.5358  0.2271  0.3190
  104OSM   H18G10663   4.912   4.850   8.813 -0.2110 -0.8298  1.9665
  104OSM   H18H10664   5.060   4.756   8.816  0.3833  0.9011  2.0955
  105OSM      N10665   3.615   1.924  10.854 -0.5043 -0.0717  0.3686
  105OSM    C1510666   3.701   1.904  10.971 -0.0985 -0.0080  0.2069
  105OSM   H15A10667   3.699   1.988  11.038 -0.3568 -0.9633  1.4317
  105OSM   H15B10668   3.803   1.897  10.937  0.0843  2.6281  0.0033
  105OSM   H15C10669   3.675   1.821  11.036 -3.9685  0.8013 -0.0365
  105OSM    C1410670   3.648   1.810  10.764  0.1158  0.6955 -0.4345
  105OSM   H14A10671   3.602   1.722  10.806  1.1972 -0.7732 -2.1602
  105OSM   H14B10672   3.754   1.791  10.752 -0.1313 -0.3583 -1.1596
  105OSM   H14C10673   3.604   1.815  10.665  0.8804  0.1269 -0.8186
  105OSM    C1310674   3.473   1.907  10.901  0.3520 -0.2149  0.0288
  105OSM   H13A10675   3.405   1.872  10.824 -1.7696 -0.3076  1.8420
  105OSM   H13B10676   3.445   2.004  10.939  0.1687 -0.2744  0.0471
  105OSM   H13C10677   3.468   1.835  10.981 -1.8133 -1.0018 -0.7402
  105OSM    C1210678   3.628   2.066  10.793 -0.5506 -0.2790  0.3025
  105OSM   H12A10679   3.624   2.144  10.868 -2.1919  0.4120 -0.4724
  105OSM   H12B10680   3.548   2.075  10.722 -0.7766 -3.9099 -0.1199
  105OSM    C1110681   3.750   2.102  10.709 -0.0587 -0.8195  0.0736
  105OSM   H11A10682   3.727   2.209  10.688  0.6224 -0.4498  1.1636
  105OSM   H11B10683   3.758   2.039  10.618 -1.3295  0.8101 -1.2564
  105OSM      P10684   3.989   2.013  10.766 -0.1993 -0.0477  0.2309
  105OSM    O1310685   4.078   2.014  10.887  0.1620  0.6171 -0.0614
  105OSM    O1410686   3.934   1.881  10.727 -0.1894  0.1164 -0.4558
  105OSM    O1110687   4.062   2.065  10.639  0.1958  0.0058  0.8888
  105OSM    O1210688   3.865   2.109  10.787 -0.1970  0.3272 -0.1765
  105OSM    C1S10689   4.092   2.210  10.623 -0.2643  0.3943  0.1243
  105OSM    H1S10690   4.168   2.248  10.694  1.8818 -1.3760 -1.0727
  105OSM    H1T10691   4.008   2.273  10.660  0.1014  0.2050  1.3169
  105OSM     NF10692   4.201   2.366  10.465 -0.2778  0.0544  0.5822
  105OSM    HNF10693   4.146   2.448  10.457 -0.4973 -0.2563 -1.9324
  105OSM    C2S10694   4.119   2.245  10.476 -0.6231 -0.3865 -0.2462
  105OSM    H2S10695   4.184   2.164  10.437  1.0089 -0.9638  3.3035
  105OSM    C3S10696   3.986   2.232  10.396 -0.2820 -0.9851  0.4248
  105OSM    H3S10697   3.914   2.313  10.422 -0.1637  0.6228 -3.5397
  105OSM     O310698   3.923   2.110  10.404  0.5330  0.3289  0.8486
  105OSM    HO310699   3.957   2.077  10.488 -1.1341 -2.3702  0.6098
  105OSM    C4S10700   4.020   2.259  10.247  0.1624  0.6772  0.0189
  105OSM    H4S10701   4.125   2.234  10.226  0.0476  1.4164 -1.6552
  105OSM    C5S10702   3.955   2.335  10.156  0.2876  0.5091  0.4308
  105OSM    H5S10703   3.864   2.394  10.175 -2.9424 -3.9922  0.5380
  105OSM    C6S10704   4.006   2.353  10.023 -0.5266 -0.3110  0.2332
  105OSM    H6S10705   4.103   2.304  10.005 -0.3767  0.3381 -0.7795
  105OSM    H6T10706   4.022   2.463  10.013 -2.5143 -0.1046 -1.1560
  105OSM    C7S10707   3.911   2.294   9.916  0.3756 -0.0509 -0.1561
  105OSM    H7S10708   3.824   2.363   9.905  0.7533  0.3414 -0.7263
  105OSM    H7T10709   3.874   2.192   9.940  2.5683 -1.6181 -2.9389
  105OSM    C8S10710   3.974   2.278   9.781  0.4106  0.1536  0.1658
  105OSM    H8S10711   4.052   2.201   9.796  0.2407 -0.0932 -0.2204
  105OSM    H8T10712   4.026   2.373   9.754  1.8499  0.4758  3.4861
  105OSM    C9S10713   3.876   2.243   9.668 -0.2254  0.2543  0.3096
  105OSM    H9S10714   3.792   2.315   9.681 -0.8270 -0.3362 -0.2017
  105OSM    H9T10715   3.835   2.140   9.676 -0.1736  0.3096  1.3936
  105OSM   C10S10716   3.927   2.251   9.518  0.5015  0.1320 -0.3526
  105OSM   H10S10717   4.018   2.191   9.498 -0.0503 -1.0798  0.6292
  105OSM   H10T10718   3.958   2.357   9.505  0.5247  0.3714  1.3641
  105OSM   C11S10719   3.822   2.221   9.406  0.2099 -0.1984 -1.1446
  105OSM   H11S10720   3.726   2.255   9.449  0.8798  2.8144 -1.7997
  105OSM   H11T10721   3.825   2.110   9.403  0.3004 -0.1790 -2.8131
  105OSM   C12S10722   3.843   2.284   9.276  0.2685 -0.0479 -0.2760
  105OSM   H12S10723   3.940   2.249   9.233 -0.8312 -1.4384 -1.7523
  105OSM   H12T10724   3.848   2.394   9.290 -3.2126  0.5255 -2.4585
  105OSM   C13S10725   3.726   2.269   9.178  0.0778 -0.3548 -0.0812
  105OSM   H13S10726   3.716   2.358   9.113 -0.1037  0.7388  1.4019
  105OSM   H13T10727   3.642   2.264   9.251 -1.0729  2.2276 -1.1348
  105OSM   C14S10728   3.737   2.135   9.098  0.4138  0.5137  0.4509
  105OSM   H14S10729   3.703   2.050   9.160  0.0177  0.3317 -0.0082
  105OSM   H14T10730   3.840   2.132   9.055 -0.5722 -1.1484 -2.0054
  105OSM   C15S10731   3.651   2.144   8.975  0.5656  0.8484  0.4860
  105OSM   H15S10732   3.680   2.225   8.905 -0.7108  1.5148  0.6885
  105OSM   H15T10733   3.547   2.182   8.992  0.0505  0.5413 -1.6697
  105OSM   C16S10734   3.638   2.025   8.876  0.2898 -0.3097 -0.7976
  105OSM   H16S10735   3.574   2.056   8.791  1.5259  0.5865 -1.4240
  105OSM   H16T10736   3.585   1.945   8.933  0.3293  0.3501  0.2021
  105OSM   C17S10737   3.772   1.969   8.820  0.2381 -0.2222 -0.0941
  105OSM   H17S10738   3.731   1.887   8.757  0.8261 -0.6120  0.0179
  105OSM   H17T10739   3.833   1.924   8.902 -0.0593 -2.6119 -1.0930
  105OSM   C18S10740   3.851   2.065   8.739  0.0209  0.2145  0.5463
  105OSM   H18S10741   3.816   2.083   8.635  3.3710 -0.6205 -0.8561
  105OSM   H18T10742   3.960   2.042   8.738  0.0718  0.3438  1.7482
  105OSM   H18U10743   3.848   2.158   8.801 -2.1256 -0.1804  1.1200
  105OSM    C1F10744   4.327   2.375  10.491 -0.3165  0.1440  0.0780
  105OSM     OF10745   4.386   2.276  10.533 -0.7614  0.3184 -0.2527
  105OSM    C2F10746   4.384   2.509  10.496  0.6343  0.3318 -0.1618
  105OSM    H2F10747   4.407   2.529  10.603 -0.1665 -1.7479  0.4514
  105OSM    H2G10748   4.311   2.585  10.460  2.3250  0.5182 -3.5669
  105OSM    C3F10749   4.519   2.520  10.413  0.4585 -0.3284  0.3784
  105OSM    H3F10750   4.586   2.432  10.424 -0.3675 -1.8496 -4.4551
  105OSM    H3G10751   4.569   2.616  10.437 -0.1326 -0.2601  1.4106
  105OSM    C4F10752   4.484   2.530  10.265 -0.7235 -0.0887  0.3102
  105OSM    H4F10753   4.411   2.611  10.249 -0.9405 -0.3503 -0.0289
  105OSM    H4G10754   4.434   2.437  10.230  1.5985 -0.8298 -1.2763
  105OSM    C5F10755   4.597   2.573  10.175  0.1035 -0.4747  0.1484
  105OSM    H5F10756   4.677   2.497  10.163  1.0572  0.1873  1.9532
  105OSM    H5G10757   4.635   2.665  10.225  0.0031 -0.4968  0.2688
  105OSM    C6F10758   4.555   2.613  10.035  0.5005 -0.4677  0.4541
  105OSM    H6F10759   4.467   2.680  10.042  2.1370  1.8578 -0.2052
  105OSM    H6G10760   4.522   2.518   9.988  0.2341 -0.6743  1.0446
  105OSM    C7F10761   4.662   2.690   9.960  0.2966 -0.1952  0.1848
  105OSM    H7F10762   4.751   2.623   9.954  0.4208  0.0168 -0.3793
  105OSM    H7G10763   4.690   2.778  10.022  1.1303 -0.2920 -0.0445
  105OSM    C8F10764   4.619   2.745   9.814  0.9368 -0.1153  0.1847
  105OSM    H8F10765   4.533   2.816   9.819 -0.4051 -1.7148  0.8412
  105OSM    H8G10766   4.582   2.653   9.765  2.0039 -1.5141  1.8967
  105OSM    C9F10767   4.731   2.806   9.737 -0.4211 -0.2526  0.4175
  105OSM    H9F10768   4.793   2.873   9.799 -0.6805  1.3291 -0.9512
  105OSM   C10F10769   4.763   2.789   9.603  0.0629 -0.5559 -0.3669
  105OSM   H10F10770   4.845   2.856   9.573 -1.8783  1.3644 -1.6834
  105OSM   C11F10771   4.699   2.705   9.499  0.0152  0.5163  0.7025
  105OSM   H11F10772   4.592   2.692   9.528 -0.3191  1.6764  0.0752
  105OSM   H11G10773   4.759   2.615   9.477 -0.6618 -0.0309  1.0258
  105OSM   C12F10774   4.698   2.762   9.359 -0.7217 -1.1049 -0.2701
  105OSM   H12F10775   4.799   2.802   9.333 -1.0169 -1.3430 -1.9139
  105OSM   H12G10776   4.623   2.842   9.350  0.5033  0.4567  2.1756
  105OSM   C13F10777   4.670   2.665   9.247 -0.3426 -0.3250 -0.4713
  105OSM   H13F10778   4.565   2.627   9.250  0.0771 -1.4948  1.6902
  105OSM   H13G10779   4.736   2.577   9.261 -2.3599 -1.5466  2.2550
  105OSM   C14F10780   4.707   2.741   9.113 -0.3857  0.3805  0.5207
  105OSM   H14F10781   4.816   2.756   9.127  0.0470 -1.0046 -1.0079
  105OSM   H14G10782   4.655   2.839   9.104  2.2584  1.6987 -2.1830
  105OSM   C15F10783   4.677   2.656   8.993  0.7500 -0.2926 -0.2111
  105OSM   H15F10784   4.569   2.633   8.987  0.7854 -1.0687  1.5261
  105OSM   H15G10785   4.739   2.564   8.989  0.9671 -0.1398 -0.3965
  105OSM   C16F10786   4.701   2.730   8.862  0.3601 -0.0283 -0.1825
  105OSM   H16F10787   4.810   2.747   8.848  0.4818 -1.4345 -1.2078
  105OSM   H16G10788   4.660   2.833   8.854 -1.6188 -0.5869  1.9267
  105OSM   C17F10789   4.670   2.656   8.730  0.0454  0.5099  0.5294
  105OSM   H17F10790   4.705   2.716   8.643 -0.6889 -0.2189 -0.2924
  105OSM   H17G10791   4.561   2.640   8.715  0.2274  1.1731 -1.8805
  105OSM   C18F10792   4.736   2.513   8.725 -0.0293  0.3010 -0.2640
  105OSM   H18F10793   4.687   2.439   8.792  1.3806 -0.9232 -0.5249
  105OSM   H18G10794   4.846   2.527   8.740 -0.0989  2.4993 -1.3974
  105OSM   H18H10795   4.721   2.473   8.623  0.2697  0.8227 -0.5121
  106OSM      N10796   5.500   2.061  10.992  0.3782  0.9771 -0.1743
  106OSM    C1510797   5.515   2.039  11.138  0.4730  0.3548  0.3790
  106OSM   H15A10798   5.513   1.936  11.171 -1.0934  0.3584  0.3462
  106OSM   H15B10799   5.437   2.091  11.191  0.0450 -0.8348  0.9572
  106OSM   H15C10800   5.615   2.060  11.173  0.2216  1.3712  0.5002
  106OSM    C1410801   5.472   2.207  10.985 -0.0822 -0.1725  0.0627
  106OSM   H14A10802   5.397   2.241  11.055 -0.1150  0.2212 -0.1605
  106OSM   H14B10803   5.441   2.231  10.884 -2.1691 -1.7501  0.2700
  106OSM   H14C10804   5.561   2.261  11.016  0.2830  0.3425 -1.7812
  106OSM    C1310805   5.627   2.037  10.911 -0.1484  0.3548 -0.2295
  106OSM   H13A10806   5.717   2.063  10.964 -1.1722  2.9497  0.4374
  106OSM   H13B10807   5.626   2.100  10.823 -2.0620 -0.8864 -1.1542
  106OSM   H13C10808   5.632   1.934  10.880 -1.8451 -0.1828  1.0973
  106OSM    C1210809   5.384   1.980  10.941  0.2458  0.4616 -0.2342
  106OSM   H12A10810   5.322   1.972  11.029  2.3169 -0.3827  1.2421
  106OSM   H12B10811   5.413   1.877  10.930  0.1231  0.3720  0.2432
  106OSM    C1110812   5.295   2.023  10.822 -0.0735  0.1218  0.0980
  106OSM   H11A10813   5.355   2.024  10.729  2.8878 -0.4351  1.8301
  106OSM   H11B10814   5.265   2.129  10.831  0.1563  0.0708  2.0874
  106OSM      P10815   5.136   1.849  10.708  0.3471  0.0948 -0.0880
  106OSM    O1310816   5.223   1.736  10.684 -0.0080 -0.3569 -0.1305
  106OSM    O1410817   4.993   1.820  10.730 -0.0424 -0.4576 -0.7938
  106OSM    O1110818   5.148   1.951  10.589  0.1368  0.0212 -0.2421
  106OSM    O1210819   5.189   1.933  10.827  0.1496  0.6095 -0.0146
  106OSM    C1S10820   5.061   2.065  10.594 -0.0526  0.0626 -0.4707
  106OSM    H1S10821   5.098   2.127  10.678  0.2921  0.0099 -0.5798
  106OSM    H1T10822   4.955   2.035  10.611 -0.5937  1.4018 -1.3009
  106OSM     NF10823   4.992   2.276  10.483  0.0278 -0.1886  0.0407
  106OSM    HNF10824   4.894   2.270  10.461 -0.2935  2.6498  0.2947
  106OSM    C2S10825   5.061   2.155  10.463  0.1060 -0.2671  0.5378
  106OSM    H2S10826   5.163   2.185  10.431 -1.2944  1.8954 -2.3684
  106OSM    C3S10827   5.005   2.077  10.342 -0.3351  0.0577  0.1364
  106OSM    H3S10828   4.899   2.056  10.365  0.1148 -0.8018  1.5568
  106OSM     O310829   5.060   1.948  10.324 -0.4383 -0.2839 -0.2344
  106OSM    HO310830   5.130   1.942  10.389  1.2532 -0.4032 -1.9738
  106OSM    C4S10831   5.026   2.159  10.220 -0.4570 -0.2864 -0.1644
  106OSM    H4S10832   5.133   2.172  10.195 -0.3708 -4.0446 -2.6713
  106OSM    C5S10833   4.940   2.192  10.122  0.0642 -0.4146  0.0829
  106OSM    H5S10834   4.834   2.165  10.135 -0.3210  0.8494 -0.3320
  106OSM    C6S10835   4.977   2.276   9.999 -0.1499 -0.1167 -0.2149
  106OSM    H6S10836   5.022   2.217   9.916 -0.5778  1.9492 -2.0180
  106OSM    H6T10837   5.043   2.358  10.033  1.0801 -2.2959  3.1256
  106OSM    C7S10838   4.858   2.353   9.935 -0.8041  0.8230 -0.4464
  106OSM    H7S10839   4.821   2.422  10.013 -0.0339 -0.0793  0.7711
  106OSM    H7T10840   4.767   2.294   9.911 -0.7196  0.2962  0.4539
  106OSM    C8S10841   4.904   2.428   9.812 -0.8707  0.2795 -0.0939
  106OSM    H8S10842   4.972   2.514   9.831  1.1520 -0.6249 -2.6610
  106OSM    H8T10843   4.814   2.478   9.770 -1.7633  1.3829  2.8726
  106OSM    C9S10844   4.968   2.338   9.704  0.4840 -0.0038  0.2771
  106OSM    H9S10845   4.907   2.246   9.692 -1.5743  1.1897  1.0941
  106OSM    H9T10846   5.075   2.323   9.729  1.2768  4.2506  0.1888
  106OSM   C10S10847   4.962   2.407   9.563 -0.0616 -0.6508  0.3646
  106OSM   H10S10848   4.996   2.511   9.587  0.5089 -0.6159 -0.5588
  106OSM   H10T10849   4.859   2.426   9.526  0.8542  0.0240 -2.0557
  106OSM   C11S10850   5.041   2.340   9.446 -0.1787 -0.0408 -0.2106
  106OSM   H11S10851   4.995   2.242   9.423  0.3779 -0.1975 -0.6749
  106OSM   H11T10852   5.145   2.315   9.477 -1.0320 -2.2646  1.0537
  106OSM   C12S10853   5.046   2.421   9.319 -0.1950  0.4540 -0.5092
  106OSM   H12S10854   5.072   2.525   9.348  0.1020  0.5771 -1.2109
  106OSM   H12T10855   4.943   2.413   9.279 -0.7300  1.2022  0.6757
  106OSM   C13S10856   5.145   2.369   9.215  0.5920 -0.0300  0.9347
  106OSM   H13S10857   5.131   2.259   9.200  0.9414 -0.1262  1.3150
  106OSM   H13T10858   5.251   2.385   9.243  0.9059 -2.7018  1.5841
  106OSM   C14S10859   5.126   2.441   9.078  0.7804 -0.2585  0.1966
  106OSM   H14S10860   5.145   2.548   9.102  1.0180 -0.5020  1.1547
  106OSM   H14T10861   5.023   2.431   9.038  1.3007  0.6055 -1.4672
  106OSM   C15S10862   5.214   2.385   8.964  0.1763  0.0822 -0.3142
  106OSM   H15S10863   5.324   2.396   8.980  0.1198  2.2594 -1.0703
  106OSM   H15T10864   5.188   2.441   8.872 -0.6458 -0.7718 -0.6134
  106OSM   C16S10865   5.185   2.236   8.930 -0.1067  0.6400  0.3446
  106OSM   H16S10866   5.076   2.219   8.923  0.1593 -2.0283  1.3859
  106OSM   H16T10867   5.241   2.186   9.012  1.7529  0.3301 -1.0395
  106OSM   C17S10868   5.253   2.205   8.801 -0.0209 -0.1848  0.5173
  106OSM   H17S10869   5.356   2.245   8.795 -0.2051  0.4483  1.3022
  106OSM   H17T10870   5.192   2.256   8.723 -0.1439  2.2504  2.0787
  106OSM   C18S10871   5.267   2.056   8.770  0.4898  0.6651 -0.4686
  106OSM   H18S10872   5.268   2.027   8.662 -1.9448 -2.6635  0.2384
  106OSM   H18T10873   5.188   1.994   8.817 -0.1944  2.0187  0.2073
  106OSM   H18U10874   5.363   2.018   8.812  1.3579  1.7486 -1.3960
  106OSM    C1F10875   5.027   2.377  10.563  0.2728 -0.3723  0.5139
  106OSM     OF10876   5.121   2.376  10.634  0.4542  0.0419  0.0256
  106OSM    C2F10877   4.922   2.491  10.569 -0.7109  0.4049  0.6773
  106OSM    H2F10878   4.975   2.575  10.618 -0.3126  0.2767  0.4690
  106OSM    H2G10879   4.832   2.470  10.631 -0.4896  1.3667  1.3425
  106OSM    C3F10880   4.887   2.533  10.419 -0.1574  0.2463 -0.2186
  106OSM    H3F10881   4.803   2.600  10.445 -1.6544 -0.6804 -2.3961
  106OSM    H3G10882   4.841   2.461  10.348 -0.3458 -0.2824  0.4264
  106OSM    C4F10883   4.994   2.616  10.349 -0.4254  0.6964  0.8289
  106OSM    H4F10884   5.074   2.552  10.306 -1.8675  1.6629 -3.9890
  106OSM    H4G10885   5.039   2.685  10.423  0.5670 -0.0296  0.9087
  106OSM    C5F10886   4.945   2.685  10.217  0.2842  0.3319  0.4161
  106OSM    H5F10887   4.857   2.750  10.241 -0.0970  0.3405 -0.8994
  106OSM    H5G10888   4.916   2.610  10.141 -0.3126  2.6541 -1.8166
  106OSM    C6F10889   5.041   2.790  10.154 -0.1274 -0.0613 -0.1781
  106OSM    H6F10890   5.140   2.741  10.139 -0.6187 -1.2640  0.4111
  106OSM    H6G10891   5.055   2.876  10.223  0.2212  0.2851 -0.6715
  106OSM    C7F10892   4.985   2.844  10.024  0.3874 -0.5822  0.3710
  106OSM    H7F10893   4.890   2.891  10.058  0.3514 -0.0254 -0.4652
  106OSM    H7G10894   4.970   2.764   9.948  2.3736 -1.0958  0.4424
  106OSM    C8F10895   5.070   2.954   9.953 -0.2939 -0.7281 -0.7960
  106OSM    H8F10896   5.089   3.023  10.039  0.1430 -2.7026  0.7586
  106OSM    H8G10897   5.019   3.007   9.870 -0.3245  0.7332  0.1212
  106OSM    C9F10898   5.207   2.905   9.916 -0.0759 -0.2069  0.4955
  106OSM    H9F10899   5.270   2.875  10.000  1.8892 -0.0326 -0.8368
  106OSM   C10F10900   5.243   2.888   9.786  0.0692  0.0474 -0.0980
  106OSM   H10F10901   5.346   2.867   9.754  0.6703  0.6697  1.3571
  106OSM   C11F10902   5.154   2.920   9.671  0.8968 -0.1212  0.8052
  106OSM   H11F10903   5.122   3.026   9.665  1.5502  0.0170 -0.6871
  106OSM   H11G10904   5.061   2.859   9.677  0.8402 -0.1119  0.1541
  106OSM   C12F10905   5.227   2.888   9.539 -0.2956  0.6859 -0.0216
  106OSM   H12F10906   5.266   2.785   9.543  3.2124  1.8731  0.0732
  106OSM   H12G10907   5.313   2.954   9.513  0.6807 -0.2080  0.8504
  106OSM   C13F10908   5.129   2.908   9.420 -0.0802 -0.6179 -1.0875
  106OSM   H13F10909   5.100   3.015   9.418  1.0181 -0.2736  0.0083
  106OSM   H13G10910   5.042   2.848   9.454 -0.1105  1.0343  2.1841
  106OSM   C14F10911   5.175   2.862   9.282 -0.2173  0.4671 -0.2463
  106OSM   H14F10912   5.183   2.751   9.279 -2.3609  0.2916 -1.8157
  106OSM   H14G10913   5.281   2.894   9.278  0.0497 -0.0651  1.7416
  106OSM   C15F10914   5.087   2.897   9.162 -0.7131  0.3990  0.7723
  106OSM   H15F10915   4.987   2.851   9.177 -0.9521 -1.3925 -4.4211
  106OSM   H15G10916   5.128   2.861   9.065  0.1392 -0.8869  1.5852
  106OSM   C16F10917   5.069   3.055   9.142  0.2293 -0.6409  0.3236
  106OSM   H16F10918   5.165   3.109   9.139 -1.7009  3.0694 -1.0045
  106OSM   H16G10919   5.010   3.089   9.230  1.0999 -0.0173  0.6701
  106OSM   C17F10920   5.000   3.106   9.018 -0.2876 -0.2439  0.2079
  106OSM   H17F10921   5.068   3.079   8.934 -1.8380 -4.5301  0.1062
  106OSM   H17G10922   4.993   3.217   9.027  2.3759  0.0634 -0.5396
  106OSM   C18F10923   4.865   3.037   8.995 -0.7272 -0.1120 -0.6367
  106OSM   H18F10924   4.809   3.084   8.910 -0.1910  2.6432  0.4473
  106OSM   H18G10925   4.814   3.049   9.093  0.7510  0.0028  0.1320
  106OSM   H18H10926   4.886   2.929   8.982  0.1094 -0.0930  0.4909
  107OSM      N10927   5.294   4.432  11.119 -0.1936  0.1112 -0.3947
  107OSM    C1510928   5.195   4.352  11.203  0.2919  0.3353 -0.6973
  107OSM   H15A10929   5.105   4.334  11.148  0.0370 -1.6865  0.2632
  107OSM   H15B10930   5.154   4.409  11.284 -0.7423 -3.9332  2.1534
  107OSM   H15C10931   5.233   4.259  11.245 -2.5508 -0.4539  0.3363
  107OSM    C1410932   5.250   4.574  11.130 -0.3427  0.0529  0.5407
  107OSM   H14A10933   5.314   4.645  11.081 -3.3862  2.3373 -0.4116
  107OSM   H14B10934   5.245   4.604  11.233 -0.1807 -0.6788  0.7718
  107OSM   H14C10935   5.151   4.590  11.090  1.3004  3.5919 -2.6640
  107OSM    C1310936   5.434   4.431  11.178  0.4872  0.0900  0.2807
  107OSM   H13A10937   5.436   4.488  11.270 -1.4645  0.0334  0.3980
  107OSM   H13B10938   5.509   4.470  11.110 -0.4533 -1.3298 -1.6649
  107OSM   H13C10939   5.472   4.332  11.199 -0.1824 -0.1313  0.4542
  107OSM    C1210940   5.280   4.382  10.977 -0.4265 -0.2101 -0.1739
  107OSM   H12A10941   5.348   4.441  10.918 -0.1641  1.2283  1.4580
  107OSM   H12B10942   5.181   4.396  10.936  0.3048  1.1149 -1.6117
  107OSM    C1110943   5.315   4.234  10.950 -0.3176  0.4375  0.2998
  107OSM   H11A10944   5.415   4.216  10.996 -0.1599 -1.4455 -0.6906
  107OSM   H11B10945   5.330   4.219  10.841  2.6234 -0.2660  0.6984
  107OSM      P10946   5.096   4.095  10.925  0.1361 -0.0963  0.1171
  107OSM    O1310947   5.054   3.965  10.978 -0.1872  0.2921 -0.9537
  107OSM    O1410948   5.004   4.216  10.927  0.2576  0.0164 -0.3971
  107OSM    O1110949   5.156   4.077  10.775  0.1785  0.1276 -1.0248
  107OSM    O1210950   5.225   4.135  11.007  0.4013 -0.2884  0.8554
  107OSM    C1S10951   5.231   3.960  10.732 -0.3410 -0.4710  0.0202
  107OSM    H1S10952   5.176   3.866  10.754  1.2961 -1.3696  0.4981
  107OSM    H1T10953   5.333   3.948  10.775 -0.9992  0.7544  2.0918
  107OSM     NF10954   5.328   3.828  10.553  0.1535 -0.0845  0.3104
  107OSM    HNF10955   5.427   3.829  10.547  0.2439 -1.2605  1.2914
  107OSM    C2S10956   5.250   3.954  10.578 -0.3651 -0.2227 -0.1445
  107OSM    H2S10957   5.150   3.940  10.532 -1.1505 -0.8115  1.6560
  107OSM    C3S10958   5.323   4.085  10.535  0.1985 -0.2238 -0.2765
  107OSM    H3S10959   5.422   4.091  10.584  0.8871 -1.2238 -1.4788
  107OSM     O310960   5.256   4.205  10.567 -0.6735  0.1247 -0.3330
  107OSM    HO310961   5.212   4.187  10.651  0.4278  2.6174  0.8666
  107OSM    C4S10962   5.344   4.089  10.384 -0.4458  0.3746  0.0406
  107OSM    H4S10963   5.252   4.102  10.326 -1.0019 -1.0372  0.5639
  107OSM    C5S10964   5.464   4.075  10.323  0.2487 -0.0895 -0.0237
  107OSM    H5S10965   5.549   4.062  10.392 -0.1182 -0.9654  0.2867
  107OSM    C6S10966   5.503   4.065  10.175  0.0934  0.1645 -0.1857
  107OSM    H6S10967   5.554   3.967  10.164 -0.2858  0.0935 -1.4347
  107OSM    H6T10968   5.580   4.144  10.163  0.7063  0.0914  2.5988
  107OSM    C7S10969   5.387   4.074  10.080  0.8368  0.2903  0.1827
  107OSM    H7S10970   5.336   4.173  10.076 -1.0228 -0.6545 -3.2663
  107OSM    H7T10971   5.315   3.991  10.096  1.2944  0.2208  2.1689
  107OSM    C8S10972   5.435   4.045   9.932  0.1245  0.0608 -0.3855
  107OSM    H8S10973   5.466   3.940   9.915 -0.0712 -0.0006 -0.3658
  107OSM    H8T10974   5.517   4.116   9.910 -0.1946  1.0059  1.3207
  107OSM    C9S10975   5.316   4.066   9.835  0.2807  0.3985  0.1538
  107OSM    H9S10976   5.225   4.100   9.890 -1.2235 -0.7116 -1.5454
  107OSM    H9T10977   5.298   3.969   9.783  1.0627  0.6666 -0.6357
  107OSM   C10S10978   5.352   4.171   9.733  0.4506 -0.3686  0.2708
  107OSM   H10S10979   5.457   4.160   9.699  0.8849  2.7360  0.2787
  107OSM   H10T10980   5.354   4.260   9.800  2.0655 -0.1212 -0.0739
  107OSM   C11S10981   5.270   4.175   9.601 -0.3323 -0.4311  0.4593
  107OSM   H11S10982   5.283   4.278   9.562  0.4711 -0.6896  0.0344
  107OSM   H11T10983   5.161   4.160   9.621 -0.3383  0.9421  1.5931
  107OSM   C12S10984   5.323   4.077   9.496  0.4818  0.6844 -0.2572
  107OSM   H12S10985   5.429   4.050   9.511  0.2249 -0.1678  0.0861
  107OSM   H12T10986   5.317   4.136   9.402 -0.3371  2.6401  0.9605
  107OSM   C13S10987   5.236   3.949   9.477 -0.1310  0.6077  0.0319
  107OSM   H13S10988   5.220   3.906   9.578  0.9413  1.7742  0.7346
  107OSM   H13T10989   5.285   3.882   9.403 -0.0696  0.5303  0.1416
  107OSM   C14S10990   5.087   3.975   9.430 -0.3099 -0.1147 -0.0234
  107OSM   H14S10991   5.098   3.983   9.320  0.7569 -1.2024 -0.0230
  107OSM   H14T10992   5.046   4.073   9.462 -0.0419  0.1189 -0.3857
  107OSM   C15S10993   4.981   3.875   9.473  0.7373  0.1930 -0.0222
  107OSM   H15S10994   5.010   3.768   9.465 -1.5129 -0.7089  2.4567
  107OSM   H15T10995   4.894   3.892   9.406 -0.9200 -0.7299  1.8060
  107OSM   C16S10996   4.933   3.890   9.613 -0.7128 -0.1714 -0.1587
  107OSM   H16S10997   4.910   3.997   9.631 -0.0087 -0.2400  1.2970
  107OSM   H16T10998   5.013   3.851   9.680  0.7155  1.9489 -0.5215
  107OSM   C17S10999   4.799   3.814   9.645 -0.1574  0.4079 -0.0687
  107OSM   H17S11000   4.818   3.705   9.632 -1.5871 -0.0968  1.6449
  107OSM   H17T11001   4.728   3.849   9.567  0.2619  1.7390  0.1228
  107OSM   C18S11002   4.744   3.854   9.778  0.2306  0.5436 -0.2069
  107OSM   H18S11003   4.818   3.856   9.861  1.2327 -1.1553 -1.0093
  107OSM   H18T11004   4.667   3.778   9.805  0.9353 -0.2923 -0.5014
  107OSM   H18U11005   4.688   3.949   9.768  0.7006  0.6761 -1.7740
  107OSM    C1F11006   5.267   3.709  10.565 -0.4312 -0.0627 -0.4046
  107OSM     OF11007   5.141   3.697  10.586 -0.3311  0.4418 -0.4965
  107OSM    C2F11008   5.348   3.582  10.553 -0.1229  0.5565  0.6053
  107OSM    H2F11009   5.344   3.516  10.643  0.3899  0.5833  0.6528
  107OSM    H2G11010   5.454   3.613  10.545  0.2314 -1.0229 -1.4941
  107OSM    C3F11011   5.310   3.516  10.421 -0.6834  0.6155 -0.3114
  107OSM    H3F11012   5.202   3.493  10.434 -0.4513 -0.1256  0.4050
  107OSM    H3G11013   5.371   3.423  10.427  1.5020  2.0689  2.1008
  107OSM    C4F11014   5.345   3.588  10.292 -1.0677 -0.2462  0.1907
  107OSM    H4F11015   5.454   3.607  10.299 -0.8506 -1.6475  0.8216
  107OSM    H4G11016   5.295   3.687  10.293  0.0211  0.3464 -0.8677
  107OSM    C5F11017   5.320   3.508  10.165  0.2237 -0.1600 -0.0770
  107OSM    H5F11018   5.350   3.402  10.181 -1.2099 -0.5358  0.2379
  107OSM    H5G11019   5.381   3.559  10.088 -0.7457  1.5845  0.2711
  107OSM    C6F11020   5.180   3.509  10.111  0.4400 -0.5464 -0.0460
  107OSM    H6F11021   5.158   3.610  10.070  0.8929 -0.4853 -0.1379
  107OSM    H6G11022   5.110   3.498  10.197 -0.7611  0.9511 -0.7928
  107OSM    C7F11023   5.160   3.396  10.008 -0.1940 -0.3485 -1.3547
  107OSM    H7F11024   5.055   3.391   9.972 -0.6650 -1.6608  0.0900
  107OSM    H7G11025   5.188   3.298  10.051  4.9760  0.6715 -1.7408
  107OSM    C8F11026   5.234   3.424   9.875  0.2492  0.4008 -0.4442
  107OSM    H8F11027   5.198   3.341   9.810  0.4563  1.2189 -1.6329
  107OSM    H8G11028   5.337   3.385   9.887 -0.8201 -2.4079  0.4953
  107OSM    C9F11029   5.210   3.556   9.808  0.2566 -0.0826 -0.1260
  107OSM    H9F11030   5.106   3.576   9.778  0.5995  0.3752 -1.0130
  107OSM   C10F11031   5.304   3.644   9.776  0.1635  0.2517 -0.2387
  107OSM   H10F11032   5.280   3.736   9.720  0.9677 -0.6188 -2.0952
  107OSM   C11F11033   5.455   3.614   9.811 -1.0121 -0.0084 -0.0397
  107OSM   H11F11034   5.471   3.542   9.895  1.1347 -1.1062 -1.3176
  107OSM   H11G11035   5.507   3.707   9.843  0.4892 -0.7646 -0.2148
  107OSM   C12F11036   5.541   3.571   9.695  0.1029  0.6355  0.0881
  107OSM   H12F11037   5.499   3.478   9.653  1.3234 -0.5616  1.3999
  107OSM   H12G11038   5.640   3.544   9.739 -0.4174 -0.4089  0.6649
  107OSM   C13F11039   5.568   3.691   9.601  0.1688  0.1320  0.5110
  107OSM   H13F11040   5.619   3.768   9.662 -0.0890  0.4922  0.2826
  107OSM   H13G11041   5.465   3.731   9.583  0.1467  0.7000  1.8059
  107OSM   C14F11042   5.640   3.652   9.470 -0.0599  0.4355 -0.1443
  107OSM   H14F11043   5.740   3.613   9.496 -0.1771  0.4491  0.3336
  107OSM   H14G11044   5.663   3.745   9.413  0.5602  0.1531 -0.3621
  107OSM   C15F11045   5.568   3.552   9.380  0.4159  0.0136 -0.3887
  107OSM   H15F11046   5.508   3.500   9.458  1.3004  1.2136  1.1338
  107OSM   H15G11047   5.633   3.481   9.325 -1.0528 -0.2776 -1.8454
  107OSM   C16F11048   5.477   3.624   9.280 -0.1252 -0.4707  0.0107
  107OSM   H16F11049   5.541   3.685   9.213  1.8699 -1.4791  0.9385
  107OSM   H16G11050   5.409   3.698   9.327  1.1272  0.6770  0.0684
  107OSM   C17F11051   5.394   3.543   9.184  0.1998 -0.1033  0.4789
  107OSM   H17F11052   5.448   3.453   9.148  0.4331  0.6431 -1.1396
  107OSM   H17G11053   5.373   3.607   9.095  1.5798 -1.1417 -0.6303
  107OSM   C18F11054   5.268   3.494   9.249 -0.0207 -0.3536 -0.0925
  107OSM   H18F11055   5.198   3.577   9.273  2.9975  1.8650  1.5529
  107OSM   H18G11056   5.286   3.431   9.339 -0.9137 -1.2277 -0.4981
  107OSM   H18H11057   5.209   3.441   9.170  0.3093  0.6707 -1.0644
  108OSM      N11058   0.750   3.358  10.806  0.3290 -0.0089 -0.7773
  108OSM    C1511059   0.625   3.284  10.791  0.0811 -0.4244  0.0663
  108OSM   H15A11060   0.651   3.187  10.753  2.0458  0.5778 -1.3031
  108OSM   H15B11061   0.552   3.330  10.726  0.3606 -1.0960 -0.7336
  108OSM   H15C11062   0.582   3.277  10.890  0.5473  1.4494  0.4383
  108OSM    C1411063   0.797   3.368  10.662 -0.3316 -0.4832 -0.5773
  108OSM   H14A11064   0.817   3.273  10.614 -2.2288 -0.6816 -1.0684
  108OSM   H14B11065   0.887   3.428  10.658 -1.8964  2.1145  0.5781
  108OSM   H14C11066   0.730   3.421  10.597 -0.2406  0.3113 -0.0322
  108OSM    C1311067   0.720   3.489  10.859  0.3273 -0.2188 -0.0944
  108OSM   H13A11068   0.806   3.548  10.830  0.7414  0.4341  2.2432
  108OSM   H13B11069   0.710   3.500  10.966 -1.0548 -3.8150  0.2642
  108OSM   H13C11070   0.628   3.526  10.817 -0.4583 -1.2392  0.6870
  108OSM    C1211071   0.846   3.283  10.891  0.1321 -0.1244  0.2025
  108OSM   H12A11072   0.874   3.193  10.838 -0.9580 -0.5222  0.2734
  108OSM   H12B11073   0.783   3.256  10.975 -0.5198 -2.0425 -0.8263
  108OSM    C1111074   0.976   3.356  10.938  0.0063  0.4242 -0.4484
  108OSM   H11A11075   1.022   3.294  11.017  2.2124  1.4437 -0.8630
  108OSM   H11B11076   0.953   3.450  10.993 -1.2626  0.3634 -0.8306
  108OSM      P11077   1.135   3.258  10.758 -0.3848 -0.0323  0.5833
  108OSM    O1311078   1.246   3.220  10.844  0.1886 -0.0546 -0.2504
  108OSM    O1411079   1.034   3.155  10.722  0.2710  0.2010  0.0614
  108OSM    O1111080   1.183   3.319  10.621 -0.0280  0.2051 -0.0364
  108OSM    O1211081   1.061   3.383  10.825  0.0824  0.2818 -0.1025
  108OSM    C1S11082   1.252   3.443  10.631 -0.8598 -0.1234  0.3393
  108OSM    H1S11083   1.352   3.444  10.680 -1.3448  0.1648  1.3706
  108OSM    H1T11084   1.210   3.524  10.694 -1.8460 -0.5540  0.2576
  108OSM     NF11085   1.378   3.600  10.489 -0.1129 -0.3132  0.0286
  108OSM    HNF11086   1.364   3.679  10.548  1.5129  0.1606 -0.1584
  108OSM    C2S11087   1.262   3.507  10.482 -0.0461 -0.1020 -0.0828
  108OSM    H2S11088   1.292   3.425  10.413  0.7743 -0.7553  1.0233
  108OSM    C3S11089   1.121   3.562  10.441 -0.5148 -0.1633 -0.0671
  108OSM    H3S11090   1.094   3.647  10.508  1.7542  0.7744 -0.2700
  108OSM     O311091   1.027   3.462  10.450  0.3075  0.1879 -0.3864
  108OSM    HO311092   1.076   3.386  10.481 -0.4160 -0.7342 -1.4183
  108OSM    C4S11093   1.126   3.618  10.295 -0.6564 -0.1531  0.0065
  108OSM    H4S11094   1.079   3.554  10.219  1.5384 -1.8085 -0.0831
  108OSM    C5S11095   1.175   3.740  10.260 -0.0384 -0.2503 -0.8296
  108OSM    H5S11096   1.208   3.806  10.342  0.9321 -0.8204 -0.7330
  108OSM    C6S11097   1.183   3.788  10.122  0.4647  1.1816  0.3771
  108OSM    H6S11098   1.286   3.774  10.083 -0.4649 -0.6430 -1.5664
  108OSM    H6T11099   1.169   3.899  10.120 -1.4012  1.0181  1.7834
  108OSM    C7S11100   1.101   3.725  10.011 -0.4443  0.3092  0.0439
  108OSM    H7S11101   0.991   3.723  10.029 -0.6600  0.3011 -1.1932
  108OSM    H7T11102   1.139   3.622   9.997  0.6710  0.7987 -0.6614
  108OSM    C8S11103   1.110   3.819   9.883 -0.0869  0.2394  0.1203
  108OSM    H8S11104   1.210   3.868   9.882  0.7326 -1.3365  0.5451
  108OSM    H8T11105   1.036   3.901   9.888 -1.4413 -0.8840 -0.8650
  108OSM    C9S11106   1.075   3.735   9.750 -0.4467  0.1873 -0.7774
  108OSM    H9S11107   0.965   3.728   9.738 -0.4063 -2.0035 -0.3647
  108OSM    H9T11108   1.118   3.632   9.753 -0.5227  0.1818  0.9174
  108OSM   C10S11109   1.140   3.814   9.633  0.5310  0.1267  0.1169
  108OSM   H10S11110   1.250   3.820   9.653  0.9013 -0.2021 -1.6325
  108OSM   H10T11111   1.090   3.912   9.617 -0.7359 -0.4614  0.3776
  108OSM   C11S11112   1.111   3.739   9.499  0.4619  0.5828  0.2924
  108OSM   H11S11113   1.005   3.708   9.499 -0.0483  2.1111  2.2067
  108OSM   H11T11114   1.168   3.644   9.492 -1.0373 -0.2785 -0.9261
  108OSM   C12S11115   1.160   3.822   9.376  0.1071  0.4170  0.3544
  108OSM   H12S11116   1.268   3.841   9.390 -0.1254  2.4834 -0.2885
  108OSM   H12T11117   1.106   3.919   9.378 -1.0072 -0.1819  1.8131
  108OSM   C13S11118   1.125   3.750   9.245 -0.0887 -0.3403  0.0903
  108OSM   H13S11119   1.020   3.719   9.230  0.1144 -1.5973  1.0958
  108OSM   H13T11120   1.173   3.650   9.242  0.7087  0.0056  0.7810
  108OSM   C14S11121   1.194   3.819   9.128  0.4591  0.5308  0.5488
  108OSM   H14S11122   1.303   3.819   9.152  0.9021  1.7201 -1.2100
  108OSM   H14T11123   1.154   3.922   9.117 -0.8784  0.0918  1.2388
  108OSM   C15S11124   1.167   3.750   8.999 -0.5989 -0.0392  0.6193
  108OSM   H15S11125   1.059   3.734   8.981 -0.7339  0.3813  1.0464
  108OSM   H15T11126   1.214   3.649   9.011 -0.8317 -0.0689  1.3248
  108OSM   C16S11127   1.241   3.819   8.879  0.0581 -0.5455  0.1375
  108OSM   H16S11128   1.348   3.790   8.887 -0.4941 -2.2176  3.4584
  108OSM   H16T11129   1.252   3.929   8.878  2.0052 -0.7093 -0.6676
  108OSM   C17S11130   1.177   3.767   8.751  0.5361 -0.1051 -0.3202
  108OSM   H17S11131   1.073   3.797   8.728  0.4861 -0.8324 -1.0720
  108OSM   H17T11132   1.170   3.656   8.754  2.3575 -0.2317  1.1474
  108OSM   C18S11133   1.263   3.815   8.636 -0.1754 -0.0368  0.1680
  108OSM   H18S11134   1.368   3.789   8.662 -0.4743 -0.4652  0.9799
  108OSM   H18T11135   1.244   3.924   8.635  1.7222  0.3208 -0.5108
  108OSM   H18U11136   1.221   3.761   8.548 -0.7872  0.0785  0.3870
  108OSM    C1F11137   1.497   3.550  10.474 -0.6265 -0.6414 -0.0572
  108OSM     OF11138   1.503   3.435  10.442 -0.4437  0.4703  1.2868
  108OSM    C2F11139   1.617   3.630  10.512  0.1161 -0.4799 -0.1191
  108OSM    H2F11140   1.697   3.601  10.441 -0.0176  0.8001 -0.8198
  108OSM    H2G11141   1.645   3.600  10.616 -0.2396 -1.1399 -0.2131
  108OSM    C3F11142   1.604   3.790  10.505  0.1695 -0.1340  0.1297
  108OSM    H3F11143   1.697   3.843  10.533 -0.2229  0.4345  0.3717
  108OSM    H3G11144   1.525   3.818  10.578  0.5624  1.0633  0.1049
  108OSM    C4F11145   1.561   3.839  10.364  1.2598 -0.2432 -0.9416
  108OSM    H4F11146   1.497   3.929  10.376  2.7482  0.6639  0.8100
  108OSM    H4G11147   1.501   3.767  10.305 -1.2524  2.0942 -1.4379
  108OSM    C5F11148   1.681   3.894  10.289  0.2084  1.1666 -0.4913
  108OSM    H5F11149   1.741   3.803  10.270 -1.1659  0.2658 -0.6355
  108OSM    H5G11150   1.741   3.967  10.347 -0.5278  0.6513  0.9677
  108OSM    C6F11151   1.651   3.964  10.153 -0.7887  0.3319  0.7524
  108OSM    H6F11152   1.743   3.987  10.095  0.3636  0.7547  2.6615
  108OSM    H6G11153   1.600   4.058  10.183 -1.9683 -0.0247 -0.0800
  108OSM    C7F11154   1.562   3.882  10.063  0.0369 -0.7363  0.7861
  108OSM    H7F11155   1.460   3.881  10.105  0.0678 -1.8338  0.8661
  108OSM    H7G11156   1.596   3.776  10.058 -0.8901 -1.1124  2.0397
  108OSM    C8F11157   1.556   3.930   9.913  0.5424  0.0082 -0.2064
  108OSM    H8F11158   1.539   4.040   9.911 -1.7319 -0.2988 -0.7727
  108OSM    H8G11159   1.463   3.884   9.873  0.6257 -1.0342  0.7558
  108OSM    C9F11160   1.674   3.892   9.824  0.5361  0.0931 -0.8255
  108OSM    H9F11161   1.703   3.787   9.841 -0.0327 -0.0160 -0.5166
  108OSM   C10F11162   1.748   3.963   9.737 -0.0939  0.1902  0.3925
  108OSM   H10F11163   1.827   3.914   9.678  0.6094 -0.6153  1.9642
  108OSM   C11F11164   1.706   4.100   9.704 -0.2738 -0.0833 -0.6066
  108OSM   H11F11165   1.785   4.176   9.723 -0.2851 -0.4509  1.0393
  108OSM   H11G11166   1.610   4.130   9.750  0.0872 -0.2555  0.2905
  108OSM   C12F11167   1.668   4.110   9.550 -0.6053 -0.0908 -0.3319
  108OSM   H12F11168   1.625   4.208   9.523 -0.9906 -0.1745 -0.0241
  108OSM   H12G11169   1.584   4.040   9.531 -0.0754 -0.4186 -1.5175
  108OSM   C13F11170   1.781   4.081   9.451 -0.2095  0.7528 -0.0888
  108OSM   H13F11171   1.813   3.975   9.459 -0.8544  0.6823  2.1854
  108OSM   H13G11172   1.870   4.146   9.465  1.4224 -0.9917 -1.8600
  108OSM   C14F11173   1.729   4.093   9.304 -0.0598  0.0633  0.6180
  108OSM   H14F11174   1.815   4.132   9.246 -0.0003 -2.1324 -0.8756
  108OSM   H14G11175   1.643   4.161   9.289 -0.4844 -0.7382 -0.7900
  108OSM   C15F11176   1.705   3.957   9.232 -0.6658  0.1675 -0.0298
  108OSM   H15F11177   1.625   3.897   9.279 -1.2147  0.0628 -1.0811
  108OSM   H15G11178   1.801   3.905   9.252  1.1385  3.8409  1.8472
  108OSM   C16F11179   1.667   3.984   9.086  0.3480 -1.0912 -0.3303
  108OSM   H16F11180   1.744   4.025   9.017 -2.5588 -0.1913 -3.3224
  108OSM   H16G11181   1.576   4.047   9.085  2.0694  1.5279 -0.6494
  108OSM   C17F11182   1.631   3.851   9.022 -0.0633 -0.5905 -0.3897
  108OSM   H17F11183   1.545   3.805   9.075  0.8806 -2.2272 -0.2075
  108OSM   H17G11184   1.714   3.781   9.042 -0.2629 -0.7168  0.0081
  108OSM   C18F11185   1.600   3.855   8.871 -0.1439 -0.3204 -0.1047
  108OSM   H18F11186   1.559   3.764   8.821  1.2010 -1.6979  1.2049
  108OSM   H18G11187   1.685   3.903   8.818  1.0260 -1.0545  1.0548
  108OSM   H18H11188   1.524   3.935   8.864 -0.4353 -0.6444 -0.7968
  109OSM      N11189   3.716   3.655  10.794 -0.3509  0.7303 -0.4415
  109OSM    C1511190   3.797   3.632  10.668  0.7777  0.9041  0.2513
  109OSM   H15A11191   3.898   3.659  10.696  0.3098  3.0284  0.1015
  109OSM   H15B11192   3.759   3.677  10.578 -2.9405 -0.6833  0.8473
  109OSM   H15C11193   3.799   3.525  10.653  0.9148  0.9963 -0.3955
  109OSM    C1411194   3.773   3.566  10.901  0.9805 -0.2124 -0.2492
  109OSM   H14A11195   3.861   3.610  10.946  0.8125  0.2719 -0.3909
  109OSM   H14B11196   3.790   3.467  10.862 -0.2498 -0.5850  0.1062
  109OSM   H14C11197   3.696   3.561  10.976 -0.1117  2.7152 -1.0411
  109OSM    C1311198   3.716   3.795  10.841 -0.0926  0.3606  0.3737
  109OSM   H13A11199   3.657   3.811  10.930 -0.9519 -0.9368  0.0601
  109OSM   H13B11200   3.674   3.856  10.762 -0.5369 -0.6882 -0.2218
  109OSM   H13C11201   3.816   3.831  10.862  0.3254 -0.1027 -0.7170
  109OSM    C1211202   3.577   3.601  10.771  0.1926 -0.0276 -0.7010
  109OSM   H12A11203   3.591   3.496  10.751  1.9097 -0.0423  0.3915
  109OSM   H12B11204   3.534   3.650  10.685  0.9785  0.4091 -0.8582
  109OSM    C1111205   3.474   3.617  10.885 -0.1606 -0.5919 -0.1269
  109OSM   H11A11206   3.519   3.581  10.981  1.9775 -0.0115 -0.8482
  109OSM   H11B11207   3.384   3.559  10.858  0.6949 -1.2346 -1.7412
  109OSM      P11208   3.345   3.832  10.811 -0.2602  0.4329  0.0049
  109OSM    O1311209   3.206   3.845  10.854  0.3157 -0.5444 -1.0022
  109OSM    O1411210   3.420   3.953  10.781  0.2195 -0.2105  0.0023
  109OSM    O1111211   3.350   3.731  10.691 -0.1036 -0.3587  0.3174
  109OSM    O1211212   3.440   3.755  10.914  0.1638 -0.3632 -0.1072
  109OSM    C1S11213   3.375   3.791  10.562  0.7996  0.4980  0.3619
  109OSM    H1S11214   3.466   3.855  10.554  0.7374  0.3943 -1.6666
  109OSM    H1T11215   3.294   3.861  10.533  1.7399  0.8536 -1.5808
  109OSM     NF11216   3.398   3.742  10.329  0.4407  0.5442  0.4363
  109OSM    HNF11217   3.308   3.757  10.288 -0.3934 -3.0639  0.5814
  109OSM    C2S11218   3.383   3.674  10.452  0.1887 -0.4943  0.0959
  109OSM    H2S11219   3.475   3.617  10.477  0.2663  0.1152  1.2930
  109OSM    C3S11220   3.261   3.578  10.464 -0.5147  0.2862  0.9925
  109OSM    H3S11221   3.168   3.637  10.453 -0.2367  0.4724 -0.6293
  109OSM     O311222   3.236   3.519  10.589  0.1052  0.1682 -0.5424
  109OSM    HO311223   3.283   3.582  10.644  2.7911 -0.8782 -1.4624
  109OSM    C4S11224   3.274   3.468  10.368 -0.3099 -0.0936  1.0028
  109OSM    H4S11225   3.350   3.391  10.387  1.1292  0.9662 -0.2348
  109OSM    C5S11226   3.180   3.450  10.276  0.3114 -0.0605 -0.1780
  109OSM    H5S11227   3.094   3.518  10.275  0.2654 -0.0854  1.0207
  109OSM    C6S11228   3.170   3.340  10.178 -0.6892  0.2670 -0.0375
  109OSM    H6S11229   3.077   3.279  10.180 -2.3223  2.6239  1.4453
  109OSM    H6T11230   3.252   3.268  10.197 -1.8931 -1.2052 -0.2282
  109OSM    C7S11231   3.193   3.405  10.043  0.0521  0.5194  0.6478
  109OSM    H7S11232   3.294   3.449  10.028  1.7469 -1.8788  3.7232
  109OSM    H7T11233   3.107   3.471  10.018 -0.2536 -0.1985 -0.2565
  109OSM    C8S11234   3.186   3.294   9.934 -0.1037 -0.2147  0.0851
  109OSM    H8S11235   3.092   3.236   9.937 -0.1910 -0.0571  0.4099
  109OSM    H8T11236   3.267   3.221   9.954  0.1499  0.1542  0.4196
  109OSM    C9S11237   3.194   3.358   9.790  0.2379 -0.0202  0.2664
  109OSM    H9S11238   3.302   3.385   9.783  0.3113 -0.6818 -1.9621
  109OSM    H9T11239   3.124   3.443   9.780 -1.1306 -1.1976 -0.6222
  109OSM   C10S11240   3.159   3.262   9.670  0.1973 -0.8959 -0.3240
  109OSM   H10S11241   3.056   3.226   9.689  0.0391 -0.7371 -0.8519
  109OSM   H10T11242   3.219   3.169   9.678 -2.3206 -2.8405 -2.1742
  109OSM   C11S11243   3.181   3.340   9.536 -0.2036 -0.6822 -0.3880
  109OSM   H11S11244   3.290   3.340   9.513 -0.1933  3.2180 -1.0377
  109OSM   H11T11245   3.163   3.447   9.557  0.1383 -0.1265 -2.6734
  109OSM   C12S11246   3.105   3.294   9.416  0.5402  0.5843 -0.0470
  109OSM   H12S11247   2.999   3.278   9.444  0.7005 -1.3910 -0.4556
  109OSM   H12T11248   3.144   3.195   9.383 -0.7490  0.4735 -1.3063
  109OSM   C13S11249   3.110   3.388   9.292 -0.6733  0.1428 -0.3837
  109OSM   H13S11250   3.218   3.398   9.267  0.1052 -0.7633  2.2205
  109OSM   H13T11251   3.084   3.492   9.320  1.2800  0.3467  0.8689
  109OSM   C14S11252   3.025   3.328   9.170  0.0386 -0.0008  0.7072
  109OSM   H14S11253   2.930   3.307   9.225  1.7046 -1.8044  3.1466
  109OSM   H14T11254   3.076   3.233   9.141  1.5356  1.0771 -0.3184
  109OSM   C15S11255   2.997   3.432   9.059 -0.1689 -0.1471  0.5149
  109OSM   H15S11256   2.943   3.524   9.090  0.2039  1.1922 -2.4667
  109OSM   H15T11257   2.936   3.387   8.979  0.8560 -0.7032  0.0268
  109OSM   C16S11258   3.127   3.476   8.992 -0.1077 -0.6220 -0.1370
  109OSM   H16S11259   3.190   3.389   8.964  0.7206  0.1948 -0.8597
  109OSM   H16T11260   3.179   3.539   9.068 -3.2435  0.6652  1.1158
  109OSM   C17S11261   3.101   3.573   8.881  0.2724 -0.0682 -0.4563
  109OSM   H17S11262   3.057   3.664   8.927 -1.8435 -1.7664  1.1188
  109OSM   H17T11263   3.031   3.531   8.806  0.3270  0.3064 -0.7166
  109OSM   C18S11264   3.230   3.604   8.805 -0.2257  0.4259  0.4415
  109OSM   H18S11265   3.242   3.521   8.731  0.0770  1.5186 -0.7682
  109OSM   H18T11266   3.321   3.621   8.865  1.3713 -0.1447 -1.6794
  109OSM   H18U11267   3.211   3.697   8.748 -0.1451  0.5812  0.6684
  109OSM    C1F11268   3.520   3.792  10.291 -0.7816  0.5457 -0.0390
  109OSM     OF11269   3.620   3.758  10.357 -0.7646 -0.3996  0.4393
  109OSM    C2F11270   3.515   3.879  10.161 -0.4301 -0.3198  0.4455
  109OSM    H2F11271   3.620   3.914  10.150 -0.5831  0.1805  0.5847
  109OSM    H2G11272   3.461   3.973  10.184 -0.0120  0.1244 -0.3509
  109OSM    C3F11273   3.459   3.827  10.034  0.2534 -0.1464 -0.3328
  109OSM    H3F11274   3.481   3.887   9.943  1.0749 -1.2823 -0.9174
  109OSM    H3G11275   3.350   3.807  10.044  0.6283 -2.3929 -0.2183
  109OSM    C4F11276   3.515   3.683  10.000  0.8720  0.5447  0.9420
  109OSM    H4F11277   3.480   3.612  10.078 -2.0799 -0.3282 -1.0186
  109OSM    H4G11278   3.626   3.685  10.004  0.8447  0.9684  1.9335
  109OSM    C5F11279   3.457   3.633   9.866  0.2103  0.1076 -1.1904
  109OSM    H5F11280   3.346   3.622   9.864  0.1155  0.9572 -1.2844
  109OSM    H5G11281   3.498   3.531   9.854  1.7342  0.4725  0.4553
  109OSM    C6F11282   3.502   3.715   9.738  0.4985 -0.1628  1.0318
  109OSM    H6F11283   3.612   3.729   9.729  0.2992  1.1335  0.4685
  109OSM    H6G11284   3.459   3.817   9.748  3.1095  1.4028 -1.9325
  109OSM    C7F11285   3.449   3.656   9.603 -0.6205 -0.6003 -0.7601
  109OSM    H7F11286   3.344   3.690   9.610 -0.2973  0.1104  1.5208
  109OSM    H7G11287   3.457   3.545   9.599  1.0874 -0.5735  0.5637
  109OSM    C8F11288   3.529   3.718   9.483  0.3628  0.6371  0.3782
  109OSM    H8F11289   3.632   3.677   9.472  1.2665  3.0562 -1.2206
  109OSM    H8G11290   3.546   3.827   9.501 -1.4533  0.8282  1.1892
  109OSM    C9F11291   3.458   3.705   9.348  0.3040 -0.1953 -0.3676
  109OSM    H9F11292   3.381   3.781   9.327  0.0719 -0.4948 -0.6181
  109OSM   C10F11293   3.485   3.607   9.266 -0.1426 -0.2712 -0.1990
  109OSM   H10F11294   3.433   3.605   9.169 -0.5938  1.0861  0.0005
  109OSM   C11F11295   3.575   3.486   9.286 -0.3872 -0.0161 -0.0930
  109OSM   H11F11296   3.631   3.479   9.382  0.8625  0.6766 -0.7445
  109OSM   H11G11297   3.657   3.499   9.213  1.4461  2.0503  2.1457
  109OSM   C12F11298   3.497   3.355   9.253 -0.2618 -0.6263 -0.1583
  109OSM   H12F11299   3.409   3.363   9.321  0.7485  3.5656  0.9102
  109OSM   H12G11300   3.552   3.265   9.287  0.4943  0.2995  1.1480
  109OSM   C13F11301   3.460   3.314   9.108  0.1571  0.2019  0.4226
  109OSM   H13F11302   3.552   3.322   9.046 -1.3344  0.8717 -1.8339
  109OSM   H13G11303   3.393   3.386   9.056 -0.1322  1.5680  2.5280
  109OSM   C14F11304   3.396   3.176   9.102  1.2982 -0.7311  0.2473
  109OSM   H14F11305   3.291   3.188   9.137  0.7481 -0.4322 -1.4197
  109OSM   H14G11306   3.443   3.114   9.181  0.1442  1.1899  2.5752
  109OSM   C15F11307   3.393   3.103   8.966  0.2872 -0.4266  0.5526
  109OSM   H15F11308   3.351   3.002   8.985 -4.4094  1.1815  0.1356
  109OSM   H15G11309   3.491   3.093   8.916  0.2975  1.1419  0.1852
  109OSM   C16F11310   3.297   3.165   8.861 -0.3702  0.4216 -0.1882
  109OSM   H16F11311   3.337   3.267   8.843  0.5764  0.8585  3.5807
  109OSM   H16G11312   3.197   3.161   8.910  0.7753 -0.2951  2.1763
  109OSM   C17F11313   3.294   3.085   8.725 -0.0301  0.2004 -0.2129
  109OSM   H17F11314   3.265   2.983   8.759 -2.4175  0.7646 -0.3891
  109OSM   H17G11315   3.388   3.072   8.667 -0.1723 -0.7663 -0.2412
  109OSM   C18F11316   3.184   3.141   8.636 -0.7218  0.2491  0.2239
  109OSM   H18F11317   3.171   3.061   8.560 -1.6529 -0.0486  0.6741
  109OSM   H18G11318   3.198   3.244   8.597 -0.3570  0.0609 -0.1551
  109OSM   H18H11319   3.092   3.140   8.699 -0.9025  1.5263  0.0098
  110OSM      N11320   5.701   1.471  11.064  0.5119  0.3739  0.8305
  110OSM    C1511321   5.744   1.343  11.127  0.0399 -0.1265  0.6028
  110OSM   H15A11322   5.778   1.361  11.228  1.5254  1.3390 -0.1168
  110OSM   H15B11323   5.821   1.290  11.074 -1.3630 -1.9286  0.2502
  110OSM   H15C11324   5.667   1.267  11.129  1.6671 -1.9038 -0.8847
  110OSM    C1411325   5.568   1.526  11.125  0.5322 -0.3251  0.3129
  110OSM   H14A11326   5.594   1.577  11.217  3.0206 -1.0857  0.1003
  110OSM   H14B11327   5.494   1.450  11.146  1.5284 -0.8755  1.9622
  110OSM   H14C11328   5.526   1.597  11.055  0.4405  0.5711  1.2614
  110OSM    C1311329   5.795   1.581  11.087 -0.3069 -0.3222 -0.0202
  110OSM   H13A11330   5.796   1.614  11.190  0.5732  1.1804 -0.4793
  110OSM   H13B11331   5.779   1.667  11.023  0.1260 -1.1562 -1.2880
  110OSM   H13C11332   5.894   1.539  11.074 -0.0776 -0.7282  2.5935
  110OSM    C1211333   5.688   1.453  10.910 -0.1041 -0.3105  0.0078
  110OSM   H12A11334   5.647   1.542  10.864 -0.1250 -0.9682 -1.2764
  110OSM   H12B11335   5.614   1.379  10.885 -1.3975  1.4457 -1.6596
  110OSM    C1111336   5.821   1.425  10.832 -0.4335 -0.7474  0.2470
  110OSM   H11A11337   5.890   1.511  10.819  2.2030 -3.0325 -2.1581
  110OSM   H11B11338   5.786   1.414  10.727  0.3922  2.4631 -0.4931
  110OSM      P11339   5.877   1.175  10.826  0.1457  0.1776  0.4183
  110OSM    O1311340   5.955   1.080  10.901  0.1585  0.2960  0.1673
  110OSM    O1411341   5.728   1.159  10.821 -0.4928  0.0344 -0.3964
  110OSM    O1111342   5.937   1.190  10.677 -0.2851 -0.0460 -0.1074
  110OSM    O1211343   5.901   1.318  10.880 -0.3866  0.5798 -0.3944
  110OSM    C1S11344   5.849   1.168  10.567 -0.3375  0.0102  0.4068
  110OSM    H1S11345   5.787   1.255  10.538 -0.6587 -0.5824 -0.7750
  110OSM    H1T11346   5.778   1.085  10.587 -0.0469 -0.2393  0.4158
  110OSM     NF11347   5.831   1.144  10.320 -0.1257 -0.2003 -0.1072
  110OSM    HNF11348   5.800   1.060  10.276 -0.7262 -1.1949  2.0966
  110OSM    C2S11349   5.922   1.132  10.431 -0.0018 -0.0111 -0.2569
  110OSM    H2S11350   5.997   1.214  10.419 -0.0074  0.1782  0.8704
  110OSM    C3S11351   5.985   0.993  10.443  0.2928  0.3814  0.1374
  110OSM    H3S11352   5.913   0.910  10.432 -1.3189  1.5904  1.1569
  110OSM     O311353   6.052   0.965  10.568  0.3069 -0.2933  0.3867
  110OSM    HO311354   6.038   1.046  10.617 -1.6748 -0.7196  0.5972
  110OSM    C4S11355   6.088   0.981  10.331 -0.5295 -0.8528 -0.3961
  110OSM    H4S11356   6.185   1.019  10.367 -1.1004  2.3139 -1.8429
  110OSM    C5S11357   6.090   0.922  10.206 -0.3989 -0.0485  0.8936
  110OSM    H5S11358   5.992   0.892  10.165 -0.3832  0.1593  0.6973
  110OSM    C6S11359   6.204   0.935  10.102  0.3242  0.1009 -1.0331
  110OSM    H6S11360   6.183   0.841  10.046  2.1764 -1.4462  0.6812
  110OSM    H6T11361   6.303   0.918  10.150 -0.6426  2.8304  2.4194
  110OSM    C7S11362   6.201   1.059  10.008 -0.1981 -0.3967  0.5860
  110OSM    H7S11363   6.221   1.148  10.072 -2.3033  0.3635  0.2574
  110OSM    H7T11364   6.101   1.064   9.961  0.7579  0.0158 -1.5069
  110OSM    C8S11365   6.313   1.033   9.909 -0.5464 -0.4552 -0.3377
  110OSM    H8S11366   6.279   0.963   9.830 -2.1279 -1.5416  1.2366
  110OSM    H8T11367   6.397   0.988   9.966 -1.8766 -0.4191  1.7396
  110OSM    C9S11368   6.374   1.159   9.851 -1.0316 -0.7335  0.5512
  110OSM    H9S11369   6.397   1.222   9.939  0.5122 -0.5755  0.0692
  110OSM    H9T11370   6.301   1.220   9.794 -1.3305 -0.5098  1.1687
  110OSM   C10S11371   6.494   1.126   9.763  0.4426  0.3768  0.4267
  110OSM   H10S11372   6.486   1.027   9.713 -0.7705  0.5978  0.1273
  110OSM   H10T11373   6.575   1.132   9.839 -0.1308  0.2557  1.0591
  110OSM   C11S11374   6.515   1.224   9.649 -0.3073 -0.4253 -1.0628
  110OSM   H11S11375   6.542   1.324   9.687  0.2061 -1.0842  0.3868
  110OSM   H11T11376   6.424   1.232   9.586  0.0710  1.2881 -1.4367
  110OSM   C12S11377   6.630   1.173   9.552  0.4175 -1.1887 -0.2062
  110OSM   H12S11378   6.609   1.073   9.509 -2.9245 -0.7267  0.0736
  110OSM   H12T11379   6.724   1.157   9.609 -1.2296 -1.4994  2.6078
  110OSM   C13S11380   6.669   1.278   9.446 -0.4611  0.4184 -0.0216
  110OSM   H13S11381   6.694   1.370   9.501  1.6793  0.0642 -0.3136
  110OSM   H13T11382   6.582   1.287   9.378 -0.3912 -3.7137 -0.9361
  110OSM   C14S11383   6.792   1.236   9.370 -0.9163 -0.3043  0.5706
  110OSM   H14S11384   6.770   1.135   9.330  1.5220 -0.9527  0.6925
  110OSM   H14T11385   6.882   1.215   9.432 -1.3759 -1.4912  0.8598
  110OSM   C15S11386   6.827   1.332   9.262 -0.0118 -0.2337 -0.0148
  110OSM   H15S11387   6.836   1.430   9.314 -3.0771  0.0676  0.1455
  110OSM   H15T11388   6.743   1.345   9.190  1.0701 -0.5480 -1.3708
  110OSM   C16S11389   6.958   1.311   9.192 -0.6537  0.3530 -0.0103
  110OSM   H16S11390   6.951   1.205   9.163 -1.8266  0.3002  0.4145
  110OSM   H16T11391   7.040   1.316   9.268  1.5216 -0.0894 -2.1902
  110OSM   C17S11392   6.977   1.415   9.084 -0.6730 -0.6386  0.3118
  110OSM   H17S11393   6.981   1.511   9.140 -0.6299  0.2079 -1.0867
  110OSM   H17T11394   6.896   1.431   9.009  0.0899  2.8198  0.0587
  110OSM   C18S11395   7.106   1.403   8.998 -0.4898  0.2700 -0.0200
  110OSM   H18S11396   7.117   1.298   8.964 -2.8325  0.5862 -2.0177
  110OSM   H18T11397   7.198   1.421   9.058 -1.0456 -0.3614  1.0492
  110OSM   H18U11398   7.093   1.472   8.912 -0.3250  0.9496  0.4846
  110OSM    C1F11399   5.782   1.262  10.274  0.5642  0.3326 -0.4946
  110OSM     OF11400   5.819   1.369  10.322 -1.0021 -0.1243  0.6218
  110OSM    C2F11401   5.689   1.261  10.165 -0.2637 -0.3053 -0.2069
  110OSM    H2F11402   5.620   1.348  10.172  0.5948  0.2698  2.0724
  110OSM    H2G11403   5.632   1.166  10.179  0.0889 -0.4060  0.5962
  110OSM    C3F11404   5.758   1.254  10.031  0.3303  0.3607  0.9939
  110OSM    H3F11405   5.675   1.248   9.958 -0.9534 -1.3228  2.5044
  110OSM    H3G11406   5.829   1.169  10.029  2.2050  1.8401  1.6070
  110OSM    C4F11407   5.838   1.381  10.000  1.0181 -0.0522  0.6776
  110OSM    H4F11408   5.930   1.393  10.062  0.8557 -2.8710  1.5749
  110OSM    H4G11409   5.771   1.462  10.038 -0.5464 -0.4480 -1.1319
  110OSM    C5F11410   5.871   1.408   9.845  0.7259  0.0127  0.3293
  110OSM    H5F11411   5.917   1.509   9.840  3.4014 -0.9671  2.3059
  110OSM    H5G11412   5.784   1.408   9.777  1.7169  1.1598 -1.0039
  110OSM    C6F11413   5.971   1.302   9.790 -0.3366  0.0276 -0.3026
  110OSM    H6F11414   6.027   1.275   9.882  0.3202  2.3821  0.0478
  110OSM    H6G11415   6.046   1.348   9.723  0.1772  1.4998  1.2212
  110OSM    C7F11416   5.917   1.173   9.726 -0.0416  0.0786 -0.1615
  110OSM    H7F11417   5.856   1.121   9.804  0.5346  1.0889  1.0026
  110OSM    H7G11418   6.002   1.112   9.690 -0.0667  0.2755 -0.5580
  110OSM    C8F11419   5.829   1.190   9.600  0.6715 -0.1115  0.4497
  110OSM    H8F11420   5.887   1.254   9.530 -0.8666  2.5888  1.4693
  110OSM    H8G11421   5.733   1.238   9.630 -0.0590 -0.9971 -0.4081
  110OSM    C9F11422   5.794   1.055   9.540 -0.5180  0.4773  0.2195
  110OSM    H9F11423   5.745   0.981   9.605 -0.1690  0.0841  0.0388
  110OSM   C10F11424   5.816   1.018   9.416  0.0270 -0.2202 -0.4452
  110OSM   H10F11425   5.771   0.921   9.390  1.1853 -2.1377  3.8548
  110OSM   C11F11426   5.867   1.112   9.312 -0.0508 -0.2250 -0.8527
  110OSM   H11F11427   5.931   1.195   9.348  0.2625 -0.6346 -0.4425
  110OSM   H11G11428   5.783   1.173   9.271  0.8875  3.2078  1.8626
  110OSM   C12F11429   5.922   1.041   9.192 -0.0243  0.3418  0.0103
  110OSM   H12F11430   5.843   0.975   9.150  1.2140 -2.8881  2.4066
  110OSM   H12G11431   6.008   0.980   9.227 -1.6077 -2.6421 -1.0048
  110OSM   C13F11432   5.962   1.133   9.069 -0.3269 -0.8214 -0.1068
  110OSM   H13F11433   6.057   1.092   9.028 -0.6370 -0.2542 -1.4588
  110OSM   H13G11434   5.979   1.236   9.107 -1.6482 -1.0525  1.1730
  110OSM   C14F11435   5.849   1.141   8.967 -0.3491  0.1045  0.6422
  110OSM   H14F11436   5.759   1.192   9.007 -0.9018  0.0234 -0.4607
  110OSM   H14G11437   5.808   1.042   8.936 -0.6141  0.6459 -0.8491
  110OSM   C15F11438   5.904   1.214   8.844 -0.6179  0.0431  0.6925
  110OSM   H15F11439   5.996   1.161   8.811 -0.5670  1.3908 -1.4664
  110OSM   H15G11440   5.929   1.318   8.874 -0.1926  0.2628 -0.4029
  110OSM   C16F11441   5.808   1.203   8.718  0.1514  0.6957  1.2163
  110OSM   H16F11442   5.798   1.094   8.696  0.7704  0.6535  1.1328
  110OSM   H16G11443   5.852   1.242   8.624 -1.3600 -1.8031 -0.6639
  110OSM   C17F11444   5.672   1.275   8.740  0.1506  0.1767 -0.0826
  110OSM   H17F11445   5.690   1.375   8.786 -2.5530  1.1288 -0.9152
  110OSM   H17G11446   5.611   1.211   8.808 -0.0376 -1.8079 -2.0299
  110OSM   C18F11447   5.581   1.283   8.615 -0.4628 -0.5389  0.1136
  110OSM   H18F11448   5.570   1.178   8.581  2.7294 -0.6660 -0.8661
  110OSM   H18G11449   5.632   1.336   8.531  5.0657 -0.9111  2.8029
  110OSM   H18H11450   5.479   1.326   8.629 -1.0135 -1.4276 -1.0076
  111OSM      N11451   2.953   6.693  10.845  0.0084  0.5001 -0.0263
  111OSM    C1511452   3.075   6.727  10.761 -0.3920  0.0436 -0.3479
  111OSM   H15A11453   3.113   6.818  10.806 -0.6801  0.5585 -1.1294
  111OSM   H15B11454   3.051   6.756  10.660 -1.9970  3.7723  0.8878
  111OSM   H15C11455   3.152   6.652  10.762 -0.3415  0.0964  0.0763
  111OSM    C1411456   2.886   6.571  10.795 -0.8215  0.6447 -0.3236
  111OSM   H14A11457   2.857   6.571  10.691 -0.2390 -0.5283 -0.5063
  111OSM   H14B11458   2.799   6.549  10.856  0.5242 -1.2264  1.0489
  111OSM   H14C11459   2.941   6.479  10.812 -0.4544  0.3230 -2.8602
  111OSM    C1311460   2.996   6.648  10.987 -0.1690 -0.3193  0.1205
  111OSM   H13A11461   3.067   6.567  10.979  1.9698  1.4835 -0.2062
  111OSM   H13B11462   2.911   6.632  11.051 -1.1641  0.0253 -1.0670
  111OSM   H13C11463   3.060   6.726  11.027  0.1164  0.4430 -1.6811
  111OSM    C1211464   2.865   6.817  10.855  0.4984  0.6403 -0.1562
  111OSM   H12A11465   2.772   6.783  10.899  1.9415 -1.1843  1.6767
  111OSM   H12B11466   2.835   6.856  10.759 -0.7956  0.8346  0.3072
  111OSM    C1111467   2.910   6.937  10.946 -0.2805 -0.4944  0.5933
  111OSM   H11A11468   2.920   6.895  11.048  0.0112 -1.9520 -0.0239
  111OSM   H11B11469   2.835   7.018  10.964 -1.3189 -1.0120 -1.1651
  111OSM      P11470   3.042   7.094  10.791 -0.4767  0.0023  0.1727
  111OSM    O1311471   3.032   7.232  10.850 -0.2854  0.5733 -0.1720
  111OSM    O1411472   3.167   7.064  10.719  0.5181  0.3418  0.5342
  111OSM    O1111473   2.923   7.052  10.699  0.3008 -0.3645  0.2178
  111OSM    O1211474   3.033   6.995  10.917 -0.4473 -0.1044  0.0675
  111OSM    C1S11475   2.853   7.135  10.609  0.3500  0.6656  0.1897
  111OSM    H1S11476   2.857   7.238  10.651  0.9018  1.1634 -1.0570
  111OSM    H1T11477   2.745   7.111  10.616  0.0074  2.5108  3.0156
  111OSM     NF11478   2.821   7.220  10.379 -0.1209  0.2771 -0.4934
  111OSM    HNF11479   2.744   7.190  10.323 -0.2531 -0.1814 -0.0691
  111OSM    C2S11480   2.902   7.124  10.457 -0.7113  0.1599 -1.1515
  111OSM    H2S11481   3.008   7.156  10.450  0.6664 -3.7575 -0.3877
  111OSM    C3S11482   2.885   6.975  10.411  0.3417  0.6384 -0.3529
  111OSM    H3S11483   2.778   6.946  10.421  0.6429 -0.1209  0.9739
  111OSM     O311484   2.951   6.890  10.494  0.4721  0.3201  0.1981
  111OSM    HO311485   2.969   6.947  10.570 -0.9947  1.6405 -0.3894
  111OSM    C4S11486   2.930   6.967  10.270  0.5934 -0.3968  0.2598
  111OSM    H4S11487   3.037   6.991  10.258  0.0102  2.2677 -0.2271
  111OSM    C5S11488   2.851   6.947  10.160 -0.6766  0.0726 -0.2765
  111OSM    H5S11489   2.743   6.952  10.180 -0.4995 -0.7125  0.9634
  111OSM    C6S11490   2.901   6.926  10.021 -0.9105  0.1559  0.4032
  111OSM    H6S11491   2.972   6.841  10.010 -0.2063  0.8033 -0.1571
  111OSM    H6T11492   2.949   7.017   9.979 -0.2711  0.1511  1.1093
  111OSM    C7S11493   2.789   6.874   9.922 -0.3019 -0.3316 -0.6045
  111OSM    H7S11494   2.706   6.947   9.932 -0.8009 -1.1680  1.9480
  111OSM    H7T11495   2.759   6.774   9.959  1.5320 -0.0014  2.0288
  111OSM    C8S11496   2.833   6.860   9.777  0.4383  0.4108  0.4681
  111OSM    H8S11497   2.749   6.838   9.708  2.2797  0.9508 -2.1068
  111OSM    H8T11498   2.888   6.763   9.770 -1.8016 -0.8374 -1.0305
  111OSM    C9S11499   2.917   6.980   9.720  0.8800 -0.8425 -0.7461
  111OSM    H9S11500   3.025   6.966   9.741  1.5900  2.4116 -1.7272
  111OSM    H9T11501   2.887   7.073   9.772  0.9495  0.0121 -2.1804
  111OSM   C10S11502   2.887   7.009   9.573 -0.2178  0.4472 -0.1996
  111OSM   H10S11503   2.946   7.098   9.541  1.4323 -0.2810  0.7022
  111OSM   H10T11504   2.778   7.031   9.565 -0.2579  1.0401  1.5710
  111OSM   C11S11505   2.914   6.900   9.475 -0.2653 -0.9940  0.0755
  111OSM   H11S11506   2.860   6.804   9.492 -2.8808 -0.2380 -3.0365
  111OSM   H11T11507   3.022   6.874   9.469 -0.4029 -1.2764 -1.7481
  111OSM   C12S11508   2.881   6.940   9.328  0.3776 -0.2653 -0.1908
  111OSM   H12S11509   2.934   7.037   9.315  3.6186 -1.6776  1.2611
  111OSM   H12T11510   2.772   6.960   9.319 -0.0247 -2.4739 -0.8805
  111OSM   C13S11511   2.936   6.821   9.242 -0.2538 -0.5954  0.1417
  111OSM   H13S11512   2.856   6.746   9.260 -1.3854  0.4678 -0.3305
  111OSM   H13T11513   3.027   6.778   9.289  0.1593 -3.3888 -2.8356
  111OSM   C14S11514   2.964   6.837   9.091 -0.5784  0.0610  0.3277
  111OSM   H14S11515   3.005   6.753   9.029  1.8534  1.8759 -0.7011
  111OSM   H14T11516   3.047   6.910   9.077  1.2279 -1.7522  1.1473
  111OSM   C15S11517   2.842   6.894   9.006 -0.5082  0.8976 -0.7407
  111OSM   H15S11518   2.883   6.962   8.928  2.7359 -0.9256 -0.8117
  111OSM   H15T11519   2.779   6.947   9.080  1.1131  0.9064  0.7148
  111OSM   C16S11520   2.757   6.775   8.951  0.6500  0.0005 -0.5526
  111OSM   H16S11521   2.674   6.826   8.897  2.1375  4.4199  0.8995
  111OSM   H16T11522   2.721   6.715   9.037  1.6643 -0.7587 -0.6425
  111OSM   C17S11523   2.823   6.668   8.870 -0.0144  0.4933  0.7249
  111OSM   H17S11524   2.897   6.613   8.932 -2.1647  0.3550  3.3344
  111OSM   H17T11525   2.873   6.718   8.784  0.0216  0.1465  0.5439
  111OSM   C18S11526   2.720   6.569   8.817 -0.7887  0.0592 -0.8164
  111OSM   H18S11527   2.647   6.619   8.750 -0.9742 -0.6734 -1.1809
  111OSM   H18T11528   2.661   6.532   8.904  0.9018  0.7579  0.6818
  111OSM   H18U11529   2.763   6.485   8.758  1.9367 -0.6016  1.8413
  111OSM    C1F11530   2.838   7.348  10.399 -0.4871 -0.1357  0.4528
  111OSM     OF11531   2.936   7.388  10.458 -0.0082 -0.0280 -0.0547
  111OSM    C2F11532   2.745   7.449  10.336 -0.0118  0.0320 -0.3694
  111OSM    H2F11533   2.710   7.506  10.425  1.3684 -0.2735  0.3911
  111OSM    H2G11534   2.661   7.387  10.295 -0.8042  1.0264 -0.2904
  111OSM    C3F11535   2.817   7.533  10.226  0.7659  0.9600  0.1374
  111OSM    H3F11536   2.910   7.585  10.258  0.5782 -0.3064  3.0169
  111OSM    H3G11537   2.760   7.622  10.191  0.4617  0.6143 -0.2606
  111OSM    C4F11538   2.844   7.449  10.093 -0.4607 -0.2740 -0.1164
  111OSM    H4F11539   2.897   7.355  10.120  0.1769 -0.1561 -0.9347
  111OSM    H4G11540   2.907   7.512  10.027 -0.2007 -0.1633  0.2332
  111OSM    C5F11541   2.716   7.414  10.018  0.1200  0.5103  0.0366
  111OSM    H5F11542   2.653   7.504  10.003 -0.6388 -0.2316 -1.5762
  111OSM    H5G11543   2.654   7.341  10.075  2.3879 -1.4547  0.1498
  111OSM    C6F11544   2.746   7.347   9.883  0.1600  0.3431 -0.3154
  111OSM    H6F11545   2.769   7.241   9.908  0.2907  0.5221  0.3420
  111OSM    H6G11546   2.835   7.398   9.840  1.7706 -0.0994  2.2681
  111OSM    C7F11547   2.626   7.346   9.790  0.1790 -0.0420 -0.2478
  111OSM    H7F11548   2.601   7.454   9.775 -0.0526  0.0484  0.7469
  111OSM    H7G11549   2.541   7.298   9.842 -0.7477 -1.1628 -2.6558
  111OSM    C8F11550   2.641   7.284   9.655  0.0256 -0.3791 -0.3728
  111OSM    H8F11551   2.545   7.297   9.601 -0.8160 -0.8482  0.9490
  111OSM    H8G11552   2.649   7.174   9.670 -0.3494 -0.2547  0.8804
  111OSM    C9F11553   2.762   7.343   9.590 -0.5727 -0.3531 -0.6626
  111OSM    H9F11554   2.858   7.308   9.629  0.5062  0.4008 -2.5376
  111OSM   C10F11555   2.758   7.426   9.482  0.1006  0.3655 -0.1721
  111OSM   H10F11556   2.853   7.474   9.453 -1.3745  2.5451 -1.6676
  111OSM   C11F11557   2.639   7.471   9.400  0.0402 -0.1884 -0.3050
  111OSM   H11F11558   2.585   7.551   9.454 -1.3112  0.1427 -2.0523
  111OSM   H11G11559   2.570   7.384   9.390  1.7743 -1.5568 -0.9983
  111OSM   C12F11560   2.665   7.530   9.261 -0.0999 -0.3617 -0.4519
  111OSM   H12F11561   2.722   7.624   9.272  0.5631 -0.6795 -1.0465
  111OSM   H12G11562   2.567   7.567   9.225 -0.0286  0.5831  0.2971
  111OSM   C13F11563   2.734   7.436   9.158 -0.2207  0.5815  0.3686
  111OSM   H13F11564   2.689   7.336   9.148  1.7388 -0.1655 -1.7190
  111OSM   H13G11565   2.837   7.423   9.197  1.0711  1.7852 -2.4014
  111OSM   C14F11566   2.738   7.505   9.019 -0.2771 -0.9313 -0.2195
  111OSM   H14F11567   2.734   7.615   9.033  1.5542 -0.9500  0.8689
  111OSM   H14G11568   2.640   7.475   8.977 -0.7103  0.3137 -0.1376
  111OSM   C15F11569   2.860   7.473   8.925  1.0170 -0.6506 -0.4745
  111OSM   H15F11570   2.905   7.373   8.944  0.9663 -0.0918  3.3709
  111OSM   H15G11571   2.936   7.551   8.947 -1.0784  0.7323  2.5030
  111OSM   C16F11572   2.823   7.469   8.774  0.9278 -0.2796 -0.0951
  111OSM   H16F11573   2.731   7.414   8.747  0.1152  1.7231 -1.6569
  111OSM   H16G11574   2.901   7.409   8.722  0.7888 -0.7593  0.2396
  111OSM   C17F11575   2.794   7.608   8.718  0.1343 -0.8779  0.2892
  111OSM   H17F11576   2.717   7.655   8.782 -0.8595 -3.5084  1.1257
  111OSM   H17G11577   2.747   7.593   8.618 -3.4105 -0.6607  1.7592
  111OSM   C18F11578   2.920   7.690   8.699 -0.7357 -0.0267 -0.4643
  111OSM   H18F11579   2.987   7.651   8.619  1.7225  0.3970  1.2588
  111OSM   H18G11580   2.963   7.728   8.794 -0.0128 -0.1372 -0.7405
  111OSM   H18H11581   2.896   7.789   8.654 -0.7756 -1.2833 -3.4382
  112OSM      N11582   0.104   4.160  11.160  0.1146  0.2598  0.3697
  112OSM    C1511583  -0.022   4.132  11.099  1.0305 -0.8566  0.0538
  112OSM   H15A11584  -0.091   4.070  11.155  0.6371 -0.3471  0.1445
  112OSM   H15B11585  -0.014   4.083  11.003 -0.2180 -0.5701 -0.2108
  112OSM   H15C11586  -0.081   4.222  11.095  1.0403 -0.8737 -0.5773
  112OSM    C1411587   0.076   4.240  11.279  0.2609 -0.5315 -0.3954
  112OSM   H14A11588   0.015   4.174  11.340 -0.7082  0.4429 -0.2831
  112OSM   H14B11589   0.029   4.334  11.255  2.8586  0.7950 -0.6716
  112OSM   H14C11590   0.165   4.274  11.329  1.3072  2.9556 -4.0977
  112OSM    C1311591   0.173   4.036  11.204 -0.6954  0.2069 -0.0351
  112OSM   H13A11592   0.196   3.977  11.117 -1.2913 -1.3172  0.8167
  112OSM   H13B11593   0.112   3.972  11.265 -2.5819  0.7101 -1.3215
  112OSM   H13C11594   0.267   4.068  11.248 -0.2999  0.6894 -1.1806
  112OSM    C1211595   0.188   4.243  11.071 -1.0797 -0.1274 -0.4581
  112OSM   H12A11596   0.273   4.270  11.132 -2.2026 -1.7440  1.9582
  112OSM   H12B11597   0.135   4.333  11.040  2.5278  1.3557 -3.0402
  112OSM    C1111598   0.239   4.188  10.943 -0.0141 -0.0985 -0.8663
  112OSM   H11A11599   0.287   4.273  10.891 -1.2946  1.4480  0.3383
  112OSM   H11B11600   0.152   4.149  10.886 -1.1239  0.8247  0.1221
  112OSM      P11601   0.488   4.112  11.009 -0.2252  0.2175  0.4822
  112OSM    O1311602   0.483   4.186  11.139 -0.3554  0.1284  0.1817
  112OSM    O1411603   0.558   3.981  11.019 -0.0674  0.0996  0.5205
  112OSM    O1111604   0.542   4.206  10.896  0.8591 -0.1173  0.1551
  112OSM    O1211605   0.335   4.086  10.969  0.3032 -0.2392 -0.3470
  112OSM    C1S11606   0.526   4.163  10.757  0.2714 -1.1189 -0.5204
  112OSM    H1S11607   0.436   4.101  10.739 -0.8562 -0.2694  1.8169
  112OSM    H1T11608   0.606   4.091  10.728  0.7581 -0.0823 -1.8168
  112OSM     NF11609   0.524   4.247  10.519  1.5940  0.4261  0.3498
  112OSM    HNF11610   0.597   4.260  10.452 -0.9972  1.0300 -2.6444
  112OSM    C2S11611   0.537   4.286  10.660  0.0574 -0.0562  1.0857
  112OSM    H2S11612   0.447   4.343  10.690 -1.7337 -1.7415 -0.7461
  112OSM    C3S11613   0.665   4.370  10.697  0.3079  0.3327  0.8798
  112OSM    H3S11614   0.755   4.312  10.668  1.8050  2.5593  0.8022
  112OSM     O311615   0.685   4.400  10.836 -0.1082 -0.0046  0.3495
  112OSM    HO311616   0.626   4.342  10.884 -1.0863  0.5849 -0.1164
  112OSM    C4S11617   0.661   4.505  10.625 -0.1138  0.4672  0.9018
  112OSM    H4S11618   0.564   4.551  10.647  0.4240  1.3594  1.5074
  112OSM    C5S11619   0.759   4.570  10.559 -0.1962  0.8367  0.2125
  112OSM    H5S11620   0.856   4.520  10.551 -0.5373  0.1411  0.3766
  112OSM    C6S11621   0.730   4.701  10.491  0.8674 -0.3940  0.2740
  112OSM    H6S11622   0.815   4.768  10.516  2.7136 -1.9634 -1.3988
  112OSM    H6T11623   0.641   4.757  10.527  2.1174  1.3571  0.7926
  112OSM    C7S11624   0.734   4.679  10.339  0.2803  0.4302 -0.4752
  112OSM    H7S11625   0.658   4.605  10.306  1.5816 -0.6422 -1.2280
  112OSM    H7T11626   0.834   4.635  10.318 -0.5283 -0.8350 -1.8354
  112OSM    C8S11627   0.705   4.805  10.257 -0.6771 -0.3555 -0.4011
  112OSM    H8S11628   0.766   4.889  10.295  1.2848 -1.9418  0.1701
  112OSM    H8T11629   0.596   4.827  10.268 -0.6137 -0.8226  1.4266
  112OSM    C9S11630   0.762   4.800  10.113 -0.4819  0.2518 -0.4042
  112OSM    H9S11631   0.721   4.707  10.069  4.4468 -1.6679 -1.5889
  112OSM    H9T11632   0.872   4.781  10.114 -0.5625 -0.2045  0.1538
  112OSM   C10S11633   0.729   4.924  10.041  1.0729 -0.6629 -0.7032
  112OSM   H10S11634   0.787   5.008  10.087 -1.2081 -0.5508  2.3219
  112OSM   H10T11635   0.621   4.941  10.057  1.0500 -2.0584  0.8778
  112OSM   C11S11636   0.770   4.921   9.893  0.0737 -0.1818 -0.3062
  112OSM   H11S11637   0.729   4.830   9.844  1.3014 -0.0621 -1.6250
  112OSM   H11T11638   0.881   4.921   9.885  0.1801  1.4891  0.7252
  112OSM   C12S11639   0.720   5.051   9.820  0.0565 -0.7687 -0.1837
  112OSM   H12S11640   0.768   5.139   9.867 -1.2963  0.0071 -0.1967
  112OSM   H12T11641   0.615   5.065   9.854  0.1306 -1.0764  0.1748
  112OSM   C13S11642   0.722   5.039   9.667  1.0008  0.1347 -0.4758
  112OSM   H13S11643   0.828   5.030   9.635  1.7861 -1.8633  2.2719
  112OSM   H13T11644   0.671   5.132   9.634  0.1346 -0.5936 -1.2466
  112OSM   C14S11645   0.635   4.923   9.619  0.7526 -0.1682  0.4137
  112OSM   H14S11646   0.536   4.933   9.668 -1.2754  0.3493 -3.4339
  112OSM   H14T11647   0.687   4.827   9.641  1.3159  0.1588  0.5282
  112OSM   C15S11648   0.599   4.925   9.467  0.2052  0.2025  0.0940
  112OSM   H15S11649   0.573   5.028   9.436 -1.6514 -0.3460 -0.3080
  112OSM   H15T11650   0.510   4.860   9.450  0.5493 -1.3077  3.4326
  112OSM   C16S11651   0.703   4.864   9.367 -0.0006  0.0122 -0.2528
  112OSM   H16S11652   0.679   4.756   9.353  0.6658 -0.0099 -1.3400
  112OSM   H16T11653   0.804   4.860   9.413 -0.1674  0.1392  0.1274
  112OSM   C17S11654   0.701   4.923   9.227 -0.0664 -0.0033  0.4485
  112OSM   H17S11655   0.726   5.031   9.238 -0.3296  0.0355  0.6591
  112OSM   H17T11656   0.600   4.921   9.181 -0.1932  2.4557  0.4595
  112OSM   C18S11657   0.804   4.865   9.125  0.4887 -0.0764  0.4923
  112OSM   H18S11658   0.808   4.908   9.023  2.9524 -1.6501 -0.1544
  112OSM   H18T11659   0.783   4.755   9.122  0.5594 -0.0881 -1.6962
  112OSM   H18U11660   0.907   4.874   9.166  0.5497 -1.0754  0.5894
  112OSM    C1F11661   0.406   4.202  10.473 -0.7681 -0.1544  0.6132
  112OSM     OF11662   0.310   4.172  10.540 -0.0666  0.1600  0.6780
  112OSM    C2F11663   0.396   4.193  10.323  0.4357  0.2125 -0.0855
  112OSM    H2F11664   0.458   4.107  10.290  1.2959  1.0714 -0.7473
  112OSM    H2G11665   0.450   4.271  10.266  0.8125  0.1386  0.1683
  112OSM    C3F11666   0.253   4.178  10.273  0.4429 -0.4201 -0.4406
  112OSM    H3F11667   0.179   4.250  10.315  1.3755  1.3976 -1.7884
  112OSM    H3G11668   0.230   4.070  10.286  0.2839 -0.3238  0.1515
  112OSM    C4F11669   0.254   4.195  10.120 -0.4779 -0.0120 -0.2517
  112OSM    H4F11670   0.320   4.115  10.079 -1.2296 -1.8846  1.9413
  112OSM    H4G11671   0.296   4.296  10.102 -1.9772  0.6013 -0.4654
  112OSM    C5F11672   0.109   4.184  10.058  0.6584  0.0052  0.6305
  112OSM    H5F11673   0.038   4.241  10.123 -0.5927 -0.2323 -0.4742
  112OSM    H5G11674   0.080   4.077  10.054 -2.4801  0.8077 -1.2608
  112OSM    C6F11675   0.122   4.233   9.910  0.8361  0.2008 -0.0936
  112OSM    H6F11676   0.162   4.337   9.901 -1.2592  0.9109 -2.4399
  112OSM    H6G11677   0.024   4.244   9.859  0.9764  1.6294 -0.1044
  112OSM    C7F11678   0.212   4.155   9.818 -0.0239 -0.8326 -0.0605
  112OSM    H7F11679   0.163   4.056   9.812 -3.2068  0.6957 -1.6778
  112OSM    H7G11680   0.314   4.138   9.859 -0.0010  0.6496  0.5381
  112OSM    C8F11681   0.213   4.217   9.674  0.2823 -0.8608  0.1186
  112OSM    H8F11682   0.279   4.306   9.672  0.3995 -0.9084 -2.8725
  112OSM    H8G11683   0.112   4.239   9.633  0.3665  1.6192  1.0669
  112OSM    C9F11684   0.281   4.117   9.585 -0.0955  0.5658  0.3132
  112OSM    H9F11685   0.374   4.076   9.627 -0.5466 -0.9314 -0.0906
  112OSM   C10F11686   0.245   4.070   9.464 -0.1007  0.0243 -0.7551
  112OSM   H10F11687   0.298   3.988   9.412 -0.7725 -1.5860  0.9669
  112OSM   C11F11688   0.131   4.107   9.380  0.3460 -0.3792  0.1355
  112OSM   H11F11689   0.090   4.202   9.420  0.0206 -0.0455 -0.9448
  112OSM   H11G11690   0.045   4.039   9.392  0.5806 -1.5065 -3.4751
  112OSM   C12F11691   0.185   4.127   9.231  0.0969  0.1001 -0.0206
  112OSM   H12F11692   0.239   4.039   9.191 -2.7177 -1.7753  0.0303
  112OSM   H12G11693   0.248   4.218   9.243 -1.5614  1.0448  2.3954
  112OSM   C13F11694   0.065   4.161   9.147  0.1626 -0.2008  0.4468
  112OSM   H13F11695   0.022   4.259   9.177 -1.0253  0.4680 -3.0434
  112OSM   H13G11696  -0.009   4.080   9.167  2.1717 -2.4665 -0.8775
  112OSM   C14F11697   0.105   4.164   8.995 -0.3962  0.3236 -0.9299
  112OSM   H14F11698   0.124   4.058   8.966  1.5426 -0.2185  1.9162
  112OSM   H14G11699   0.204   4.211   9.014  0.0288  0.4307 -3.1571
  112OSM   C15F11700   0.007   4.239   8.903 -0.2503 -0.1165  0.5656
  112OSM   H15F11701   0.066   4.243   8.810  0.1620  3.2100  0.8185
  112OSM   H15G11702  -0.010   4.347   8.927 -1.3764 -0.1389 -0.0515
  112OSM   C16F11703  -0.120   4.154   8.881  0.7023  0.2794 -0.5410
  112OSM   H16F11704  -0.200   4.226   8.852 -1.8380 -1.1793  2.3005
  112OSM   H16G11705  -0.155   4.111   8.977  0.6637 -0.3574 -0.8384
  112OSM   C17F11706  -0.115   4.048   8.778 -0.2785 -0.4055  0.4945
  112OSM   H17F11707  -0.045   3.971   8.817  1.9683  0.4548 -1.5502
  112OSM   H17G11708  -0.074   4.087   8.682 -1.4982 -1.4377 -0.4981
  112OSM   C18F11709  -0.250   3.966   8.755 -0.9172 -0.3153  0.2114
  112OSM   H18F11710  -0.325   4.039   8.719 -1.7524 -1.2357  0.0574
  112OSM   H18G11711  -0.287   3.904   8.839 -0.0593  0.8601  1.5042
  112OSM   H18H11712  -0.226   3.902   8.667  1.9334  1.6385 -0.5886
  113OSM      N11713   3.590   1.306  11.215  0.2817  0.2716  0.4585
  113OSM    C1511714   3.526   1.428  11.265  0.0402 -0.3119 -0.1096
  113OSM   H15A11715   3.557   1.449  11.367 -0.9841 -0.1807  0.1821
  113OSM   H15B11716   3.420   1.411  11.268  0.2585 -1.7387  1.2985
  113OSM   H15C11717   3.543   1.510  11.197  2.8554 -0.5100  0.2104
  113OSM    C1411718   3.581   1.200  11.320 -0.0803  0.9681 -0.3461
  113OSM   H14A11719   3.480   1.200  11.359 -0.2517  1.4501 -0.7714
  113OSM   H14B11720   3.645   1.239  11.397 -0.2593  1.4798 -0.4534
  113OSM   H14C11721   3.609   1.102  11.286 -1.1849 -0.8250  3.3534
  113OSM    C1311722   3.508   1.256  11.097  0.2438  0.0790 -0.3677
  113OSM   H13A11723   3.559   1.165  11.068  2.8374  1.4576 -0.4180
  113OSM   H13B11724   3.513   1.324  11.014  1.6117 -1.0167 -1.2235
  113OSM   H13C11725   3.404   1.239  11.121  0.1284  0.5926 -0.4973
  113OSM    C1211726   3.736   1.330  11.176 -0.9720  0.1258  0.2789
  113OSM   H12A11727   3.783   1.379  11.260 -0.1298  0.2725 -0.2576
  113OSM   H12B11728   3.742   1.399  11.093 -4.5277  0.5958  0.2523
  113OSM    C1111729   3.823   1.208  11.138  0.0001  0.5860 -0.6301
  113OSM   H11A11730   3.820   1.137  11.223  2.8933  0.3006 -0.6608
  113OSM   H11B11731   3.929   1.239  11.133 -0.2327  1.8712  1.3811
  113OSM      P11732   3.822   1.176  10.876  0.1552 -0.0345 -0.7451
  113OSM    O1311733   3.971   1.181  10.881  0.2682 -0.0581 -0.2464
  113OSM    O1411734   3.756   1.090  10.781 -0.1070  0.2602  0.1912
  113OSM    O1111735   3.762   1.324  10.854 -0.1793  0.1598  0.4601
  113OSM    O1211736   3.769   1.142  11.017 -0.5934  0.7303 -0.3382
  113OSM    C1S11737   3.788   1.379  10.720  0.3832  0.5306  0.7244
  113OSM    H1S11738   3.892   1.363  10.686  0.8702  1.0861  1.9407
  113OSM    H1T11739   3.781   1.489  10.722 -1.3292  0.6474 -2.8853
  113OSM     NF11740   3.733   1.418  10.481 -0.2428  0.1619  0.4257
  113OSM    HNF11741   3.689   1.505  10.464 -0.6702  0.1470  1.3964
  113OSM    C2S11742   3.683   1.350  10.599 -0.2726  0.2822  0.1807
  113OSM    H2S11743   3.683   1.240  10.589  0.9103 -0.0222  2.7938
  113OSM    C3S11744   3.545   1.391  10.647 -0.5261  0.0713  0.3193
  113OSM    H3S11745   3.555   1.498  10.676 -1.1540  0.0628  0.5849
  113OSM     O311746   3.507   1.329  10.768  0.0227 -0.1574  0.9708
  113OSM    HO311747   3.578   1.268  10.787  1.8524  1.2764 -0.7504
  113OSM    C4S11748   3.449   1.357  10.537  0.0134  0.5561  0.1532
  113OSM    H4S11749   3.443   1.437  10.462 -0.1706 -0.3688 -0.8347
  113OSM    C5S11750   3.390   1.238  10.511  0.5538  0.6112 -0.2451
  113OSM    H5S11751   3.397   1.148  10.574 -0.3876  0.5980 -0.1498
  113OSM    C6S11752   3.307   1.208  10.388 -0.1693 -0.3399  0.0207
  113OSM    H6S11753   3.217   1.158  10.430 -0.6389  1.5587  1.3695
  113OSM    H6T11754   3.361   1.134  10.324  0.3472  1.2617 -1.4792
  113OSM    C7S11755   3.270   1.319  10.292 -0.3280 -0.0558 -0.0883
  113OSM    H7S11756   3.361   1.364  10.245 -2.9143  2.5399 -3.0459
  113OSM    H7T11757   3.200   1.395  10.332 -1.1868 -1.5372  1.3257
  113OSM    C8S11758   3.189   1.258  10.175  0.0548 -0.4989 -0.4013
  113OSM    H8S11759   3.128   1.335  10.122  1.8526 -0.6079 -2.8277
  113OSM    H8T11760   3.117   1.188  10.222 -0.1130  0.1020  0.2432
  113OSM    C9S11761   3.262   1.165  10.077  0.2613 -0.1256  0.6929
  113OSM    H9S11762   3.341   1.108  10.131  2.2288  1.7538 -0.0159
  113OSM    H9T11763   3.326   1.214  10.000  1.0694 -1.2137  0.6426
  113OSM   C10S11764   3.171   1.069   9.986  0.1693  0.2658 -0.6031
  113OSM   H10S11765   3.103   1.132   9.925 -2.0583 -1.3570  0.0192
  113OSM   H10T11766   3.110   1.008  10.056  1.2363 -0.6947 -0.4914
  113OSM   C11S11767   3.254   0.985   9.884 -0.1334 -0.1325 -1.4716
  113OSM   H11S11768   3.188   0.902   9.852 -1.1496 -0.0639  0.3332
  113OSM   H11T11769   3.345   0.941   9.929 -1.3998 -1.3494 -0.0001
  113OSM   C12S11770   3.301   1.079   9.774 -0.4331  0.4667  0.1198
  113OSM   H12S11771   3.381   1.146   9.812  1.0513 -0.5370 -1.1124
  113OSM   H12T11772   3.206   1.128   9.744  0.6803  3.0009  0.5399
  113OSM   C13S11773   3.347   0.999   9.651 -0.4189 -0.1686  0.1706
  113OSM   H13S11774   3.263   0.938   9.611 -1.2174  0.5330  0.7299
  113OSM   H13T11775   3.428   0.927   9.675 -1.6043 -0.3995  4.3018
  113OSM   C14S11776   3.400   1.090   9.540 -0.0016 -0.2227 -0.2148
  113OSM   H14S11777   3.510   1.074   9.538 -0.0727 -0.7783  0.0285
  113OSM   H14T11778   3.384   1.195   9.571  0.6532  0.3366 -1.7251
  113OSM   C15S11779   3.312   1.076   9.414 -0.9802  0.0706 -0.5880
  113OSM   H15S11780   3.213   1.124   9.432 -0.0144  1.9327 -0.0541
  113OSM   H15T11781   3.296   0.968   9.390  0.1263 -0.1027 -0.6082
  113OSM   C16S11782   3.371   1.144   9.287 -0.2142 -1.4075  0.3527
  113OSM   H16S11783   3.364   1.254   9.301  1.2835 -1.4198  1.4774
  113OSM   H16T11784   3.317   1.114   9.195 -0.5650  0.1320  0.0234
  113OSM   C17S11785   3.520   1.105   9.257 -0.8748 -0.0851 -0.4422
  113OSM   H17S11786   3.587   1.123   9.343 -1.7518  0.4021  0.1495
  113OSM   H17T11787   3.561   1.163   9.172  0.7544 -0.8761 -0.2355
  113OSM   C18S11788   3.540   0.956   9.219  0.5499 -0.2484 -0.0974
  113OSM   H18S11789   3.510   0.883   9.298  1.7276 -3.1817 -2.1970
  113OSM   H18T11790   3.644   0.937   9.187  0.6868  0.0638  0.1602
  113OSM   H18U11791   3.465   0.943   9.138 -0.8826 -1.4072  1.3438
  113OSM    C1F11792   3.840   1.386  10.410  0.2956 -0.1955  0.4486
  113OSM     OF11793   3.911   1.291  10.440  0.2523 -0.4589 -0.5883
  113OSM    C2F11794   3.883   1.452  10.281  0.2330 -0.2229 -0.0057
  113OSM    H2F11795   3.880   1.562  10.295  1.3269 -0.1863  0.0322
  113OSM    H2G11796   3.802   1.427  10.209  0.2003 -2.2158  0.6688
  113OSM    C3F11797   4.020   1.409  10.235 -0.3097  0.5181 -0.4058
  113OSM    H3F11798   4.011   1.298  10.235 -0.3017  0.5036  1.1343
  113OSM    H3G11799   4.089   1.437  10.317 -0.3308 -3.3932  1.1819
  113OSM    C4F11800   4.064   1.450  10.093 -0.4759  0.6398  0.2054
  113OSM    H4F11801   4.155   1.389  10.078 -1.7279 -1.4612  0.7795
  113OSM    H4G11802   4.079   1.560  10.089 -2.7864  1.0746  1.6947
  113OSM    C5F11803   3.954   1.422   9.986 -0.7998 -0.3261 -0.2478
  113OSM    H5F11804   3.877   1.490  10.029  0.6735  1.4822 -0.3497
  113OSM    H5G11805   3.924   1.316   9.980  1.2165 -0.8923 -1.4568
  113OSM    C6F11806   3.971   1.497   9.848 -0.1481 -0.1076  0.7788
  113OSM    H6F11807   3.979   1.605   9.873 -0.8181  0.1488 -0.0701
  113OSM    H6G11808   3.879   1.470   9.792  0.4463 -0.0300 -0.2644
  113OSM    C7F11809   4.086   1.434   9.767  0.3277 -0.7506  0.5482
  113OSM    H7F11810   4.073   1.325   9.748  3.4574 -0.9590 -1.2363
  113OSM    H7G11811   4.175   1.447   9.832  0.6440  2.4264 -0.3458
  113OSM    C8F11812   4.115   1.504   9.633 -0.3154 -0.3548 -0.6549
  113OSM    H8F11813   4.021   1.473   9.582 -0.5094 -2.4855  0.8642
  113OSM    H8G11814   4.205   1.465   9.580  0.4400  1.5883 -0.8786
  113OSM    C9F11815   4.132   1.660   9.658 -0.4969  0.7285  0.1983
  113OSM    H9F11816   4.220   1.681   9.720  1.1992 -1.0606 -1.4389
  113OSM   C10F11817   4.071   1.764   9.594  0.4610  0.2371  0.1073
  113OSM   H10F11818   4.087   1.862   9.643  1.2686 -0.6743  1.7860
  113OSM   C11F11819   3.966   1.741   9.486 -0.6732 -0.1018  0.2706
  113OSM   H11F11820   3.874   1.797   9.510 -1.6126 -2.3464  2.3380
  113OSM   H11G11821   3.922   1.639   9.481  0.6909 -0.7444  0.9711
  113OSM   C12F11822   4.012   1.775   9.337  0.8368 -0.0458 -0.5184
  113OSM   H12F11823   3.933   1.751   9.263  0.8584  2.3838 -1.3987
  113OSM   H12G11824   4.081   1.699   9.295 -0.1127 -0.0674 -2.1030
  113OSM   C13F11825   4.063   1.912   9.316 -0.9495 -0.2762 -0.4033
  113OSM   H13F11826   4.172   1.918   9.335 -0.7308  1.0229 -1.8549
  113OSM   H13G11827   4.030   1.986   9.392  1.2524 -1.0043  1.3743
  113OSM   C14F11828   4.045   1.948   9.169 -0.0533 -0.0714 -0.3276
  113OSM   H14F11829   3.946   1.997   9.160 -1.6409 -3.2015 -1.4378
  113OSM   H14G11830   4.045   1.850   9.115 -0.3984 -0.6077  0.6256
  113OSM   C15F11831   4.165   2.026   9.115  0.4557  0.1681 -0.3426
  113OSM   H15F11832   4.262   1.970   9.111  0.7059  0.4478  1.1775
  113OSM   H15G11833   4.192   2.112   9.179  4.1423 -0.8968 -0.1924
  113OSM   C16F11834   4.138   2.068   8.969  0.1305 -0.2778  0.2684
  113OSM   H16F11835   4.064   2.151   8.959  1.6198  1.1223  0.4419
  113OSM   H16G11836   4.113   1.972   8.921 -0.0855 -1.4454  2.5624
  113OSM   C17F11837   4.254   2.135   8.897  0.1502 -0.0847 -0.2707
  113OSM   H17F11838   4.327   2.051   8.889  1.0566  0.3018  2.6794
  113OSM   H17G11839   4.299   2.215   8.959  0.0579  0.3300 -0.7398
  113OSM   C18F11840   4.231   2.185   8.761  0.2099  0.9084  0.0736
  113OSM   H18F11841   4.321   2.237   8.722  1.3055 -1.2461 -0.4429
  113OSM   H18G11842   4.144   2.252   8.746 -0.0744  1.7248  4.2337
  113OSM   H18H11843   4.213   2.095   8.698 -0.4891  0.6934  0.5666
  114OSM      N11844   5.307   3.599  11.142  0.2750 -0.2687 -0.2845
  114OSM    C1511845   5.263   3.471  11.193  0.7860  0.2904 -0.0993
  114OSM   H15A11846   5.212   3.415  11.116 -1.2894  1.2036  0.5556
  114OSM   H15B11847   5.186   3.489  11.266  0.0305  0.2315 -0.8689
  114OSM   H15C11848   5.340   3.411  11.242 -0.0033 -2.3335 -1.8489
  114OSM    C1411849   5.190   3.664  11.082  0.7252 -0.1084  0.4111
  114OSM   H14A11850   5.108   3.662  11.153  0.4959  0.0574  0.1516
  114OSM   H14B11851   5.156   3.604  10.998  0.2595 -2.3068  2.0833
  114OSM   H14C11852   5.217   3.765  11.057 -0.0175 -0.4563 -2.1157
  114OSM    C1311853   5.366   3.687  11.250  0.1404 -0.4783 -0.4339
  114OSM   H13A11854   5.403   3.778  11.205 -1.4511 -0.3569 -1.5955
  114OSM   H13B11855   5.439   3.633  11.308  0.4970 -1.1688 -1.5015
  114OSM   H13C11856   5.293   3.707  11.328  2.0269  0.8739  1.0691
  114OSM    C1211857   5.412   3.578  11.035  0.6345  0.1002 -0.3772
  114OSM   H12A11858   5.383   3.496  10.971  0.2781  2.3368 -3.2527
  114OSM   H12B11859   5.502   3.548  11.088  0.9412  0.6032 -0.6077
  114OSM    C1111860   5.433   3.693  10.940 -0.1466  0.3825  0.1564
  114OSM   H11A11861   5.341   3.698  10.878  0.0644 -0.6921 -0.2639
  114OSM   H11B11862   5.506   3.665  10.860 -2.0141  0.8716 -1.8190
  114OSM      P11863   5.602   3.853  11.077  0.1431 -0.1717 -0.0200
  114OSM    O1311864   5.566   3.952  11.173 -0.0831  0.4125 -0.3806
  114OSM    O1411865   5.672   3.733  11.134  0.1682  0.5193  0.1724
  114OSM    O1111866   5.704   3.927  10.982  0.0298  0.0737  0.4721
  114OSM    O1211867   5.478   3.820  10.995 -0.2527 -0.2693 -0.1363
  114OSM    C1S11868   5.732   3.906  10.844  0.1136 -0.3955 -0.4607
  114OSM    H1S11869   5.693   3.807  10.811 -1.3280  0.0524 -0.1651
  114OSM    H1T11870   5.840   3.880  10.840 -0.5654 -4.0317  0.5383
  114OSM     NF11871   5.729   4.004  10.616  0.6433  0.1282 -0.9036
  114OSM    HNF11872   5.784   4.075  10.573  1.2752  0.0351 -0.2605
  114OSM    C2S11873   5.682   4.023  10.751 -0.0091 -0.4341 -0.2719
  114OSM    H2S11874   5.572   4.010  10.748 -0.1122  0.2515  0.3184
  114OSM    C3S11875   5.721   4.156  10.808  0.2597  0.1133  0.2856
  114OSM    H3S11876   5.830   4.142  10.826  0.5583  0.6434 -1.0144
  114OSM     O311877   5.657   4.199  10.926  0.2087 -0.2585  0.3523
  114OSM    HO311878   5.610   4.119  10.949 -1.3022  0.9667  1.8072
  114OSM    C4S11879   5.707   4.267  10.702 -0.2274 -0.3001 -0.6030
  114OSM    H4S11880   5.802   4.299  10.656 -0.7002  2.2117  0.0438
  114OSM    C5S11881   5.598   4.336  10.656 -0.6976  0.4303 -0.7308
  114OSM    H5S11882   5.499   4.310  10.697 -0.2016 -0.8554 -0.3020
  114OSM    C6S11883   5.605   4.444  10.549  0.4664  0.0578 -0.0919
  114OSM    H6S11884   5.557   4.539  10.582  0.2210  0.7351 -2.2825
  114OSM    H6T11885   5.542   4.410  10.465  0.4326 -1.0154  0.3521
  114OSM    C7S11886   5.743   4.478  10.485  0.0722 -0.8296  0.1822
  114OSM    H7S11887   5.810   4.390  10.473 -0.3556 -1.1797  0.3478
  114OSM    H7T11888   5.806   4.533  10.559  2.4540 -0.5382 -1.9125
  114OSM    C8S11889   5.743   4.567  10.359 -0.2664 -0.3410  0.6133
  114OSM    H8S11890   5.672   4.650  10.381  0.2863  0.4434 -0.4766
  114OSM    H8T11891   5.697   4.500  10.283  0.3375 -1.6795  1.4067
  114OSM    C9S11892   5.875   4.629  10.320 -0.8021  0.5865  0.4368
  114OSM    H9S11893   5.950   4.548  10.310 -0.6327  0.6646  1.0353
  114OSM    H9T11894   5.919   4.696  10.398 -0.1349  0.9453 -0.2332
  114OSM   C10S11895   5.873   4.726  10.199  0.3311 -0.4235 -0.2118
  114OSM   H10S11896   5.982   4.733  10.178 -0.0148  0.5210 -1.7460
  114OSM   H10T11897   5.845   4.831  10.220  1.7638  0.5602 -2.7924
  114OSM   C11S11898   5.789   4.677  10.076  1.0386 -0.0525 -0.1055
  114OSM   H11S11899   5.680   4.695  10.083  0.7681 -1.2514 -0.8501
  114OSM   H11T11900   5.806   4.567  10.063 -1.1091 -0.6665  1.7238
  114OSM   C12S11901   5.854   4.737   9.953 -0.0139 -0.6962 -0.3070
  114OSM   H12S11902   5.802   4.697   9.863 -0.9452  2.6639 -1.4409
  114OSM   H12T11903   5.961   4.709   9.941  0.0084  0.0445 -2.2398
  114OSM   C13S11904   5.839   4.892   9.957 -0.1854  0.7346 -0.4546
  114OSM   H13S11905   5.895   4.949  10.034 -0.7467  0.7152 -0.0267
  114OSM   H13T11906   5.733   4.916   9.980 -0.1282 -0.2957  1.0097
  114OSM   C14S11907   5.872   4.934   9.809 -0.4769  0.4382 -0.1939
  114OSM   H14S11908   5.814   4.870   9.739  0.7056 -0.5354 -0.3177
  114OSM   H14T11909   5.978   4.914   9.783 -0.7088 -1.5023  0.1534
  114OSM   C15S11910   5.857   5.087   9.783 -0.3493 -0.1234  0.1066
  114OSM   H15S11911   5.917   5.149   9.853 -0.1634  0.5017 -0.5921
  114OSM   H15T11912   5.749   5.102   9.799 -0.2655 -0.1693  0.7256
  114OSM   C16S11913   5.903   5.122   9.642 -0.0738  0.0164 -0.9715
  114OSM   H16S11914   5.867   5.042   9.574  0.6818 -1.1558 -0.0210
  114OSM   H16T11915   6.011   5.146   9.642 -0.3778  1.5188 -1.4474
  114OSM   C17S11916   5.836   5.255   9.597 -0.5461 -0.7852 -0.0549
  114OSM   H17S11917   5.854   5.327   9.679  2.4960  0.1228 -1.3716
  114OSM   H17T11918   5.725   5.249   9.592 -0.6346 -1.1327  1.8389
  114OSM   C18S11919   5.907   5.312   9.470 -0.0744  0.5504 -0.1871
  114OSM   H18S11920   5.884   5.243   9.386  0.4170 -1.8212  1.5221
  114OSM   H18T11921   6.018   5.308   9.480  0.1482 -1.6551 -2.3847
  114OSM   H18U11922   5.887   5.420   9.452 -1.4411  0.1212 -1.4402
  114OSM    C1F11923   5.699   3.895  10.547  0.5600 -0.5239  0.4711
  114OSM     OF11924   5.604   3.822  10.575 -0.3489 -0.5042 -0.4116
  114OSM    C2F11925   5.780   3.877  10.420 -0.2349  0.2212 -0.1854
  114OSM    H2F11926   5.881   3.863  10.462  0.3545  0.2197 -1.5563
  114OSM    H2G11927   5.782   3.973  10.365 -1.9501  0.9669  0.9549
  114OSM    C3F11928   5.738   3.755  10.339 -0.0994  0.5735 -0.0000
  114OSM    H3F11929   5.629   3.761  10.315 -0.0178 -1.5152 -1.1577
  114OSM    H3G11930   5.744   3.660  10.397 -3.8706 -1.6572 -2.8052
  114OSM    C4F11931   5.809   3.740  10.210 -0.1662 -0.0389 -0.7796
  114OSM    H4F11932   5.917   3.747  10.236 -0.6451 -1.9824  2.2173
  114OSM    H4G11933   5.784   3.828  10.147  1.6190  0.4590 -0.8596
  114OSM    C5F11934   5.769   3.616  10.136  0.6597 -0.1017  0.1227
  114OSM    H5F11935   5.659   3.609  10.120  0.6170 -0.0508  0.3901
  114OSM    H5G11936   5.802   3.525  10.191 -1.0241 -1.9503 -1.7528
  114OSM    C6F11937   5.829   3.590   9.999  0.0058  0.0824 -0.4922
  114OSM    H6F11938   5.940   3.581  10.010 -0.1368 -2.0737 -0.5275
  114OSM    H6G11939   5.793   3.668   9.928  0.7677 -0.5582 -1.6067
  114OSM    C7F11940   5.798   3.451   9.956  1.3438  0.4821  0.5889
  114OSM    H7F11941   5.694   3.449   9.918  0.5684  2.2656  2.4144
  114OSM    H7G11942   5.804   3.379  10.041  1.5760  0.7082  0.7662
  114OSM    C8F11943   5.904   3.391   9.856 -0.3124  0.0504  0.0068
  114OSM    H8F11944   5.883   3.287   9.823  2.7725 -0.2767 -1.2612
  114OSM    H8G11945   5.997   3.401   9.915 -0.7488 -0.4952  0.8112
  114OSM    C9F11946   5.917   3.474   9.731  0.3860  0.5808  0.8972
  114OSM    H9F11947   5.872   3.574   9.734  1.9923  1.3451  0.8727
  114OSM   C10F11948   5.968   3.426   9.608 -0.0662  0.0588 -0.2960
  114OSM   H10F11949   5.948   3.477   9.513 -2.3821 -2.0421 -1.0302
  114OSM   C11F11950   6.022   3.287   9.591 -0.2780  0.1422  0.8761
  114OSM   H11F11951   5.941   3.232   9.537 -0.4520  1.5845 -0.3856
  114OSM   H11G11952   6.045   3.233   9.685  1.6946 -1.1852 -0.2856
  114OSM   C12F11953   6.156   3.277   9.513  0.2344  1.0067 -0.4006
  114OSM   H12F11954   6.183   3.169   9.512  0.5426  1.0806 -1.5153
  114OSM   H12G11955   6.241   3.325   9.565 -0.4281  2.7738 -0.8744
  114OSM   C13F11956   6.152   3.320   9.362 -0.5829 -0.2222 -0.2898
  114OSM   H13F11957   6.249   3.295   9.315  0.2616  1.5327  0.4445
  114OSM   H13G11958   6.142   3.430   9.355  0.3196 -0.2476 -2.8431
  114OSM   C14F11959   6.035   3.267   9.273 -0.3990 -0.0757  0.2461
  114OSM   H14F11960   6.021   3.336   9.188  0.1807  0.4157  0.5456
  114OSM   H14G11961   5.934   3.256   9.318 -0.3616 -1.8317 -0.0196
  114OSM   C15F11962   6.067   3.132   9.206  0.1502  0.1920 -0.0019
  114OSM   H15F11963   6.093   3.069   9.294  0.5197  0.6311  0.2068
  114OSM   H15G11964   6.162   3.139   9.149  0.6672 -2.0711  0.4867
  114OSM   C16F11965   5.936   3.085   9.128 -0.4908 -0.1686  0.5445
  114OSM   H16F11966   5.918   3.160   9.047  0.4986 -0.0090  0.4527
  114OSM   H16G11967   5.868   3.097   9.215  1.4307 -2.3766  2.4919
  114OSM   C17F11968   5.943   2.941   9.078  0.0963  0.4765 -0.2314
  114OSM   H17F11969   5.839   2.905   9.060  0.1408  1.0286 -1.7624
  114OSM   H17G11970   5.989   2.889   9.165 -1.4766 -1.4602 -0.4647
  114OSM   C18F11971   6.033   2.916   8.951  0.1723 -0.3021 -0.0085
  114OSM   H18F11972   6.021   2.809   8.924  0.7984 -0.0981 -1.1235
  114OSM   H18G11973   6.137   2.943   8.979 -0.0613  1.2913 -0.5702
  114OSM   H18H11974   5.999   2.984   8.870  2.1743  1.4376  0.5193
  115OSM      N11975   1.818   5.592  11.190  0.5152 -0.0520 -0.3986
  115OSM    C1511976   1.969   5.599  11.198 -0.4226  0.1762  0.2785
  115OSM   H15A11977   2.009   5.643  11.109  0.6198  1.0874  1.1661
  115OSM   H15B11978   2.001   5.496  11.206 -0.2783  0.1885 -0.1359
  115OSM   H15C11979   2.007   5.649  11.286  1.9905  0.4156 -0.8256
  115OSM    C1411980   1.754   5.510  11.302 -0.7980  0.7360  0.2345
  115OSM   H14A11981   1.805   5.415  11.306  1.3865  1.8400  0.1932
  115OSM   H14B11982   1.651   5.491  11.275 -0.6106  1.5523 -1.1642
  115OSM   H14C11983   1.769   5.553  11.400  1.6048 -0.9890  0.7270
  115OSM    C1311984   1.765   5.728  11.202  0.3246  0.2463 -0.8441
  115OSM   H13A11985   1.658   5.719  11.187  0.4768 -0.0127 -1.8869
  115OSM   H13B11986   1.794   5.794  11.121  2.0368  0.0408 -0.4317
  115OSM   H13C11987   1.802   5.780  11.289  1.4006 -1.5159 -0.2007
  115OSM    C1211988   1.775   5.539  11.051 -0.2300 -0.6257  0.3583
  115OSM   H12A11989   1.669   5.518  11.055 -0.1102 -1.7899 -1.3871
  115OSM   H12B11990   1.832   5.449  11.031  2.8978  0.7899  2.1117
  115OSM    C1111991   1.797   5.632  10.934  0.1484 -0.3241  0.0375
  115OSM   H11A11992   1.797   5.564  10.846 -0.8264 -1.4585  0.8875
  115OSM   H11B11993   1.892   5.690  10.935 -0.7318  1.2012  2.5016
  115OSM      P11994   1.547   5.711  10.879 -0.2564 -0.0310  0.1711
  115OSM    O1311995   1.459   5.629  10.970  0.2918  0.1417 -0.1013
  115OSM    O1411996   1.494   5.844  10.834  0.3883 -0.2113  0.3903
  115OSM    O1111997   1.564   5.631  10.749  0.5447  0.0001  0.3147
  115OSM    O1211998   1.695   5.732  10.927 -0.4778 -0.3567 -0.2930
  115OSM    C1S11999   1.634   5.686  10.637  0.1260  0.8237  0.4046
  115OSM    H1S12000   1.742   5.684  10.660  0.6925  0.6648 -1.9820
  115OSM    H1T12001   1.606   5.792  10.618  0.5387  0.8046 -0.3704
  115OSM     NF12002   1.695   5.641  10.405  0.0458 -0.1596 -0.1631
  115OSM    HNF12003   1.658   5.705  10.338 -2.7485  0.0887  1.4362
  115OSM    C2S12004   1.598   5.610  10.505  0.4027 -0.0917 -0.5534
  115OSM    H2S12005   1.607   5.500  10.525  1.3416 -0.5771 -3.2797
  115OSM    C3S12006   1.452   5.644  10.462  0.0868  0.4894 -0.1831
  115OSM    H3S12007   1.447   5.755  10.462  0.8873  0.5321 -1.1607
  115OSM     O312008   1.358   5.587  10.557 -0.2359 -0.3480  0.4853
  115OSM    HO312009   1.417   5.554  10.626  0.3048  0.5200  0.4649
  115OSM    C4S12010   1.408   5.589  10.325 -0.8477 -0.7492  0.1707
  115OSM    H4S12011   1.442   5.487  10.300 -2.0386 -0.8338 -1.2145
  115OSM    C5S12012   1.330   5.644  10.235 -0.1057 -0.1604 -0.3413
  115OSM    H5S12013   1.290   5.742  10.264 -0.5038 -0.8379  1.4923
  115OSM    C6S12014   1.286   5.582  10.106  0.2622 -0.6117 -0.2082
  115OSM    H6S12015   1.270   5.668  10.037  0.4346  0.3567  0.9198
  115OSM    H6T12016   1.184   5.541  10.117 -0.0650 -0.2750 -1.7420
  115OSM    C7S12017   1.377   5.485  10.036  0.3125  0.2444 -0.7688
  115OSM    H7S12018   1.358   5.388  10.088 -0.1007  0.7828  0.1160
  115OSM    H7T12019   1.486   5.503  10.053 -0.2732  3.7794  0.0760
  115OSM    C8S12020   1.350   5.472   9.887  0.0144  0.1911 -0.0877
  115OSM    H8S12021   1.243   5.454   9.862  0.1481 -0.6453 -0.1044
  115OSM    H8T12022   1.411   5.386   9.854 -0.4426 -0.3737  0.4899
  115OSM    C9S12023   1.387   5.601   9.805 -0.3597 -0.1227  0.1699
  115OSM    H9S12024   1.488   5.644   9.813 -0.6129  0.3493  0.8526
  115OSM    H9T12025   1.323   5.683   9.844 -1.1874 -0.5747 -0.1869
  115OSM   C10S12026   1.338   5.590   9.664 -0.3637  0.7470  0.1768
  115OSM   H10S12027   1.233   5.555   9.658  0.3315 -1.3103 -0.7601
  115OSM   H10T12028   1.402   5.519   9.608 -1.8181 -1.0518  0.7066
  115OSM   C11S12029   1.349   5.735   9.586 -0.8135  0.0789 -0.3090
  115OSM   H11S12030   1.442   5.778   9.629 -0.6294  0.2295 -0.8489
  115OSM   H11T12031   1.261   5.797   9.612 -1.4581 -1.0123  0.1785
  115OSM   C12S12032   1.356   5.712   9.433  0.0833 -0.0168 -0.3496
  115OSM   H12S12033   1.262   5.667   9.394  1.5114 -1.1843 -2.5851
  115OSM   H12T12034   1.443   5.644   9.420 -0.9073 -1.2240 -0.8486
  115OSM   C13S12035   1.399   5.838   9.356  0.6163 -0.1706  0.8341
  115OSM   H13S12036   1.468   5.893   9.423  0.4458  1.0171  0.0655
  115OSM   H13T12037   1.314   5.908   9.343  2.9880  2.9185  1.0437
  115OSM   C14S12038   1.454   5.813   9.215  0.4860  0.5784 -0.6397
  115OSM   H14S12039   1.363   5.789   9.157 -0.2374  2.7375 -0.4888
  115OSM   H14T12040   1.529   5.730   9.214  0.1097  0.2233 -1.9699
  115OSM   C15S12041   1.522   5.931   9.151 -0.6597 -0.2763  0.3447
  115OSM   H15S12042   1.630   5.934   9.175 -0.7328 -1.4820  0.9056
  115OSM   H15T12043   1.462   6.020   9.180 -1.1891 -0.8703  1.1251
  115OSM   C16S12044   1.513   5.914   8.993 -0.1779  0.1607 -0.7546
  115OSM   H16S12045   1.404   5.905   8.972 -0.4033  0.8413  0.0691
  115OSM   H16T12046   1.553   5.818   8.954 -2.0472 -0.8154 -0.4077
  115OSM   C17S12047   1.559   6.037   8.911 -0.0675 -0.1691 -0.3259
  115OSM   H17S12048   1.664   6.057   8.943  0.1488 -0.0572 -1.0892
  115OSM   H17T12049   1.502   6.131   8.930 -0.9782 -0.8550  0.4560
  115OSM   C18S12050   1.542   6.003   8.767  0.3459  0.2247  0.7962
  115OSM   H18S12051   1.599   5.912   8.737  2.3889  1.9631 -0.9966
  115OSM   H18T12052   1.586   6.085   8.705  1.1672 -2.4496 -2.4829
  115OSM   H18U12053   1.436   5.988   8.739  0.2757  0.5230  0.9080
  115OSM    C1F12054   1.821   5.603  10.419 -0.8635  0.5409  0.6207
  115OSM     OF12055   1.864   5.538  10.516  0.4472  0.5424  0.7606
  115OSM    C2F12056   1.917   5.654  10.313 -0.4855 -0.1095  0.2723
  115OSM    H2F12057   1.946   5.760  10.327 -0.4982  0.2718 -2.1462
  115OSM    H2G12058   1.868   5.642  10.214 -0.3621 -3.3789  0.4791
  115OSM    C3F12059   2.052   5.577  10.306  0.0821 -0.3239  0.1015
  115OSM    H3F12060   2.102   5.574  10.405  2.3023  0.2621 -0.9259
  115OSM    H3G12061   2.126   5.622  10.236 -0.3478  1.3438  0.6768
  115OSM    C4F12062   2.033   5.432  10.252  0.0563  0.4840  0.5889
  115OSM    H4F12063   1.963   5.373  10.316 -1.2743  1.1339 -0.2263
  115OSM    H4G12064   2.130   5.378  10.252  0.2205  0.6969 -1.9221
  115OSM    C5F12065   1.990   5.408  10.107 -0.7481  0.0478 -0.3836
  115OSM    H5F12066   1.928   5.492  10.070  0.0310  0.9102  0.2369
  115OSM    H5G12067   1.915   5.326  10.107 -0.9594  0.2345 -1.0877
  115OSM    C6F12068   2.086   5.356  10.006 -0.7531  0.0757  0.7360
  115OSM    H6F12069   2.122   5.254  10.031  1.7192  1.2875  2.5090
  115OSM    H6G12070   2.180   5.414  10.009 -0.3525 -0.6004  3.3799
  115OSM    C7F12071   2.028   5.375   9.856 -0.3464  0.0380  0.3575
  115OSM    H7F12072   2.014   5.482   9.830  1.2704 -0.3241 -2.4841
  115OSM    H7G12073   1.935   5.314   9.853  0.5172 -1.3787  1.3791
  115OSM    C8F12074   2.122   5.318   9.743  0.1595  0.4403 -0.2691
  115OSM    H8F12075   2.167   5.226   9.785 -3.0759 -1.7171 -1.0759
  115OSM    H8G12076   2.201   5.393   9.726  0.9458 -0.6538 -1.6224
  115OSM    C9F12077   2.041   5.284   9.624 -0.2734  0.3974 -0.1416
  115OSM    H9F12078   1.944   5.240   9.653 -1.3443  2.4058 -0.5369
  115OSM   C10F12079   2.061   5.321   9.502 -0.0118  0.3452  1.0018
  115OSM   H10F12080   1.995   5.295   9.418 -1.3411 -0.0364  2.1355
  115OSM   C11F12081   2.177   5.405   9.452  0.1141 -0.2639 -0.0316
  115OSM   H11F12082   2.246   5.434   9.534 -0.2274 -0.4309  0.3210
  115OSM   H11G12083   2.132   5.500   9.416  0.8037  0.1532  0.1838
  115OSM   C12F12084   2.257   5.329   9.343  0.8811  0.5276 -0.5772
  115OSM   H12F12085   2.294   5.231   9.381 -0.7552  0.0966  0.0027
  115OSM   H12G12086   2.350   5.386   9.323  2.2363 -1.4979 -0.4190
  115OSM   C13F12087   2.172   5.318   9.207 -0.0565  0.3587 -0.2609
  115OSM   H13F12088   2.125   5.418   9.197  1.2783  0.9433 -1.0499
  115OSM   H13G12089   2.096   5.239   9.224 -0.6587  1.3834  2.2684
  115OSM   C14F12090   2.249   5.272   9.082 -0.1887 -0.0452 -0.7034
  115OSM   H14F12091   2.310   5.183   9.106 -0.8816  0.1240  2.0227
  115OSM   H14G12092   2.322   5.354   9.066  3.4211 -2.1923  3.0530
  115OSM   C15F12093   2.161   5.253   8.954 -0.1786  0.1343  0.2576
  115OSM   H15F12094   2.091   5.335   8.925 -0.5140 -1.4675 -4.2167
  115OSM   H15G12095   2.091   5.167   8.962 -0.6916  0.7183  3.3523
  115OSM   C16F12096   2.244   5.213   8.829  0.5012 -0.7178  0.4370
  115OSM   H16F12097   2.268   5.105   8.835 -0.2014 -1.2618 -3.4420
  115OSM   H16G12098   2.336   5.275   8.827 -0.3373  0.5520 -0.1554
  115OSM   C17F12099   2.170   5.234   8.694  0.4191 -0.0299  0.2875
  115OSM   H17F12100   2.169   5.344   8.681 -0.4427  0.0852  1.2171
  115OSM   H17G12101   2.068   5.189   8.697  0.4297 -0.0212  0.8525
  115OSM   C18F12102   2.232   5.165   8.574 -0.1238 -0.1951 -0.6007
  115OSM   H18F12103   2.339   5.161   8.602 -0.3173  2.5799  0.9825
  115OSM   H18G12104   2.220   5.228   8.483  0.3255 -0.4905 -0.8664
  115OSM   H18H12105   2.186   5.066   8.553  1.0872 -1.8271  3.4657
  116OSM      N12106   2.284   1.204  11.273  0.3235  0.0757  0.0100
  116OSM    C1512107   2.197   1.140  11.175  0.0520  0.1386 -0.3770
  116OSM   H15A12108   2.243   1.161  11.079  1.8703 -1.8243 -0.0057
  116OSM   H15B12109   2.100   1.183  11.192  0.4553  0.8284  0.2015
  116OSM   H15C12110   2.193   1.032  11.177 -1.2854  0.1772  0.0133
  116OSM    C1412111   2.224   1.185  11.406 -0.2883 -0.3421  0.9439
  116OSM   H14A12112   2.190   1.086  11.431  1.7727 -0.7667  2.4059
  116OSM   H14B12113   2.134   1.243  11.420 -0.5820  0.5767 -3.3652
  116OSM   H14C12114   2.289   1.219  11.486 -0.3817  0.5500  0.6536
  116OSM    C1312115   2.424   1.149  11.278  0.2587 -0.5979  0.1372
  116OSM   H13A12116   2.489   1.164  11.194  2.2430 -1.8737  1.3525
  116OSM   H13B12117   2.417   1.043  11.301 -1.3732 -0.3181  1.0860
  116OSM   H13C12118   2.476   1.200  11.358  2.5314 -2.7552  0.1417
  116OSM    C1212119   2.286   1.350  11.243 -1.1911  0.1861 -0.5392
  116OSM   H12A12120   2.321   1.410  11.325 -0.5300  1.4400 -1.6883
  116OSM   H12B12121   2.187   1.382  11.214 -0.7493  2.3760  0.1595
  116OSM    C1112122   2.389   1.384  11.124  0.5497 -0.3885  0.0976
  116OSM   H11A12123   2.492   1.359  11.158  1.2041  1.9809  0.0254
  116OSM   H11B12124   2.374   1.492  11.104  0.7397 -0.3233  0.2982
  116OSM      P12125   2.253   1.365  10.914  0.0491  0.2331  0.1692
  116OSM    O1312126   2.231   1.255  10.820 -0.1760 -0.1921 -0.1094
  116OSM    O1412127   2.141   1.415  10.989 -0.4298  0.0286 -0.1475
  116OSM    O1112128   2.327   1.483  10.840  0.1904 -0.9472 -0.2084
  116OSM    O1212129   2.364   1.311  11.010  0.1924 -0.2548  0.5301
  116OSM    C1S12130   2.460   1.455  10.793 -0.0842 -0.0263 -0.3463
  116OSM    H1S12131   2.466   1.353  10.750 -2.2852 -0.0385 -0.7712
  116OSM    H1T12132   2.522   1.463  10.884 -2.2191  2.3956  1.0281
  116OSM     NF12133   2.606   1.484  10.596 -0.5775 -0.0089  0.4576
  116OSM    HNF12134   2.700   1.499  10.626 -1.6277  1.2367  3.6001
  116OSM    C2S12135   2.504   1.555  10.676 -0.5053  0.4900  0.1525
  116OSM    H2S12136   2.424   1.576  10.603  0.0833  2.5576  0.0481
  116OSM    C3S12137   2.543   1.687  10.742  0.1472  0.3210 -0.4402
  116OSM    H3S12138   2.634   1.665  10.803  1.7376  1.0910 -2.4181
  116OSM     O312139   2.444   1.743  10.835 -0.3590  0.4562 -0.5887
  116OSM    HO312140   2.382   1.673  10.857 -1.7093  1.6332 -0.4693
  116OSM    C4S12141   2.589   1.782  10.632 -0.9798 -0.1739 -0.4624
  116OSM    H4S12142   2.692   1.756  10.605  0.7581  0.0900  4.7556
  116OSM    C5S12143   2.518   1.889  10.568  0.4187  0.3248  0.4402
  116OSM    H5S12144   2.417   1.914  10.604  0.0451 -0.4114 -0.0662
  116OSM    C6S12145   2.574   1.984  10.464  0.1918  0.4363 -0.8629
  116OSM    H6S12146   2.683   1.994  10.484 -0.0022 -0.3309  0.8053
  116OSM    H6T12147   2.515   2.078  10.472  0.1371  0.3220  0.2277
  116OSM    C7S12148   2.559   1.924  10.330  0.2601 -0.1060  0.6096
  116OSM    H7S12149   2.455   1.911  10.292  0.6278 -0.7613 -0.1888
  116OSM    H7T12150   2.590   1.817  10.326 -0.7087 -0.3979  0.6209
  116OSM    C8S12151   2.634   1.994  10.211  0.3385  0.5429 -0.4201
  116OSM    H8S12152   2.743   1.997  10.232  0.3237  2.1995 -0.4200
  116OSM    H8T12153   2.590   2.095  10.227 -0.7917  0.0256 -0.1717
  116OSM    C9S12154   2.595   1.935  10.077 -0.3821  0.1925  0.2993
  116OSM    H9S12155   2.487   1.948  10.054 -0.7436  0.5134  2.0131
  116OSM    H9T12156   2.620   1.827  10.082  0.3509  0.3588  0.3900
  116OSM   C10S12157   2.673   2.003   9.966 -0.5970  0.3360 -0.5473
  116OSM   H10S12158   2.777   2.012  10.005 -0.6194 -0.8105 -0.1952
  116OSM   H10T12159   2.645   2.111   9.958 -2.8722 -0.2990 -2.5871
  116OSM   C11S12160   2.663   1.927   9.831  0.0320 -0.2444 -0.5458
  116OSM   H11S12161   2.555   1.902   9.820 -0.7113  1.4772  1.9109
  116OSM   H11T12162   2.730   1.838   9.835 -0.4089 -0.5342  0.7919
  116OSM   C12S12163   2.722   2.010   9.712  0.7304  0.3574  0.0773
  116OSM   H12S12164   2.819   2.057   9.740  0.5075  0.3656  0.8897
  116OSM   H12T12165   2.661   2.101   9.693  1.1441  0.4173 -0.9772
  116OSM   C13S12166   2.718   1.937   9.572 -0.3848 -0.2112  0.0431
  116OSM   H13S12167   2.611   1.915   9.551  0.0032 -0.6844 -1.5133
  116OSM   H13T12168   2.771   1.840   9.584 -1.7933 -0.8406  1.5519
  116OSM   C14S12169   2.794   2.007   9.456 -0.4905  0.0883  0.0681
  116OSM   H14S12170   2.901   2.021   9.485  0.2904  0.1212 -2.5753
  116OSM   H14T12171   2.752   2.110   9.454 -1.0507 -0.1105  1.0203
  116OSM   C15S12172   2.758   1.947   9.323  0.9976 -0.0214  1.0010
  116OSM   H15S12173   2.648   1.950   9.309  1.0896  1.3002  0.3471
  116OSM   H15T12174   2.781   1.839   9.314 -2.9502 -0.8784 -0.5214
  116OSM   C16S12175   2.822   2.020   9.206 -0.0200  0.8534 -0.1237
  116OSM   H16S12176   2.927   2.000   9.177 -0.4760 -0.7373 -0.7865
  116OSM   H16T12177   2.818   2.127   9.235 -2.2252  0.5840  0.7808
  116OSM   C17S12178   2.726   2.005   9.087 -0.8565 -0.6541 -0.3598
  116OSM   H17S12179   2.644   2.076   9.110  0.3446  0.9520 -0.8620
  116OSM   H17T12180   2.700   1.899   9.067 -0.1208 -0.8873 -0.1181
  116OSM   C18S12181   2.796   2.052   8.970 -0.7441 -0.5740  0.4390
  116OSM   H18S12182   2.840   2.153   8.987  0.2180 -0.8757 -0.1893
  116OSM   H18T12183   2.737   2.051   8.876 -1.1055 -2.0667  0.6639
  116OSM   H18U12184   2.874   1.981   8.937 -0.5067 -0.9596  1.7813
  116OSM    C1F12185   2.575   1.398  10.498  0.0807  0.5334  0.6477
  116OSM     OF12186   2.459   1.358  10.477 -0.6172  0.4186  0.3265
  116OSM    C2F12187   2.687   1.350  10.406  0.1536 -0.1579  0.2517
  116OSM    H2F12188   2.765   1.294  10.463 -1.1470 -3.6104 -1.1297
  116OSM    H2G12189   2.739   1.438  10.361 -0.2753 -0.4841 -0.9062
  116OSM    C3F12190   2.627   1.261  10.298 -0.3852  0.1491  1.2149
  116OSM    H3F12191   2.546   1.310  10.240  0.7711  0.3252 -0.3084
  116OSM    H3G12192   2.574   1.177  10.349  2.2217 -0.7962  2.5368
  116OSM    C4F12193   2.727   1.213  10.192 -0.4781 -0.8843  0.5637
  116OSM    H4F12194   2.793   1.161  10.265 -0.0975  1.6659  2.1692
  116OSM    H4G12195   2.792   1.291  10.148  0.7581 -0.3490  3.1478
  116OSM    C5F12196   2.650   1.116  10.099 -0.6475  0.1099 -0.0712
  116OSM    H5F12197   2.562   1.174  10.064 -0.5740  0.0153 -0.4214
  116OSM    H5G12198   2.606   1.025  10.144 -0.5909 -1.4787 -2.9757
  116OSM    C6F12199   2.729   1.075   9.973  0.0992 -0.1387 -0.3175
  116OSM    H6F12200   2.807   1.002  10.003 -0.7873 -1.0964 -0.2899
  116OSM    H6G12201   2.780   1.167   9.936 -1.5333 -0.3110 -3.3277
  116OSM    C7F12202   2.653   1.023   9.851  0.3809  0.3660  0.3240
  116OSM    H7F12203   2.604   1.104   9.792  0.1542 -0.9455 -1.3671
  116OSM    H7G12204   2.564   0.966   9.884 -0.0757 -0.4040 -2.0344
  116OSM    C8F12205   2.735   0.931   9.758 -0.2357 -0.4260  0.1920
  116OSM    H8F12206   2.667   0.925   9.670  0.4271  0.4572 -0.3967
  116OSM    H8G12207   2.740   0.830   9.804 -1.2677 -0.8895 -0.6434
  116OSM    C9F12208   2.870   0.980   9.712  0.3106  0.8416 -0.5189
  116OSM    H9F12209   2.942   0.947   9.789  0.2610 -0.7620 -1.1310
  116OSM   C10F12210   2.910   1.043   9.602  0.5708  0.7534  0.7841
  116OSM   H10F12211   3.018   1.059   9.593  0.2038  2.6864 -1.0010
  116OSM   C11F12212   2.818   1.099   9.493 -0.2900 -0.8296  0.3368
  116OSM   H11F12213   2.799   1.208   9.506  0.4702 -0.3931 -1.7768
  116OSM   H11G12214   2.719   1.048   9.488 -2.0776  2.4878 -1.6117
  116OSM   C12F12215   2.883   1.083   9.352 -0.0985 -0.1229  0.6340
  116OSM   H12F12216   2.906   0.976   9.329 -0.3329 -0.1470  0.5131
  116OSM   H12G12217   2.980   1.136   9.348 -1.3588  2.2486 -0.3937
  116OSM   C13F12218   2.785   1.132   9.243  0.8686 -0.6755  0.3792
  116OSM   H13F12219   2.786   1.242   9.257  1.0479 -0.6396  0.0943
  116OSM   H13G12220   2.688   1.084   9.270  1.1398 -1.2257  0.3910
  116OSM   C14F12221   2.841   1.094   9.112  0.0427 -0.0026 -0.1157
  116OSM   H14F12222   2.885   0.992   9.105 -0.4494 -0.5346  3.0743
  116OSM   H14G12223   2.934   1.153   9.097  0.7990 -0.7062  1.5856
  116OSM   C15F12224   2.755   1.136   8.997  0.3333 -0.0360  0.0255
  116OSM   H15F12225   2.796   1.114   8.896  1.2836  1.5003  0.0482
  116OSM   H15G12226   2.740   1.246   8.988  1.0658 -0.0529 -1.9624
  116OSM   C16F12227   2.613   1.079   8.990  0.8553  0.4926  0.1165
  116OSM   H16F12228   2.563   1.082   9.090 -2.3219 -1.7443 -1.2457
  116OSM   H16G12229   2.621   0.973   8.958  2.5914  0.5708  0.1961
  116OSM   C17F12230   2.524   1.145   8.884  0.7833 -0.0053 -0.2803
  116OSM   H17F12231   2.573   1.116   8.789  1.7411  0.6814 -0.0140
  116OSM   H17G12232   2.524   1.256   8.892  0.3118  0.1172 -1.7584
  116OSM   C18F12233   2.382   1.091   8.886 -0.2301  0.0202 -0.2077
  116OSM   H18F12234   2.392   0.986   8.851  1.2899 -0.5910  1.8343
  116OSM   H18G12235   2.303   1.152   8.837  0.1771  0.6659 -0.0663
  116OSM   H18H12236   2.356   1.085   8.994  2.7951 -1.0082  0.5732
  117OSM      N12237   1.733   1.946  10.938 -0.0738 -0.4079  0.6385
  117OSM    C1512238   1.591   1.986  10.985  0.0576 -0.4274 -0.0982
  117OSM   H15A12239   1.599   2.046  11.075 -1.5422  1.0307 -0.8533
  117OSM   H15B12240   1.531   1.899  11.005  2.3920 -1.5108  2.9789
  117OSM   H15C12241   1.542   2.037  10.903  0.2973 -0.3705 -0.2067
  117OSM    C1412242   1.824   2.069  10.935  0.1444  0.3024  0.3370
  117OSM   H14A12243   1.822   2.117  11.032  0.1402  0.2804  0.3477
  117OSM   H14B12244   1.785   2.135  10.859  0.6558  0.4928  0.2352
  117OSM   H14C12245   1.928   2.048  10.916  0.0197  0.2554 -0.3056
  117OSM    C1312246   1.792   1.857  11.036  0.2017 -0.1837 -0.5604
  117OSM   H13A12247   1.722   1.780  11.064  0.6473 -0.8463 -1.2480
  117OSM   H13B12248   1.831   1.909  11.122  0.0354 -0.8427 -0.0765
  117OSM   H13C12249   1.872   1.801  10.991 -0.0597  0.1230 -1.4411
  117OSM    C1212250   1.734   1.880  10.798  0.4534 -0.0388  0.7808
  117OSM   H12A12251   1.701   1.956  10.728  0.0130 -1.2073 -0.3289
  117OSM   H12B12252   1.661   1.799  10.795  0.5894 -0.1767  1.1904
  117OSM    C1112253   1.867   1.819  10.747  0.3689 -0.2122  0.8077
  117OSM   H11A12254   1.938   1.885  10.799 -0.5469  1.0775  0.4591
  117OSM   H11B12255   1.875   1.812  10.636  1.7353 -0.2813  0.8987
  117OSM      P12256   1.820   1.560  10.726 -1.0147 -0.2443  0.0388
  117OSM    O1312257   1.856   1.445  10.819  0.0966  0.1387  0.6311
  117OSM    O1412258   1.678   1.579  10.697  0.4671  0.5087  0.2414
  117OSM    O1112259   1.902   1.555  10.588  0.3953  0.2378 -0.5518
  117OSM    O1212260   1.876   1.686  10.800  0.4164  0.4578 -0.5969
  117OSM    C1S12261   2.007   1.451  10.584  0.5076 -0.3123 -1.2126
  117OSM    H1S12262   1.970   1.347  10.600 -2.1095  0.7340  0.0214
  117OSM    H1T12263   2.088   1.468  10.659 -1.2608  0.2115  0.6491
  117OSM     NF12264   2.151   1.325  10.426 -0.3606  0.3882  0.3711
  117OSM    HNF12265   2.250   1.336  10.424 -0.2342 -0.5946  0.5852
  117OSM    C2S12266   2.084   1.446  10.446 -0.2942  0.0817  0.2459
  117OSM    H2S12267   2.005   1.450  10.368 -0.4391 -1.9547  0.2360
  117OSM    C3S12268   2.168   1.570  10.431 -0.6613 -0.0702 -0.7705
  117OSM    H3S12269   2.245   1.570  10.512 -1.9846  1.3017  0.5607
  117OSM     O312270   2.087   1.684  10.449  0.0339  0.3060  1.0031
  117OSM    HO312271   2.006   1.647  10.485 -0.2365 -1.9624 -1.5840
  117OSM    C4S12272   2.233   1.576  10.297 -0.6887  0.3402 -0.1414
  117OSM    H4S12273   2.154   1.581  10.221  1.0017 -2.0834 -2.2447
  117OSM    C5S12274   2.362   1.568  10.265 -0.3278 -0.2699 -0.0191
  117OSM    H5S12275   2.436   1.569  10.346  1.0529  2.0530 -1.1981
  117OSM    C6S12276   2.419   1.562  10.126 -0.4354  0.4964  0.5019
  117OSM    H6S12277   2.501   1.488  10.111  0.0450  1.0019  0.5792
  117OSM    H6T12278   2.465   1.660  10.101  3.1066 -1.4272 -1.3100
  117OSM    C7S12279   2.321   1.526  10.018  0.8366  0.3630 -0.2365
  117OSM    H7S12280   2.231   1.588   9.996 -0.1154 -1.1370 -0.6936
  117OSM    H7T12281   2.274   1.428  10.044 -0.8657  1.1359 -0.2609
  117OSM    C8S12282   2.397   1.497   9.888 -0.2659  0.2330  0.5912
  117OSM    H8S12283   2.333   1.437   9.820  0.2357 -0.5584  0.8078
  117OSM    H8T12284   2.474   1.417   9.900  0.1970  0.9923  3.5432
  117OSM    C9S12285   2.441   1.631   9.827 -0.1379  0.5046 -0.1281
  117OSM    H9S12286   2.499   1.693   9.899 -1.4500  0.5139  0.9676
  117OSM    H9T12287   2.348   1.686   9.800 -0.2412 -0.1140 -1.0833
  117OSM   C10S12288   2.534   1.608   9.706 -0.5420 -0.3537 -0.4537
  117OSM   H10S12289   2.608   1.531   9.737 -1.5951 -0.6364  1.5460
  117OSM   H10T12290   2.597   1.697   9.685 -0.1265 -0.7497 -0.9124
  117OSM   C11S12291   2.463   1.552   9.579 -0.3477 -0.6852 -0.8066
  117OSM   H11S12292   2.381   1.623   9.556 -0.9218 -0.7987  0.7552
  117OSM   H11T12293   2.418   1.458   9.618 -0.4784  0.3558  1.7217
  117OSM   C12S12294   2.562   1.523   9.469  0.5973  0.1368  0.6170
  117OSM   H12S12295   2.647   1.455   9.489  0.5223  0.2619  1.3853
  117OSM   H12T12296   2.611   1.622   9.460  1.3772  0.0068  2.7954
  117OSM   C13S12297   2.510   1.487   9.319 -0.7022 -0.1966 -0.3256
  117OSM   H13S12298   2.433   1.407   9.307 -2.7016  1.1245  2.5499
  117OSM   H13T12299   2.609   1.462   9.276  0.9235 -0.9520  3.4796
  117OSM   C14S12300   2.463   1.611   9.247  0.0075  0.4083  0.4748
  117OSM   H14S12301   2.546   1.685   9.241  1.1439 -0.8628 -0.2496
  117OSM   H14T12302   2.382   1.661   9.304 -1.1029  0.2198 -0.8708
  117OSM   C15S12303   2.416   1.576   9.102  0.1176 -0.2993 -0.0081
  117OSM   H15S12304   2.339   1.496   9.106  1.1566 -1.2722  1.7203
  117OSM   H15T12305   2.501   1.547   9.038  1.3633  1.1002  0.9444
  117OSM   C16S12306   2.355   1.695   9.025  0.1408 -0.1440 -0.0747
  117OSM   H16S12307   2.286   1.655   8.947 -2.4708 -0.3855  2.2104
  117OSM   H16T12308   2.436   1.752   8.974 -2.0069  1.9016 -1.3544
  117OSM   C17S12309   2.268   1.794   9.107  0.0974 -0.1651 -0.7779
  117OSM   H17S12310   2.242   1.887   9.053 -2.7787 -0.2519  0.2954
  117OSM   H17T12311   2.338   1.829   9.186 -0.8159  0.3580 -0.1936
  117OSM   C18S12312   2.137   1.742   9.164 -0.2005  0.2601  0.3003
  117OSM   H18S12313   2.154   1.649   9.223 -0.8774 -0.0623  0.0108
  117OSM   H18T12314   2.061   1.721   9.085  1.2605  2.1082 -1.7321
  117OSM   H18U12315   2.085   1.818   9.226  1.3757  1.8470 -0.2534
  117OSM    C1F12316   2.097   1.208  10.385 -0.1925  0.6920 -0.6456
  117OSM     OF12317   1.972   1.185  10.373 -0.5612 -0.0657  0.2992
  117OSM    C2F12318   2.185   1.095  10.347  0.2771  0.0338  0.1432
  117OSM    H2F12319   2.122   1.006  10.330  0.4445  0.3183 -2.3746
  117OSM    H2G12320   2.254   1.073  10.431 -0.2007  0.8796  0.7747
  117OSM    C3F12321   2.275   1.125  10.221  1.1340  0.3826  0.0666
  117OSM    H3F12322   2.365   1.061  10.215  0.1213 -1.0917  0.1412
  117OSM    H3G12323   2.304   1.232  10.235 -2.8304  1.4764  1.3207
  117OSM    C4F12324   2.201   1.110  10.087 -0.0841  0.0967 -0.1650
  117OSM    H4F12325   2.132   1.198  10.084 -1.1570 -0.7474 -1.8516
  117OSM    H4G12326   2.152   1.011  10.083  0.4209 -0.1568 -0.0762
  117OSM    C5F12327   2.307   1.134   9.976 -0.3273  0.0676 -0.7808
  117OSM    H5F12328   2.383   1.055   9.996 -0.2466 -0.1981 -2.0627
  117OSM    H5G12329   2.356   1.231   9.996  0.1608 -0.5303  1.1100
  117OSM    C6F12330   2.241   1.136   9.837  1.3479 -0.8457  0.1143
  117OSM    H6F12331   2.165   1.216   9.830  0.6062 -1.4474  1.1199
  117OSM    H6G12332   2.177   1.049   9.812  1.8035 -1.0857 -0.2537
  117OSM    C7F12333   2.341   1.152   9.726 -0.3232  0.7080 -0.6344
  117OSM    H7F12334   2.392   1.053   9.719  1.1263  1.4471 -0.8574
  117OSM    H7G12335   2.416   1.232   9.743  0.5918 -0.2997  0.2091
  117OSM    C8F12336   2.262   1.179   9.597  0.3254  0.0958  0.0124
  117OSM    H8F12337   2.203   1.274   9.598 -2.7219 -1.6168 -2.3014
  117OSM    H8G12338   2.187   1.100   9.578 -0.1187 -0.0871  2.2624
  117OSM    C9F12339   2.354   1.185   9.479  0.1474 -0.4865 -0.7176
  117OSM    H9F12340   2.443   1.248   9.492  0.7821 -1.6767  0.9893
  117OSM   C10F12341   2.345   1.112   9.365 -0.4550  0.1011  0.0015
  117OSM   H10F12342   2.421   1.139   9.290  0.5971  0.3391  1.1195
  117OSM   C11F12343   2.246   1.013   9.315  0.0904  0.3624  0.2371
  117OSM   H11F12344   2.176   1.056   9.240  2.0420  0.4295 -1.6444
  117OSM   H11G12345   2.187   0.971   9.399  0.4569  0.5490  0.5906
  117OSM   C12F12346   2.304   0.883   9.255 -0.2818 -0.0441  0.3725
  117OSM   H12F12347   2.376   0.842   9.329  1.0918 -1.4878 -1.6441
  117OSM   H12G12348   2.369   0.902   9.167  0.7829  0.3182  1.2118
  117OSM   C13F12349   2.191   0.783   9.219 -0.2935 -0.1240  0.1014
  117OSM   H13F12350   2.143   0.834   9.132 -0.1290  0.7361  0.5055
  117OSM   H13G12351   2.109   0.794   9.294  0.0587 -2.1176  0.8364
  117OSM   C14F12352   2.233   0.634   9.208  0.3667  0.7164 -0.0630
  117OSM   H14F12353   2.134   0.584   9.198 -0.2426  1.7540  0.5731
  117OSM   H14G12354   2.286   0.599   9.299 -0.0403  1.6773  0.5632
  117OSM   C15F12355   2.325   0.605   9.083  0.1694  0.1465  0.0425
  117OSM   H15F12356   2.418   0.664   9.096  0.7318 -0.6435 -0.3249
  117OSM   H15G12357   2.284   0.635   8.984  1.2690  1.5070 -0.0227
  117OSM   C16F12358   2.387   0.464   9.090  0.0774 -0.1841  0.0954
  117OSM   H16F12359   2.309   0.386   9.099  1.2605 -1.3696  0.3285
  117OSM   H16G12360   2.452   0.441   9.177  1.1078  0.9657 -0.3264
  117OSM   C17F12361   2.469   0.431   8.969 -0.3729 -0.1423  0.8413
  117OSM   H17F12362   2.568   0.481   8.970 -1.4875  2.4274 -2.1587
  117OSM   H17G12363   2.404   0.472   8.889  0.5835 -0.3131 -0.0384
  117OSM   C18F12364   2.493   0.283   8.963  0.1893  0.1520  0.2086
  117OSM   H18F12365   2.551   0.254   8.872 -0.1569 -3.0256  0.8870
  117OSM   H18G12366   2.396   0.230   8.952 -0.4733  1.4288 -0.3234
  117OSM   H18H12367   2.529   0.252   9.063  3.2838  0.3199 -0.7180
  118OSM      N12368   1.613   3.098  11.163 -0.1236  0.3123 -0.3440
  118OSM    C1512369   1.493   3.014  11.194 -0.2296 -0.3365  1.0936
  118OSM   H15A12370   1.401   3.069  11.179 -0.3560 -0.7841  0.1419
  118OSM   H15B12371   1.465   3.007  11.298 -2.0868  2.9782  0.9480
  118OSM   H15C12372   1.484   2.914  11.156 -1.4672 -0.2803  1.2020
  118OSM    C1412373   1.587   3.241  11.212 -0.0352 -0.5899 -0.1321
  118OSM   H14A12374   1.578   3.242  11.320  2.8975  1.6389  0.2105
  118OSM   H14B12375   1.497   3.272  11.161  0.7486  0.7079 -0.7612
  118OSM   H14C12376   1.669   3.308  11.189  3.0175 -3.5628  1.1824
  118OSM    C1312377   1.733   3.042  11.228 -0.2318  0.0593 -0.8527
  118OSM   H13A12378   1.767   2.950  11.183 -0.4853 -1.1041  1.2214
  118OSM   H13B12379   1.717   3.022  11.333  0.7684 -0.7586 -0.8360
  118OSM   H13C12380   1.811   3.116  11.217 -1.2185  1.0531 -1.3814
  118OSM    C1212381   1.636   3.101  11.016  0.1387  0.2801 -0.1080
  118OSM   H12A12382   1.727   3.158  11.003  0.3075 -0.1806 -0.9995
  118OSM   H12B12383   1.560   3.157  10.963 -0.0532 -1.0408 -1.2942
  118OSM    C1112384   1.666   2.973  10.934  0.2238  0.1297  0.3146
  118OSM   H11A12385   1.666   2.991  10.824 -1.0375 -1.3098  0.0422
  118OSM   H11B12386   1.578   2.907  10.948  0.4394 -0.3288 -0.4326
  118OSM      P12387   1.916   2.914  10.897 -0.1949 -0.1384 -0.7775
  118OSM    O1312388   1.999   3.031  10.933  0.3693 -0.4781 -0.3016
  118OSM    O1412389   1.976   2.786  10.916 -0.0633  0.3601  0.3772
  118OSM    O1112390   1.855   2.920  10.753 -0.2923  0.5068  0.7756
  118OSM    O1212391   1.786   2.912  10.985 -0.2169 -0.8527 -0.1168
  118OSM    C1S12392   1.892   3.028  10.660 -0.2421 -0.3787 -1.2793
  118OSM    H1S12393   1.997   3.064  10.668 -1.1015  1.9972  0.3937
  118OSM    H1T12394   1.833   3.119  10.683 -0.8796 -0.3325 -2.9817
  118OSM     NF12395   1.882   3.128  10.439 -0.1388  0.5248  0.5427
  118OSM    HNF12396   1.801   3.169  10.399  0.5655 -0.6070 -2.2428
  118OSM    C2S12397   1.856   3.000  10.510  0.0691 -0.2284  0.5834
  118OSM    H2S12398   1.928   2.924  10.474 -0.2044 -0.1455 -0.1730
  118OSM    C3S12399   1.716   2.947  10.482 -0.1402 -0.3392 -0.1569
  118OSM    H3S12400   1.638   3.023  10.504 -2.3201 -2.2877 -0.8139
  118OSM     O312401   1.681   2.841  10.563 -0.5701  0.5308 -0.0954
  118OSM    HO312402   1.745   2.842  10.634  1.1546  0.3136 -1.5855
  118OSM    C4S12403   1.701   2.914  10.332  0.2134 -0.2232 -0.2836
  118OSM    H4S12404   1.639   2.982  10.273 -0.2354  0.5784  1.0535
  118OSM    C5S12405   1.750   2.804  10.268 -0.2657 -0.1743  0.0054
  118OSM    H5S12406   1.817   2.738  10.325 -1.5428 -2.1686 -0.7184
  118OSM    C6S12407   1.735   2.775  10.123 -0.5533  0.4529  0.4602
  118OSM    H6S12408   1.645   2.712  10.104 -0.5658 -0.3804  2.8669
  118OSM    H6T12409   1.824   2.711  10.102 -2.8975 -4.3093  3.2276
  118OSM    C7S12410   1.721   2.890  10.026 -0.2838  0.2260  0.6498
  118OSM    H7S12411   1.803   2.965  10.034  0.0817 -0.0338 -0.5399
  118OSM    H7T12412   1.632   2.953  10.049  0.0499  0.5160  1.1732
  118OSM    C8S12413   1.716   2.844   9.875 -0.8469 -0.0362 -1.4013
  118OSM    H8S12414   1.649   2.757   9.858 -1.4203  0.9158 -4.7571
  118OSM    H8T12415   1.820   2.826   9.840 -0.2928 -0.6499  0.4382
  118OSM    C9S12416   1.665   2.954   9.781  0.1436 -0.2598  0.9874
  118OSM    H9S12417   1.738   3.038   9.783  0.9146 -0.9159  0.7066
  118OSM    H9T12418   1.566   2.983   9.823 -0.6145  0.1085 -0.9640
  118OSM   C10S12419   1.648   2.921   9.633 -0.2711 -0.4774  0.1176
  118OSM   H10S12420   1.563   2.851   9.643 -0.3254 -0.3151  0.7878
  118OSM   H10T12421   1.735   2.866   9.590 -0.2737  1.0862 -2.0507
  118OSM   C11S12422   1.603   3.035   9.541  0.3176 -1.0272  0.0006
  118OSM   H11S12423   1.671   3.123   9.549 -0.6579 -0.3040  0.6879
  118OSM   H11T12424   1.501   3.062   9.575  1.0798  0.1971  1.4578
  118OSM   C12S12425   1.595   2.988   9.395  0.4796  0.3260 -1.6396
  118OSM   H12S12426   1.701   2.968   9.365  0.0845 -3.3895 -1.0664
  118OSM   H12T12427   1.567   3.079   9.338  1.8445  0.6406 -1.8487
  118OSM   C13S12428   1.514   2.854   9.383  0.8032 -0.5850  0.0675
  118OSM   H13S12429   1.408   2.871   9.415 -0.2200 -0.6438 -2.9763
  118OSM   H13T12430   1.572   2.780   9.443 -0.6063  0.1556  2.4937
  118OSM   C14S12431   1.505   2.818   9.238  0.2134  0.0420  0.6206
  118OSM   H14S12432   1.457   2.718   9.227 -0.6437  0.6398 -1.7963
  118OSM   H14T12433   1.610   2.802   9.206  0.5500 -0.6670  2.0122
  118OSM   C15S12434   1.426   2.913   9.151  0.6596  0.2279 -0.1897
  118OSM   H15S12435   1.493   2.992   9.112  0.3020 -0.3262 -2.0212
  118OSM   H15T12436   1.339   2.948   9.210  0.0955 -1.9548  0.3728
  118OSM   C16S12437   1.365   2.858   9.016 -0.3394 -0.8807 -0.8612
  118OSM   H16S12438   1.307   2.767   9.040  0.5925 -2.3053 -3.5759
  118OSM   H16T12439   1.446   2.818   8.951  0.8146 -1.6524  0.9702
  118OSM   C17S12440   1.271   2.961   8.945  0.4482 -0.7590 -0.4830
  118OSM   H17S12441   1.178   2.994   8.996  0.8465  0.2051 -0.3537
  118OSM   H17T12442   1.224   2.913   8.857 -1.1270  0.7904 -0.5308
  118OSM   C18S12443   1.358   3.079   8.901 -0.3190 -0.1065  0.3127
  118OSM   H18S12444   1.301   3.141   8.828  1.5180  0.1215 -0.9804
  118OSM   H18T12445   1.436   3.028   8.842 -2.1363 -1.4562 -1.0592
  118OSM   H18U12446   1.379   3.146   8.988 -2.0659  1.4050 -0.3453
  118OSM    C1F12447   2.006   3.170  10.426 -0.8527 -0.9012 -0.4541
  118OSM     OF12448   2.099   3.096  10.450 -0.5866 -0.5442  0.0880
  118OSM    C2F12449   2.025   3.316  10.373  0.4948 -0.2221 -0.7035
  118OSM    H2F12450   2.044   3.390  10.453  0.3637  2.1137 -2.7019
  118OSM    H2G12451   1.930   3.345  10.323  1.5786 -0.1579 -2.8545
  118OSM    C3F12452   2.146   3.313  10.271  0.1429  0.1554 -0.0269
  118OSM    H3F12453   2.234   3.254  10.303  0.4600 -0.0963 -1.3174
  118OSM    H3G12454   2.180   3.415  10.241 -1.9814  0.5071 -1.4942
  118OSM    C4F12455   2.108   3.253  10.131 -1.1813  0.2429  0.0110
  118OSM    H4F12456   2.040   3.323  10.077 -1.3428 -0.3270 -0.5475
  118OSM    H4G12457   2.048   3.161  10.148 -0.5385  0.3154  3.1611
  118OSM    C5F12458   2.227   3.221  10.044  0.1730  0.3614  0.3120
  118OSM    H5F12459   2.311   3.194  10.112 -0.1616  1.0392  1.0138
  118OSM    H5G12460   2.261   3.314   9.993  3.7665 -1.2360 -0.5188
  118OSM    C6F12461   2.186   3.117   9.942  0.2937 -0.3465  0.1385
  118OSM    H6F12462   2.173   3.018   9.990  1.4813 -1.4122 -1.6484
  118OSM    H6G12463   2.272   3.107   9.873  1.2910  2.3042  0.8669
  118OSM    C7F12464   2.069   3.166   9.855  0.4877  0.4739  0.3987
  118OSM    H7F12465   2.093   3.267   9.816  1.4585 -0.5152 -1.6924
  118OSM    H7G12466   1.983   3.173   9.925  1.0604  2.0895  1.0096
  118OSM    C8F12467   2.044   3.060   9.740  0.6371  0.2367 -0.0635
  118OSM    H8F12468   1.944   3.082   9.697  0.2690 -0.4195  0.4454
  118OSM    H8G12469   2.032   2.955   9.772  0.9315 -0.5911 -2.4510
  118OSM    C9F12470   2.146   3.075   9.632 -0.1288  0.7742  0.4106
  118OSM    H9F12471   2.239   3.028   9.665  0.5895  0.0377 -2.4160
  118OSM   C10F12472   2.126   3.139   9.516  0.1448 -0.2609  0.3671
  118OSM   H10F12473   2.209   3.141   9.443 -0.3614  1.0103 -0.1978
  118OSM   C11F12474   2.002   3.206   9.463  0.2036 -0.0400 -0.4130
  118OSM   H11F12475   2.016   3.315   9.476  0.0971 -0.2507  1.8644
  118OSM   H11G12476   1.914   3.168   9.519  0.9913 -0.9997  0.2022
  118OSM   C12F12477   1.975   3.190   9.307 -0.5208  0.1789 -0.3471
  118OSM   H12F12478   2.054   3.255   9.265  1.0531  0.2364  2.4657
  118OSM   H12G12479   1.874   3.232   9.290 -0.0520  0.9261 -1.3575
  118OSM   C13F12480   1.985   3.048   9.250 -0.1556  0.0883 -0.7946
  118OSM   H13F12481   1.921   2.989   9.319  1.2860  2.7109  3.1632
  118OSM   H13G12482   2.086   3.003   9.266 -0.6201 -0.8995 -0.5456
  118OSM   C14F12483   1.954   3.049   9.103 -0.0116  0.5600  0.1046
  118OSM   H14F12484   1.971   2.944   9.074 -0.6997  1.2906 -3.3406
  118OSM   H14G12485   2.026   3.119   9.055  0.3439  0.7953  0.9489
  118OSM   C15F12486   1.805   3.089   9.067  0.2700 -0.6238 -0.2398
  118OSM   H15F12487   1.802   3.200   9.067 -0.6226 -0.6336 -1.4615
  118OSM   H15G12488   1.729   3.055   9.140  1.1332 -2.5383 -0.1440
  118OSM   C16F12489   1.754   3.043   8.924 -0.4828  0.2893  0.3587
  118OSM   H16F12490   1.826   3.085   8.851  1.4002  0.1431  2.0566
  118OSM   H16G12491   1.653   3.090   8.924  0.1623  1.8337 -2.1181
  118OSM   C17F12492   1.746   2.889   8.907  0.5218 -0.8402  0.3204
  118OSM   H17F12493   1.697   2.849   8.998 -1.7475  2.0170  0.4904
  118OSM   H17G12494   1.845   2.839   8.906  1.1517  0.2822  2.1894
  118OSM   C18F12495   1.669   2.850   8.781  0.3477 -0.1843 -0.4437
  118OSM   H18F12496   1.577   2.912   8.776  1.7029  1.8474 -2.5623
  118OSM   H18G12497   1.643   2.742   8.776  0.5951 -0.2667  0.0430
  118OSM   H18H12498   1.724   2.873   8.687 -0.6712 -1.6741 -1.4573
  119OSM      N12499   3.987   2.348  11.139  1.0481 -0.3143 -0.2236
  119OSM    C1512500   3.975   2.237  11.238  0.0944  0.2182 -0.1823
  119OSM   H15A12501   4.050   2.251  11.315  1.5899 -0.6745 -1.3985
  119OSM   H15B12502   4.002   2.141  11.197  0.4910 -0.4626  1.5544
  119OSM   H15C12503   3.881   2.213  11.284  0.3645  2.3109  1.6054
  119OSM    C1412504   3.953   2.479  11.214 -0.1068 -0.8973 -0.5186
  119OSM   H14A12505   3.862   2.469  11.270  1.0473  1.6383  2.0004
  119OSM   H14B12506   3.952   2.562  11.144 -1.1580 -0.2353  0.2621
  119OSM   H14C12507   4.017   2.493  11.299 -3.1201 -0.7789  1.8826
  119OSM    C1312508   4.133   2.357  11.108  0.2354 -0.2776 -0.6319
  119OSM   H13A12509   4.165   2.272  11.049  0.3995 -0.3349 -0.4595
  119OSM   H13B12510   4.193   2.353  11.198  0.1147  1.6541 -0.4216
  119OSM   H13C12511   4.149   2.448  11.051  2.1164 -1.4704 -2.1561
  119OSM    C1212512   3.899   2.320  11.017 -0.3920  0.4119 -0.2595
  119OSM   H12A12513   3.798   2.306  11.052  0.2574 -1.9796  0.8830
  119OSM   H12B12514   3.929   2.220  10.988 -2.9989 -0.2716 -0.8615
  119OSM    C1112515   3.913   2.414  10.893  1.0044  0.3536 -0.4378
  119OSM   H11A12516   3.839   2.377  10.818  0.9008 -0.6850  0.1581
  119OSM   H11B12517   4.012   2.399  10.845  1.5625 -1.2600  1.1290
  119OSM      P12518   3.751   2.601  10.915  0.5819 -0.0511 -0.0616
  119OSM    O1312519   3.669   2.535  11.020  0.2989  0.1417 -0.6882
  119OSM    O1412520   3.758   2.749  10.919 -0.2536 -0.1701 -0.4618
  119OSM    O1112521   3.709   2.560  10.766  0.3839  0.2282 -0.1584
  119OSM    O1212522   3.896   2.551  10.922 -0.1871  0.2340  0.0670
  119OSM    C1S12523   3.779   2.633  10.665  0.3304  0.6542 -0.3961
  119OSM    H1S12524   3.889   2.639  10.685  0.1401  1.3886  0.4976
  119OSM    H1T12525   3.737   2.736  10.674 -2.1607 -0.4856  2.4391
  119OSM     NF12526   3.811   2.663  10.420 -0.8538  0.1191  0.2038
  119OSM    HNF12527   3.749   2.710  10.358 -1.5667 -1.2519 -0.1754
  119OSM    C2S12528   3.757   2.577  10.521 -0.2201  0.1883 -0.0465
  119OSM    H2S12529   3.814   2.482  10.519  0.8762  0.8089  0.6492
  119OSM    C3S12530   3.605   2.543  10.490 -0.1278 -0.3815  0.2266
  119OSM    H3S12531   3.546   2.632  10.461  3.5346  2.2289  0.1317
  119OSM     O312532   3.541   2.479  10.599 -0.0965  0.2548 -0.4576
  119OSM    HO312533   3.601   2.482  10.674  1.8544 -1.4279 -1.8435
  119OSM    C4S12534   3.594   2.456  10.372 -0.4329 -0.2307  0.1883
  119OSM    H4S12535   3.567   2.519  10.287  1.3270 -0.9541 -0.9777
  119OSM    C5S12536   3.612   2.327  10.353  0.2730 -0.2542  0.5279
  119OSM    H5S12537   3.633   2.266  10.443  0.7033  0.5772  1.0014
  119OSM    C6S12538   3.606   2.247  10.228  0.6782  0.1910 -0.6369
  119OSM    H6S12539   3.535   2.162  10.241  0.2637  0.5576 -0.4425
  119OSM    H6T12540   3.703   2.200  10.203  0.9109  0.7486 -0.7883
  119OSM    C7S12541   3.558   2.319  10.104 -0.8648  1.1914  0.5521
  119OSM    H7S12542   3.620   2.408  10.080 -1.4912  1.9910  1.7583
  119OSM    H7T12543   3.453   2.350  10.118 -1.2479  0.3230 -0.3242
  119OSM    C8S12544   3.549   2.227   9.982  0.5301  0.9024 -1.1524
  119OSM    H8S12545   3.466   2.157  10.007 -1.0219  2.8523 -0.4856
  119OSM    H8T12546   3.649   2.186   9.957  0.3301  0.9330 -2.0288
  119OSM    C9S12547   3.499   2.305   9.859 -0.1352  0.5368 -0.1176
  119OSM    H9S12548   3.587   2.368   9.831 -0.1164 -0.1358 -1.6733
  119OSM    H9T12549   3.415   2.365   9.899  0.9984  1.0027  1.7137
  119OSM   C10S12550   3.441   2.233   9.735  0.0470  1.4922 -0.4385
  119OSM   H10S12551   3.346   2.176   9.748  1.1768 -0.3065  0.3802
  119OSM   H10T12552   3.512   2.152   9.708 -2.8221 -1.7820  0.9553
  119OSM   C11S12553   3.446   2.327   9.618  0.4977  0.0703  0.3085
  119OSM   H11S12554   3.553   2.339   9.590  0.4463  3.2087  1.0926
  119OSM   H11T12555   3.406   2.427   9.646  0.0886 -0.0994  0.3335
  119OSM   C12S12556   3.381   2.271   9.495 -0.0346 -0.1881 -0.1841
  119OSM   H12S12557   3.281   2.242   9.532  0.2302  0.6667  1.3104
  119OSM   H12T12558   3.432   2.180   9.458  0.7419  0.7234 -1.4320
  119OSM   C13S12559   3.376   2.375   9.380 -0.0914  0.2254  0.0441
  119OSM   H13S12560   3.478   2.400   9.345  0.6379  1.6145  2.8852
  119OSM   H13T12561   3.322   2.464   9.418 -0.1032 -0.8541  2.7569
  119OSM   C14S12562   3.285   2.325   9.262 -0.5058 -0.7045 -0.1843
  119OSM   H14S12563   3.181   2.316   9.299 -0.7072  0.5107 -0.4182
  119OSM   H14T12564   3.307   2.217   9.245 -0.7062 -1.1143  1.9716
  119OSM   C15S12565   3.284   2.414   9.143 -0.0723 -0.0436  0.6068
  119OSM   H15S12566   3.387   2.433   9.107  0.1672  1.3670  1.9575
  119OSM   H15T12567   3.242   2.506   9.188 -3.3802 -1.7611  1.4186
  119OSM   C16S12568   3.180   2.353   9.041  0.6082  0.1509 -0.2705
  119OSM   H16S12569   3.083   2.343   9.094  0.7151  1.1286  0.1324
  119OSM   H16T12570   3.208   2.247   9.021 -0.3346  0.0937 -1.3708
  119OSM   C17S12571   3.173   2.436   8.914  0.3616  0.3503  0.7698
  119OSM   H17S12572   3.273   2.431   8.868 -0.1075  1.9570 -0.5213
  119OSM   H17T12573   3.147   2.543   8.930  1.0771  0.2799  2.7876
  119OSM   C18S12574   3.075   2.390   8.804  0.1463  0.7892 -0.0467
  119OSM   H18S12575   2.976   2.404   8.851 -0.2963  0.1980 -0.7738
  119OSM   H18T12576   3.104   2.288   8.769 -0.5400  0.0267  1.4848
  119OSM   H18U12577   3.073   2.452   8.712 -1.7635  0.4299 -0.2743
  119OSM    C1F12578   3.940   2.672  10.400 -0.3876 -0.2486 -0.0296
  119OSM     OF12579   4.021   2.596  10.456  0.5641 -0.2352 -0.7564
  119OSM    C2F12580   3.983   2.777  10.313 -0.5878  0.0943  0.4279
  119OSM    H2F12581   4.059   2.843  10.361  1.0103  0.5855 -2.5299
  119OSM    H2G12582   3.900   2.847  10.291 -1.1454 -0.6868  0.0642
  119OSM    C3F12583   4.030   2.716  10.179 -0.3662  0.0458 -0.4635
  119OSM    H3F12584   3.949   2.646  10.150 -2.2129  1.4340  1.0958
  119OSM    H3G12585   4.134   2.681  10.196 -0.2578  0.0777 -1.0493
  119OSM    C4F12586   4.033   2.828  10.068 -0.5378  0.5322 -0.3147
  119OSM    H4F12587   4.112   2.900  10.099 -0.4177  1.0122 -1.6554
  119OSM    H4G12588   3.935   2.879  10.055 -0.0202  1.3026 -1.4750
  119OSM    C5F12589   4.070   2.769   9.933 -0.6926 -0.5217  0.9651
  119OSM    H5F12590   4.069   2.854   9.861  3.3275 -1.7235 -0.7900
  119OSM    H5G12591   4.000   2.695   9.889  0.1355  0.2059 -1.7712
  119OSM    C6F12592   4.206   2.705   9.919  0.1681 -0.1833  0.1432
  119OSM    H6F12593   4.213   2.627   9.999  2.0930 -0.2462 -0.0367
  119OSM    H6G12594   4.287   2.779   9.937  0.6074  0.4297 -3.6333
  119OSM    C7F12595   4.227   2.639   9.782 -0.5405  0.2574 -0.2644
  119OSM    H7F12596   4.143   2.567   9.772 -1.6683  1.0607  2.5690
  119OSM    H7G12597   4.320   2.577   9.780  1.5104  3.1605 -0.5740
  119OSM    C8F12598   4.251   2.734   9.661 -0.4432  0.1913 -0.0556
  119OSM    H8F12599   4.313   2.678   9.587  2.2979  0.0099  2.2138
  119OSM    H8G12600   4.319   2.818   9.687 -0.3678  0.6210 -1.5565
  119OSM    C9F12601   4.123   2.777   9.594 -0.1350  0.2885 -0.2612
  119OSM    H9F12602   4.052   2.815   9.668  1.5237  0.7949  1.1405
  119OSM   C10F12603   4.094   2.766   9.460 -0.6421  0.6471 -0.4671
  119OSM   H10F12604   3.997   2.803   9.425 -0.4682  0.7416 -0.8484
  119OSM   C11F12605   4.189   2.711   9.356  0.0924 -0.4328  0.1942
  119OSM   H11F12606   4.299   2.715   9.372  0.2719 -2.9282  0.0737
  119OSM   H11G12607   4.180   2.764   9.259 -2.2209 -1.8516 -0.4471
  119OSM   C12F12608   4.160   2.556   9.327  0.0814 -0.1858  0.2852
  119OSM   H12F12609   4.051   2.535   9.336  0.2625 -2.2803 -1.4747
  119OSM   H12G12610   4.215   2.499   9.404  2.0093 -0.0740 -0.9504
  119OSM   C13F12611   4.221   2.506   9.192  0.1675  0.2819 -0.6179
  119OSM   H13F12612   4.214   2.395   9.197 -0.4377  0.3469  3.5102
  119OSM   H13G12613   4.329   2.530   9.199  0.5454 -0.9885 -1.7177
  119OSM   C14F12614   4.164   2.562   9.059  0.4107 -0.0266 -0.6344
  119OSM   H14F12615   4.234   2.538   8.977  0.1867  1.0706 -1.1625
  119OSM   H14G12616   4.160   2.672   9.072 -1.2309 -0.1804  0.3893
  119OSM   C15F12617   4.020   2.508   9.025  0.3396  0.3077  0.2780
  119OSM   H15F12618   3.953   2.522   9.113  2.1760  1.1162  1.6222
  119OSM   H15G12619   4.036   2.399   9.008  2.8814  0.5603  0.6819
  119OSM   C16F12620   3.965   2.569   8.894 -0.8581  0.3635  0.0467
  119OSM   H16F12621   3.975   2.680   8.884  1.4170  0.1676 -0.2789
  119OSM   H16G12622   3.859   2.538   8.907 -1.0890  0.4050 -1.5417
  119OSM   C17F12623   4.034   2.501   8.770 -0.1172  0.1896  0.2851
  119OSM   H17F12624   4.025   2.394   8.800  1.6595 -0.4281 -1.1904
  119OSM   H17G12625   4.140   2.533   8.771 -0.6159  1.9465  2.2425
  119OSM   C18F12626   3.974   2.520   8.628  0.3461 -0.7704  0.0078
  119OSM   H18F12627   4.027   2.472   8.543  1.7394  0.8453 -0.1087
  119OSM   H18G12628   3.975   2.629   8.603  0.7002 -1.1428 -1.7454
  119OSM   H18H12629   3.872   2.476   8.622  0.5022 -1.3536  1.3052
  120OSM      N12630   3.467   5.014  10.679  0.3395 -0.0774 -0.4112
  120OSM    C1512631   3.573   4.920  10.706 -0.1369 -0.6714 -0.4469
  120OSM   H15A12632   3.631   4.915  10.615  0.4994 -0.7476 -0.0444
  120OSM   H15B12633   3.537   4.825  10.742 -2.7094  0.0997 -0.8143
  120OSM   H15C12634   3.637   4.968  10.779  0.7312 -1.0540 -0.9414
  120OSM    C1412635   3.369   5.020  10.800  0.1946 -0.2572  0.2764
  120OSM   H14A12636   3.329   4.922  10.823  1.1616 -0.7467 -0.0719
  120OSM   H14B12637   3.285   5.085  10.786  0.1389  0.0076  1.6589
  120OSM   H14C12638   3.419   5.067  10.884  0.7379 -0.5666  0.1352
  120OSM    C1312639   3.519   5.147  10.656 -0.4883 -0.6442  0.9621
  120OSM   H13A12640   3.582   5.185  10.735 -0.5475 -0.1617  0.7797
  120OSM   H13B12641   3.436   5.216  10.651 -0.2870 -0.4915 -1.1208
  120OSM   H13C12642   3.572   5.149  10.562  0.5931  0.5979  1.5683
  120OSM    C1212643   3.379   4.967  10.561  0.1661  0.5865  0.2148
  120OSM   H12A12644   3.315   4.889  10.599  0.3504  0.8509  1.1055
  120OSM   H12B12645   3.443   4.937  10.480 -0.3790  1.9225 -0.7550
  120OSM    C1112646   3.267   5.069  10.506  0.9198 -0.5290 -0.4545
  120OSM   H11A12647   3.222   5.025  10.415 -0.8151 -1.0001  0.5828
  120OSM   H11B12648   3.322   5.161  10.478  1.1907  0.0422  1.7398
  120OSM      P12649   3.040   5.000  10.628  0.1928  0.0567  0.6042
  120OSM    O1312650   3.085   4.859  10.642 -0.1601 -0.1872 -0.2610
  120OSM    O1412651   2.952   5.061  10.730  0.5180 -0.5415 -0.6467
  120OSM    O1112652   2.968   5.003  10.493 -0.5536 -0.9662 -0.1730
  120OSM    O1212653   3.166   5.096  10.605  0.1665  0.0662  0.0677
  120OSM    C1S12654   2.920   5.111  10.422  0.4433 -0.4120  0.4417
  120OSM    H1S12655   2.978   5.204  10.440  0.7647 -0.4622 -0.2697
  120OSM    H1T12656   2.813   5.125  10.449  0.7816  2.3456  0.6468
  120OSM     NF12657   2.904   5.196  10.177 -0.0084 -1.0065 -0.0073
  120OSM    HNF12658   2.818   5.187  10.127  1.6614 -1.3457 -3.0585
  120OSM    C2S12659   2.927   5.085  10.267  0.3744  0.5189 -0.3555
  120OSM    H2S12660   3.027   5.040  10.249  0.0817 -1.0502  1.5580
  120OSM    C3S12661   2.847   4.958  10.237 -0.0255 -0.3555  0.0958
  120OSM    H3S12662   2.742   4.983  10.262  0.5363  0.3119  1.9275
  120OSM     O312663   2.890   4.838  10.312 -0.2072 -0.1548  0.1946
  120OSM    HO312664   2.955   4.877  10.370 -0.6809  1.9778 -0.6166
  120OSM    C4S12665   2.850   4.925  10.086  0.0868 -0.6905 -0.2075
  120OSM    H4S12666   2.769   4.958  10.020 -0.2285  0.1455  0.5663
  120OSM    C5S12667   2.955   4.866  10.035 -0.0737 -0.4645 -0.0791
  120OSM    H5S12668   3.033   4.834  10.107 -0.2048 -1.3274 -0.3076
  120OSM    C6S12669   2.982   4.831   9.894 -0.1144  0.0416  0.3424
  120OSM    H6S12670   2.999   4.722   9.883  0.4200  0.2532 -1.2151
  120OSM    H6T12671   3.077   4.880   9.864  0.2524 -0.8522  0.0307
  120OSM    C7S12672   2.869   4.865   9.792  0.2514 -0.6187 -0.2346
  120OSM    H7S12673   2.845   4.972   9.776  0.5634 -0.1581  2.0566
  120OSM    H7T12674   2.779   4.817   9.836  1.0596 -0.0075  2.2077
  120OSM    C8S12675   2.890   4.789   9.664  0.2297  0.3089  0.2169
  120OSM    H8S12676   2.801   4.730   9.634  3.4730 -3.9866 -2.0320
  120OSM    H8T12677   2.980   4.724   9.669 -0.5199 -0.6934  1.2152
  120OSM    C9S12678   2.924   4.888   9.549  0.1510  0.1457  0.1679
  120OSM    H9S12679   3.033   4.909   9.549  0.2857 -0.4841  1.2032
  120OSM    H9T12680   2.866   4.983   9.553  0.7273  0.5307 -0.4917
  120OSM   C10S12681   2.881   4.815   9.421 -0.2586  0.0315  0.2199
  120OSM   H10S12682   2.775   4.786   9.433 -0.3541 -1.0291 -2.4302
  120OSM   H10T12683   2.937   4.720   9.433 -2.9181 -1.4785  1.4772
  120OSM   C11S12684   2.908   4.901   9.297  0.1676  0.4204  0.6273
  120OSM   H11S12685   3.008   4.949   9.302 -0.8112  3.0141 -1.9056
  120OSM   H11T12686   2.829   4.978   9.305 -0.0717  0.2921 -0.3356
  120OSM   C12S12687   2.896   4.812   9.173 -0.2801  0.4446  0.0296
  120OSM   H12S12688   2.808   4.744   9.169  1.2781 -1.5885 -1.4274
  120OSM   H12T12689   2.980   4.741   9.165 -1.5318 -1.0371 -0.3822
  120OSM   C13S12690   2.897   4.893   9.040  0.1949  0.1291  0.3244
  120OSM   H13S12691   2.984   4.961   9.029  0.1264 -0.1234 -2.5609
  120OSM   H13T12692   2.816   4.970   9.040  1.6420  1.7135  0.9543
  120OSM   C14S12693   2.865   4.818   8.908  0.2538 -0.2982 -0.9665
  120OSM   H14S12694   2.774   4.755   8.907  0.4308 -0.7416  2.0617
  120OSM   H14T12695   2.948   4.744   8.901  1.2016  0.3884  1.8309
  120OSM   C15S12696   2.857   4.916   8.788  0.9437  0.3689 -0.1389
  120OSM   H15S12697   2.938   4.991   8.778  0.0365  1.1434 -2.0987
  120OSM   H15T12698   2.757   4.966   8.795  0.3299 -0.8555  0.1063
  120OSM   C16S12699   2.857   4.827   8.659 -0.0206  0.4083  0.9544
  120OSM   H16S12700   2.943   4.757   8.655  2.7858  3.6154 -1.0975
  120OSM   H16T12701   2.866   4.900   8.575 -1.1312 -0.7561 -0.2141
  120OSM   C17S12702   2.722   4.756   8.615 -0.4247  0.1992 -0.5311
  120OSM   H17S12703   2.680   4.698   8.699 -0.6772  1.1086 -0.0180
  120OSM   H17T12704   2.755   4.688   8.533 -0.0685 -0.4213  0.1196
  120OSM   C18S12705   2.619   4.847   8.547 -0.3377 -0.7965 -0.3535
  120OSM   H18S12706   2.538   4.780   8.511 -0.6983 -0.2233 -0.6172
  120OSM   H18T12707   2.673   4.887   8.458  0.7916  0.7047  0.9551
  120OSM   H18U12708   2.582   4.920   8.622  0.4873 -2.1203  1.4080
  120OSM    C1F12709   2.975   5.307  10.187  0.3562 -0.4627  0.3370
  120OSM     OF12710   3.075   5.312  10.250 -0.6261 -0.2444  0.0738
  120OSM    C2F12711   2.921   5.432  10.119  0.9033  0.4342  0.1041
  120OSM    H2F12712   2.996   5.512  10.102  0.2800  0.7775 -1.1692
  120OSM    H2G12713   2.831   5.474  10.169  0.1157  1.2470 -1.8853
  120OSM    C3F12714   2.859   5.391   9.984 -0.5140 -0.0656  0.4228
  120OSM    H3F12715   2.777   5.317   9.997 -0.4625 -0.1403  0.3239
  120OSM    H3G12716   2.944   5.358   9.921  1.8897  2.6408  2.0152
  120OSM    C4F12717   2.799   5.514   9.902  0.0263 -0.7565 -0.5804
  120OSM    H4F12718   2.743   5.581   9.971  0.3979 -0.4295 -0.5879
  120OSM    H4G12719   2.727   5.469   9.832 -1.0434  0.9371 -0.6342
  120OSM    C5F12720   2.910   5.598   9.832 -0.4311  0.6242 -0.2016
  120OSM    H5F12721   2.979   5.524   9.785 -1.9095 -0.0169 -1.4781
  120OSM    H5G12722   2.961   5.638   9.922 -0.1951 -0.7880  0.3189
  120OSM    C6F12723   2.858   5.697   9.725 -0.0748  0.2888  1.0082
  120OSM    H6F12724   2.803   5.781   9.772 -1.1040  1.2666 -1.7836
  120OSM    H6G12725   2.792   5.641   9.655 -1.0478 -0.0801  2.1701
  120OSM    C7F12726   2.967   5.773   9.643  0.7492 -0.0541 -0.5428
  120OSM    H7F12727   3.045   5.812   9.712 -0.6263  3.3006 -0.6571
  120OSM    H7G12728   2.911   5.856   9.594 -2.1657 -1.4567  0.1932
  120OSM    C8F12729   3.032   5.682   9.542 -0.0317  0.2641  0.1244
  120OSM    H8F12730   3.082   5.593   9.588 -0.2718 -0.5035 -1.0479
  120OSM    H8G12731   3.108   5.745   9.490  1.4124 -1.4404  0.0414
  120OSM    C9F12732   2.935   5.622   9.434 -0.3648  0.2357 -0.6978
  120OSM    H9F12733   2.846   5.569   9.472 -0.2534 -0.1469 -0.9691
  120OSM   C10F12734   2.951   5.622   9.305  0.7688  0.8025  0.2883
  120OSM   H10F12735   2.875   5.569   9.246  2.7548  0.1614 -1.8309
  120OSM   C11F12736   3.075   5.671   9.240 -0.4214 -0.0143  0.5426
  120OSM   H11F12737   3.108   5.607   9.155 -0.0013  0.0296  0.6747
  120OSM   H11G12738   3.157   5.675   9.314 -1.2229 -1.3017  1.5455
  120OSM   C12F12739   3.052   5.811   9.175 -0.0362 -0.4241 -0.0229
  120OSM   H12F12740   3.033   5.876   9.263 -4.0843  1.0616 -1.7212
  120OSM   H12G12741   2.951   5.818   9.129 -0.4344 -0.0640  0.8861
  120OSM   C13F12742   3.147   5.865   9.071 -0.2799 -0.0160  0.4194
  120OSM   H13F12743   3.245   5.902   9.108 -0.8635 -0.1306  2.1806
  120OSM   H13G12744   3.103   5.962   9.037 -0.5015  0.5934  2.3114
  120OSM   C14F12745   3.164   5.772   8.954  0.3275  0.3563 -0.4587
  120OSM   H14F12746   3.075   5.716   8.918  1.1430 -0.4510 -1.2578
  120OSM   H14G12747   3.236   5.692   8.979 -2.1599 -1.8913 -0.0956
  120OSM   C15F12748   3.220   5.852   8.834 -0.5226 -0.2093  0.3235
  120OSM   H15F12749   3.327   5.874   8.855 -0.3532 -0.9089  0.2159
  120OSM   H15G12750   3.174   5.952   8.823 -2.6712 -0.8202  2.7187
  120OSM   C16F12751   3.209   5.794   8.694 -0.3335  0.3642  0.5664
  120OSM   H16F12752   3.105   5.768   8.665  0.6756 -2.2484 -1.0985
  120OSM   H16G12753   3.264   5.699   8.678 -0.7848 -0.0196  1.2061
  120OSM   C17F12754   3.244   5.880   8.567  0.1122  0.5335  0.4883
  120OSM   H17F12755   3.354   5.890   8.555 -0.1499  2.1955 -0.9380
  120OSM   H17G12756   3.214   5.987   8.572 -1.2815  0.1518  0.6213
  120OSM   C18F12757   3.177   5.814   8.443 -0.1614  0.1806 -0.2525
  120OSM   H18F12758   3.214   5.711   8.425  1.1202  0.9379 -2.2391
  120OSM   H18G12759   3.227   5.864   8.358  0.5780  1.1676  0.7182
  120OSM   H18H12760   3.066   5.818   8.440 -0.1904 -1.1389 -1.2155
  121OSM      N12761   2.910   1.158  10.821 -0.6629 -0.3605  0.0603
  121OSM    C1512762   2.800   1.143  10.726 -0.2667  0.2735  0.7033
  121OSM   H15A12763   2.713   1.097  10.769 -1.1210  0.4414 -0.7694
  121OSM   H15B12764   2.831   1.091  10.637 -2.6699  0.4816 -0.3413
  121OSM   H15C12765   2.769   1.237  10.682 -1.7437 -1.0598 -1.2622
  121OSM    C1412766   2.864   1.217  10.946 -0.1615 -0.2356 -0.2722
  121OSM   H14A12767   2.823   1.315  10.934  1.1440  0.0887 -2.6826
  121OSM   H14B12768   2.948   1.214  11.014 -0.7433 -0.1958  0.4574
  121OSM   H14C12769   2.788   1.155  10.992 -1.9275  1.3583 -0.9516
  121OSM    C1312770   2.963   1.015  10.846  0.0639  0.1440  0.2284
  121OSM   H13A12771   2.883   0.947  10.870 -0.0720  1.0508  2.5691
  121OSM   H13B12772   3.026   1.007  10.933 -1.6620 -2.1886  1.3578
  121OSM   H13C12773   3.009   0.965  10.762  0.7853 -0.4081  0.9352
  121OSM    C1212774   3.032   1.231  10.762  0.3280  0.5410 -0.4163
  121OSM   H12A12775   2.998   1.332  10.743 -1.9433 -0.1086 -0.1636
  121OSM   H12B12776   3.054   1.179  10.671  1.3466 -2.2891  1.3069
  121OSM    C1112777   3.159   1.251  10.849 -0.1867  0.6881  0.0265
  121OSM   H11A12778   3.242   1.286  10.783 -0.6598 -1.4814 -1.8382
  121OSM   H11B12779   3.187   1.148  10.878  0.8232  1.5707  2.4326
  121OSM      P12780   3.124   1.483  10.955 -0.5996  0.2146  0.3417
  121OSM    O1312781   2.992   1.517  11.014  0.1845 -0.3478 -0.2612
  121OSM    O1412782   3.243   1.553  11.020  0.2693  0.2183  0.7086
  121OSM    O1112783   3.113   1.515  10.799 -0.2099 -0.1305  0.4282
  121OSM    O1212784   3.148   1.329  10.968  0.5583 -0.0208 -0.0286
  121OSM    C1S12785   3.163   1.640  10.750  0.3447  0.0301 -0.6359
  121OSM    H1S12786   3.272   1.647  10.767  0.6149  0.8777 -2.4910
  121OSM    H1T12787   3.113   1.721  10.808  1.1784 -0.8408  1.3939
  121OSM     NF12788   3.180   1.777  10.545  0.1309 -0.2027  0.3198
  121OSM    HNF12789   3.121   1.851  10.512  0.7086  0.2087  0.1955
  121OSM    C2S12790   3.129   1.656  10.601 -0.0249  0.2470  0.1229
  121OSM    H2S12791   3.183   1.573  10.551  1.6746  1.0217  0.5752
  121OSM    C3S12792   2.977   1.648  10.574  0.3496  0.0443 -0.1827
  121OSM    H3S12793   2.924   1.740  10.606 -2.5310 -1.5621  0.0849
  121OSM     O312794   2.902   1.533  10.639 -0.4300  0.2294  0.2671
  121OSM    HO312795   2.951   1.523  10.721  1.2307  0.8626 -0.6052
  121OSM    C4S12796   2.958   1.626  10.428 -0.3780 -0.2928 -0.2121
  121OSM    H4S12797   2.999   1.530  10.392 -1.0815 -0.9465  0.6749
  121OSM    C5S12798   2.902   1.718  10.346 -0.5714  0.0219  0.4339
  121OSM    H5S12799   2.867   1.810  10.393  1.4171 -0.3839  2.8994
  121OSM    C6S12800   2.863   1.710  10.200  0.1913  0.0136 -0.4500
  121OSM    H6S12801   2.902   1.804  10.155  4.4462 -1.5889 -0.6427
  121OSM    H6T12802   2.755   1.696  10.182  0.4785  1.1285 -3.8206
  121OSM    C7S12803   2.920   1.594  10.116  0.1009 -0.8413  0.0816
  121OSM    H7S12804   2.900   1.494  10.160 -0.1392 -0.0835  1.7479
  121OSM    H7T12805   3.031   1.603  10.108  0.2620 -0.2370  2.2635
  121OSM    C8S12806   2.851   1.589   9.981 -0.2960 -0.7502 -0.4434
  121OSM    H8S12807   2.860   1.691   9.936 -1.0261  1.0398  3.0706
  121OSM    H8T12808   2.743   1.566   9.996 -0.6644 -0.0603 -1.8900
  121OSM    C9S12809   2.939   1.499   9.895  0.1693 -0.2500 -0.5315
  121OSM    H9S12810   2.933   1.394   9.932  0.4897 -0.0302  0.1494
  121OSM    H9T12811   3.047   1.526   9.903  0.8444 -1.9378 -2.6927
  121OSM   C10S12812   2.901   1.503   9.750  0.5462  0.1678  0.0961
  121OSM   H10S12813   2.875   1.611   9.739 -0.6134  0.0878  1.7655
  121OSM   H10T12814   2.807   1.449   9.725  0.3787 -0.9902  2.9016
  121OSM   C11S12815   3.025   1.464   9.657 -0.0952 -0.0708  0.4430
  121OSM   H11S12816   3.068   1.363   9.674  0.1483  0.1392  1.1138
  121OSM   H11T12817   3.100   1.535   9.697 -1.8337  1.5438  0.9792
  121OSM   C12S12818   3.004   1.481   9.513 -0.1388 -0.4576  0.2576
  121OSM   H12S12819   2.964   1.582   9.492  1.4429 -0.0242 -0.8751
  121OSM   H12T12820   2.922   1.411   9.485  0.4436 -0.7733 -0.7174
  121OSM   C13S12821   3.123   1.446   9.424  0.2485  0.1163  0.3187
  121OSM   H13S12822   3.168   1.359   9.478 -1.8618 -1.0841  0.2855
  121OSM   H13T12823   3.193   1.532   9.426  1.3471 -0.7041 -1.1211
  121OSM   C14S12824   3.088   1.408   9.280 -0.0926  0.4932  0.1230
  121OSM   H14S12825   3.014   1.327   9.299  1.7131 -1.3855 -0.5727
  121OSM   H14T12826   3.188   1.374   9.246  0.7352  2.9292 -0.1109
  121OSM   C15S12827   3.025   1.514   9.192 -0.4169  0.1487 -0.0063
  121OSM   H15S12828   3.084   1.606   9.212  0.5981 -0.7407  1.2213
  121OSM   H15T12829   2.919   1.519   9.224 -0.8330  0.5975 -1.3703
  121OSM   C16S12830   3.019   1.472   9.047  0.3132  0.4817  0.6484
  121OSM   H16S12831   2.972   1.550   8.983 -0.2561  0.4765  1.0488
  121OSM   H16T12832   2.950   1.387   9.029  1.1236  0.3307 -2.2099
  121OSM   C17S12833   3.152   1.435   8.984  0.1147 -0.3657 -0.1028
  121OSM   H17S12834   3.202   1.362   9.051  1.2662 -0.4778 -1.0599
  121OSM   H17T12835   3.220   1.522   8.973 -0.7280  0.0748 -2.3383
  121OSM   C18S12836   3.125   1.370   8.846 -0.1914 -0.8056 -0.4354
  121OSM   H18S12837   3.217   1.332   8.798 -0.7880 -1.3659 -1.1775
  121OSM   H18T12838   3.071   1.435   8.774  0.7437  0.8454  0.3180
  121OSM   H18U12839   3.073   1.272   8.858 -1.4520 -0.5199 -2.9721
  121OSM    C1F12840   3.315   1.804  10.550  0.3071 -0.5508  0.4350
  121OSM     OF12841   3.394   1.720  10.599  0.8891  0.5900  0.2563
  121OSM    C2F12842   3.363   1.939  10.502  0.3172 -0.1254 -0.4058
  121OSM    H2F12843   3.469   1.921  10.477 -0.0411 -2.5427 -0.4410
  121OSM    H2G12844   3.347   2.007  10.588  0.8076  0.0075 -0.4183
  121OSM    C3F12845   3.268   2.000  10.395  0.1268 -0.4370 -0.3423
  121OSM    H3F12846   3.304   2.103  10.375 -0.6050 -0.3497 -1.3075
  121OSM    H3G12847   3.167   2.015  10.437  0.7356 -0.9785  1.3944
  121OSM    C4F12848   3.269   1.921  10.262 -0.1067  0.3077 -0.9840
  121OSM    H4F12849   3.233   1.818  10.281 -0.9771  1.1811  2.8527
  121OSM    H4G12850   3.376   1.903  10.236  0.5134  1.9869  0.1840
  121OSM    C5F12851   3.192   1.982  10.144 -0.2089 -0.4947  0.4431
  121OSM    H5F12852   3.225   2.087  10.134 -1.3942 -0.2568 -1.4582
  121OSM    H5G12853   3.083   1.991  10.166 -0.1721 -0.6010  0.6783
  121OSM    C6F12854   3.211   1.898  10.017 -0.2441  0.1287  0.4025
  121OSM    H6F12855   3.177   1.793  10.028  1.5547 -0.5617 -0.2982
  121OSM    H6G12856   3.321   1.898  10.000  0.0744 -0.1199  2.2404
  121OSM    C7F12857   3.133   1.955   9.901  0.7625 -0.5193 -0.1006
  121OSM    H7F12858   3.152   2.064   9.891 -0.3139 -0.0673  2.0190
  121OSM    H7G12859   3.031   1.953   9.945  0.7230 -0.8302 -0.2050
  121OSM    C8F12860   3.151   1.880   9.767  0.1556  0.0273 -0.3304
  121OSM    H8F12861   3.071   1.923   9.703  1.0697  1.1193 -0.7784
  121OSM    H8G12862   3.134   1.772   9.784 -2.1257  0.6992  2.2793
  121OSM    C9F12863   3.289   1.904   9.703  0.3428 -0.1662 -0.5344
  121OSM    H9F12864   3.368   1.895   9.778  1.4543 -1.3140 -1.8002
  121OSM   C10F12865   3.320   1.929   9.573  0.6103  0.0080 -0.0963
  121OSM   H10F12866   3.424   1.950   9.548  0.7978  0.1085  0.7373
  121OSM   C11F12867   3.224   1.941   9.454  0.3172  1.3231 -0.5747
  121OSM   H11F12868   3.217   2.044   9.413  1.0338  1.5768 -0.0926
  121OSM   H11G12869   3.120   1.910   9.478  0.5119  0.4296 -0.8787
  121OSM   C12F12870   3.261   1.841   9.338  0.1898 -0.0192  0.1921
  121OSM   H12F12871   3.252   1.733   9.363  1.3421  0.1810  1.5757
  121OSM   H12G12872   3.362   1.854   9.295  0.2682 -0.9139  0.0785
  121OSM   C13F12873   3.169   1.875   9.214 -1.2962  0.0572 -0.4126
  121OSM   H13F12874   3.136   1.981   9.214  0.9552  0.7963 -0.4695
  121OSM   H13G12875   3.071   1.824   9.204 -0.5379 -1.7466  0.8042
  121OSM   C14F12876   3.248   1.861   9.075 -0.5504 -0.1479  0.1120
  121OSM   H14F12877   3.314   1.773   9.057  0.6678  0.7270  0.1421
  121OSM   H14G12878   3.316   1.949   9.073 -1.6249  0.7556  1.4307
  121OSM   C15F12879   3.151   1.865   8.958 -0.6383 -0.5160 -0.0241
  121OSM   H15F12880   3.064   1.933   8.975 -1.7852 -1.5305 -1.5581
  121OSM   H15G12881   3.102   1.765   8.952 -2.3102  0.1989  0.8158
  121OSM   C16F12882   3.227   1.899   8.828 -0.2925 -0.4053 -0.0575
  121OSM   H16F12883   3.315   1.831   8.829  0.4620  0.5387 -0.4497
  121OSM   H16G12884   3.260   2.005   8.832  2.7931 -1.2833  0.3201
  121OSM   C17F12885   3.145   1.885   8.699  0.0621 -0.2736 -0.2132
  121OSM   H17F12886   3.217   1.910   8.619  0.3267 -0.3847 -0.0129
  121OSM   H17G12887   3.057   1.952   8.690  0.1078 -0.1403  0.3007
  121OSM   C18F12888   3.099   1.742   8.676 -0.5527  0.6656  0.0275
  121OSM   H18F12889   3.066   1.714   8.574  1.4136  0.6249 -0.6408
  121OSM   H18G12890   3.022   1.708   8.749 -0.5149  1.1195  0.2884
  121OSM   H18H12891   3.188   1.677   8.686  0.0833  1.3521 -0.9721
  122OSM      N12892   1.465   6.637  11.176  0.0906  0.0689  0.2531
  122OSM    C1512893   1.351   6.736  11.183 -0.3136  0.2899  0.2728
  122OSM   H15A12894   1.311   6.753  11.085  0.3075 -0.1180 -0.0624
  122OSM   H15B12895   1.393   6.827  11.222  0.8492  1.0535 -2.5064
  122OSM   H15C12896   1.267   6.706  11.244  0.7159  0.3107  1.7666
  122OSM    C1412897   1.515   6.626  11.317 -0.0017  0.0783  0.1199
  122OSM   H14A12898   1.548   6.525  11.332  2.4266  0.3718 -2.3889
  122OSM   H14B12899   1.433   6.641  11.386  0.2680  0.5426  0.3470
  122OSM   H14C12900   1.591   6.696  11.347 -1.5623  0.7613  2.8509
  122OSM    C1312901   1.413   6.500  11.143 -0.1186  0.4459 -0.0087
  122OSM   H13A12902   1.369   6.498  11.044 -0.5699  0.5396  0.1848
  122OSM   H13B12903   1.342   6.473  11.219 -0.2944  2.6360  0.6706
  122OSM   H13C12904   1.497   6.432  11.146  0.6360  1.4159  2.2796
  122OSM    C1212905   1.574   6.680  11.088 -0.4657  0.0399  0.1700
  122OSM   H12A12906   1.664   6.622  11.101 -0.0911  0.9961  2.1673
  122OSM   H12B12907   1.606   6.778  11.116  1.1720 -0.3313 -0.2923
  122OSM    C1112908   1.542   6.680  10.933 -0.5027  0.5384 -0.3248
  122OSM   H11A12909   1.506   6.582  10.896  2.6108 -0.4260 -1.1215
  122OSM   H11B12910   1.636   6.688  10.874 -0.7423  0.9926 -0.6608
  122OSM      P12911   1.456   6.924  10.881  0.0487  0.2613 -0.1848
  122OSM    O1312912   1.318   6.983  10.883  0.1741 -0.0041  0.1206
  122OSM    O1412913   1.560   6.966  10.985 -0.0453 -0.0098  0.0119
  122OSM    O1112914   1.517   6.947  10.736  0.6281 -0.4084 -0.1782
  122OSM    O1212915   1.441   6.768  10.896 -0.1275 -1.0655 -0.0941
  122OSM    C1S12916   1.482   6.886  10.611  0.1833 -0.2490 -0.2975
  122OSM    H1S12917   1.373   6.894  10.591  0.4093  1.7474 -0.9582
  122OSM    H1T12918   1.514   6.781  10.626 -2.2889 -1.0036  0.0168
  122OSM     NF12919   1.518   6.892  10.377 -0.2873  0.1665 -0.3466
  122OSM    HNF12920   1.553   6.802  10.355 -0.1464 -0.0376  0.6684
  122OSM    C2S12921   1.565   6.959  10.499  0.2931  0.1099  1.3404
  122OSM    H2S12922   1.540   7.067  10.489  1.4300  0.4555  1.9727
  122OSM    C3S12923   1.720   6.944  10.524 -0.1318 -0.1705 -0.4797
  122OSM    H3S12924   1.727   6.834  10.512 -2.8029 -0.3449 -1.0398
  122OSM     O312925   1.759   6.978  10.652 -0.5304  0.0290 -0.4912
  122OSM    HO312926   1.674   6.969  10.697  0.1749 -0.1853  0.8513
  122OSM    C4S12927   1.806   7.002  10.422  0.2139 -0.1344  0.7922
  122OSM    H4S12928   1.807   6.929  10.340 -2.0039  1.1539 -0.4939
  122OSM    C5S12929   1.856   7.122  10.416  0.9464 -0.6157  0.7189
  122OSM    H5S12930   1.839   7.190  10.501 -0.4796 -0.2316  0.1522
  122OSM    C6S12931   1.934   7.174  10.304  0.6384  0.8536 -0.2156
  122OSM    H6S12932   2.000   7.252  10.348 -0.1777  1.6273 -0.3216
  122OSM    H6T12933   1.878   7.222  10.220 -0.3971  0.0427  0.0024
  122OSM    C7S12934   2.018   7.055  10.236 -0.0086  0.3298 -0.2532
  122OSM    H7S12935   1.950   7.004  10.164 -0.1852  0.6222 -0.2963
  122OSM    H7T12936   2.053   6.990  10.318 -0.6663  0.8741  0.4703
  122OSM    C8S12937   2.132   7.119  10.156  0.3804 -0.7099  0.0541
  122OSM    H8S12938   2.201   7.170  10.227 -2.4398  3.9167 -0.0749
  122OSM    H8T12939   2.090   7.195  10.087 -0.0095 -2.1149 -1.3026
  122OSM    C9S12940   2.202   7.021  10.062 -0.4065 -0.7525 -0.6742
  122OSM    H9S12941   2.131   6.994   9.981 -1.2579  1.8592 -0.8848
  122OSM    H9T12942   2.237   6.939  10.127 -0.5545  0.0585  0.4476
  122OSM   C10S12943   2.321   7.085   9.994 -0.2512  0.2758 -0.3191
  122OSM   H10S12944   2.403   7.119  10.060  0.2990 -1.9964  0.2484
  122OSM   H10T12945   2.287   7.179   9.947  0.4865  0.7761  0.1440
  122OSM   C11S12946   2.383   7.001   9.872  0.0841  0.0204  0.1169
  122OSM   H11S12947   2.438   6.912   9.909  0.4541 -0.0937 -0.6783
  122OSM   H11T12948   2.466   7.066   9.836 -0.1271 -0.6492 -1.6947
  122OSM   C12S12949   2.283   6.953   9.762  0.5419  0.1871 -0.4034
  122OSM   H12S12950   2.238   7.039   9.709 -1.7602  0.0713  1.2244
  122OSM   H12T12951   2.209   6.884   9.808 -0.0208 -0.1397 -1.7681
  122OSM   C13S12952   2.344   6.857   9.659 -0.3665  0.1178  0.5906
  122OSM   H13S12953   2.378   6.762   9.705 -0.1900 -0.0191  0.1770
  122OSM   H13T12954   2.431   6.911   9.615 -2.7403  3.4605 -0.4269
  122OSM   C14S12955   2.246   6.827   9.548 -0.0817  0.0349  0.7611
  122OSM   H14S12956   2.214   6.924   9.505 -0.9223 -0.3612  0.4787
  122OSM   H14T12957   2.152   6.795   9.598  0.4725 -1.0033  1.1755
  122OSM   C15S12958   2.299   6.733   9.444  0.1500 -0.1837 -0.7140
  122OSM   H15S12959   2.211   6.706   9.383  0.3485 -1.0479 -0.6349
  122OSM   H15T12960   2.336   6.641   9.494  0.4312  0.8016  0.9689
  122OSM   C16S12961   2.400   6.792   9.338  0.4035  0.1133 -0.1398
  122OSM   H16S12962   2.501   6.807   9.383 -0.2442  0.4624  1.2201
  122OSM   H16T12963   2.371   6.894   9.305 -0.5566 -0.1554 -0.1625
  122OSM   C17S12964   2.410   6.696   9.216  0.0132 -0.3615 -0.4475
  122OSM   H17S12965   2.459   6.746   9.130 -0.0523 -0.4455 -0.5343
  122OSM   H17T12966   2.307   6.666   9.187  0.1366 -1.8770  0.5650
  122OSM   C18S12967   2.480   6.565   9.235 -0.3040 -0.0796  0.2310
  122OSM   H18S12968   2.506   6.515   9.139 -0.4382  1.1086 -0.4337
  122OSM   H18T12969   2.416   6.483   9.275  0.9326 -0.8562  0.7067
  122OSM   H18U12970   2.565   6.565   9.307 -0.2020  0.2986  0.1106
  122OSM    C1F12971   1.420   6.946  10.306 -0.2672  0.1863 -0.8319
  122OSM     OF12972   1.342   7.034  10.349 -0.4682  0.0636 -0.2977
  122OSM    C2F12973   1.402   6.895  10.166 -0.7393 -0.9302 -0.0264
  122OSM    H2F12974   1.489   6.919  10.101 -1.0366 -2.1195 -0.9152
  122OSM    H2G12975   1.320   6.958  10.126 -0.7436  0.2474  1.7567
  122OSM    C3F12976   1.373   6.740  10.146  0.5121 -1.1006  0.7028
  122OSM    H3F12977   1.269   6.710  10.171  0.0267 -1.7663 -1.8833
  122OSM    H3G12978   1.433   6.678  10.216  0.2388  0.4557  2.4068
  122OSM    C4F12979   1.399   6.706   9.998 -0.3737 -0.5811  0.1386
  122OSM    H4F12980   1.488   6.642   9.983 -0.5977 -0.9288  0.2895
  122OSM    H4G12981   1.430   6.802   9.951 -0.9066 -0.2489  0.4426
  122OSM    C5F12982   1.280   6.646   9.923  0.1419 -0.1273  0.0880
  122OSM    H5F12983   1.193   6.715   9.929  0.1666 -0.2078  1.9183
  122OSM    H5G12984   1.252   6.557   9.984  1.3811 -1.2614 -0.9589
  122OSM    C6F12985   1.291   6.591   9.779 -0.4692 -0.8892  0.3360
  122OSM    H6F12986   1.184   6.568   9.762 -0.5363 -0.4063  0.0949
  122OSM    H6G12987   1.348   6.496   9.773 -0.3830 -0.7903 -0.7398
  122OSM    C7F12988   1.338   6.697   9.680 -0.6907  0.3569 -0.0423
  122OSM    H7F12989   1.443   6.709   9.712 -0.1821 -2.0914 -0.5488
  122OSM    H7G12990   1.288   6.796   9.691  1.1041  1.7696 -3.2631
  122OSM    C8F12991   1.324   6.643   9.536  0.2427  0.3692  0.1512
  122OSM    H8F12992   1.389   6.554   9.518  0.6980  0.8901 -0.8835
  122OSM    H8G12993   1.363   6.725   9.472 -0.2980 -0.2965 -1.0629
  122OSM    C9F12994   1.183   6.606   9.496  0.5741 -1.1966  0.3574
  122OSM    H9F12995   1.104   6.615   9.572  2.1704  0.5881  1.9190
  122OSM   C10F12996   1.139   6.569   9.374  0.4131  0.8053  1.0383
  122OSM   H10F12997   1.034   6.544   9.356  1.1005 -0.1420 -2.3650
  122OSM   C11F12998   1.207   6.570   9.241  0.4690  0.3141 -0.0344
  122OSM   H11F12999   1.302   6.625   9.256  0.1950  1.0447 -0.8969
  122OSM   H11G13000   1.143   6.627   9.171  2.1525  2.1921 -0.1422
  122OSM   C12F13001   1.241   6.430   9.189  0.5249 -0.5727  0.3369
  122OSM   H12F13002   1.323   6.382   9.246  1.0277 -2.4564 -1.8408
  122OSM   H12G13003   1.264   6.442   9.081 -1.8422 -0.2739 -0.1888
  122OSM   C13F13004   1.124   6.323   9.190  0.4502 -0.9159  0.1981
  122OSM   H13F13005   1.035   6.360   9.135  0.4470  3.0030  2.4885
  122OSM   H13G13006   1.089   6.311   9.294 -0.9132 -0.3453 -0.1680
  122OSM   C14F13007   1.160   6.180   9.141  0.2737 -0.3761  0.1207
  122OSM   H14F13008   1.064   6.125   9.156 -0.3484  0.1088 -1.7354
  122OSM   H14G13009   1.238   6.140   9.208  0.7853 -0.2634 -0.3983
  122OSM   C15F13010   1.213   6.171   8.997 -0.0292 -0.0996  0.3630
  122OSM   H15F13011   1.236   6.068   8.963  0.9885  0.6940 -1.4755
  122OSM   H15G13012   1.314   6.216   8.990 -0.7701  1.3457 -2.7351
  122OSM   C16F13013   1.133   6.253   8.892 -0.5459 -0.3054 -0.4681
  122OSM   H16F13014   1.146   6.355   8.934 -0.3537 -0.4382 -0.1990
  122OSM   H16G13015   1.025   6.228   8.907 -0.5016 -0.5959 -0.6155
  122OSM   C17F13016   1.184   6.225   8.749 -0.3109  0.3440 -0.2575
  122OSM   H17F13017   1.167   6.117   8.730  0.5843  0.3603 -1.2459
  122OSM   H17G13018   1.295   6.238   8.755 -0.4099  0.8056  1.0148
  122OSM   C18F13019   1.118   6.305   8.640  0.1451 -0.3438  0.4153
  122OSM   H18F13020   1.170   6.403   8.630 -0.9828  0.2780  0.4501
  122OSM   H18G13021   1.013   6.329   8.666  0.3164 -0.8768  1.6721
  122OSM   H18H13022   1.122   6.257   8.540 -1.2058 -0.1395  0.2501
  123OSM      N13023   5.826   4.564   5.992  0.2284  0.2666 -0.3521
  123OSM    C1513024   5.857   4.471   6.109  0.3147 -0.3213 -0.1227
  123OSM   H15A13025   5.957   4.431   6.102 -0.0207 -1.5912  1.6268
  123OSM   H15B13026   5.797   4.382   6.098  1.2372 -0.8091 -1.3487
  123OSM   H15C13027   5.832   4.513   6.205 -2.0118 -2.0191  0.1157
  123OSM    C1413028   5.874   4.503   5.871 -0.4331 -0.4588  0.2953
  123OSM   H14A13029   5.981   4.489   5.882 -0.1250 -0.3961 -2.0428
  123OSM   H14B13030   5.859   4.562   5.782  2.4790  1.1973  0.7743
  123OSM   H14C13031   5.819   4.412   5.851 -1.3648  0.3346 -0.8923
  123OSM    C1313032   5.673   4.588   5.988 -0.4565 -0.1422 -0.1863
  123OSM   H13A13033   5.645   4.616   5.888  2.3482 -0.3492 -1.1117
  123OSM   H13B13034   5.621   4.655   6.055 -2.1397  1.1029 -2.5790
  123OSM   H13C13035   5.620   4.499   6.020 -1.4605  1.4150  2.9227
  123OSM    C1213036   5.899   4.691   6.015 -0.2655 -0.3336 -0.0585
  123OSM   H12A13037   5.924   4.743   5.924  1.2418  2.2400  1.6796
  123OSM   H12B13038   5.993   4.666   6.062 -0.7381 -1.3123  0.3890
  123OSM    C1113039   5.827   4.798   6.102 -0.6090 -0.0974  0.0570
  123OSM   H11A13040   5.908   4.866   6.137 -0.0135 -0.3842 -0.7458
  123OSM   H11B13041   5.787   4.738   6.187  2.7053  0.1060  1.9225
  123OSM      P13042   5.620   4.948   6.108  0.2036 -0.1833 -0.2346
  123OSM    O1313043   5.586   5.067   6.024 -0.0659 -0.2752 -0.3431
  123OSM    O1413044   5.502   4.861   6.154  0.0935 -0.0523 -0.0125
  123OSM    O1113045   5.697   4.996   6.239  0.2590  0.7651  0.8311
  123OSM    O1213046   5.727   4.867   6.025 -0.6501  0.2674  0.0134
  123OSM    C1S13047   5.631   5.055   6.349 -0.6301 -0.4074 -0.0671
  123OSM    H1S13048   5.538   5.112   6.326 -0.4010  0.1239  0.3126
  123OSM    H1T13049   5.703   5.133   6.382 -1.1184 -0.0116  0.0794
  123OSM     NF13050   5.511   5.014   6.555 -0.3916  0.1856  0.2348
  123OSM    HNF13051   5.552   5.090   6.604 -2.1460 -0.1665  2.4073
  123OSM    C2S13052   5.607   4.950   6.462 -0.3400 -0.7842 -0.5755
  123OSM    H2S13053   5.558   4.860   6.419  0.9813 -0.7369 -2.2934
  123OSM    C3S13054   5.748   4.915   6.520 -0.6191 -0.8145 -0.1596
  123OSM    H3S13055   5.775   5.009   6.572 -1.6467  0.2623 -1.4949
  123OSM     O313056   5.854   4.898   6.423 -0.2958  0.2375 -0.1718
  123OSM    HO313057   5.814   4.929   6.342 -1.0383 -0.8643 -0.2500
  123OSM    C4S13058   5.742   4.798   6.609 -0.3314 -0.3051  0.3565
  123OSM    H4S13059   5.688   4.716   6.560 -0.4768 -0.8151  1.3463
  123OSM    C5S13060   5.804   4.790   6.727 -0.8482  0.0612  0.3238
  123OSM    H5S13061   5.858   4.876   6.769  2.9496 -1.7058 -0.5768
  123OSM    C6S13062   5.800   4.668   6.811  0.0677  0.4895 -0.7840
  123OSM    H6S13063   5.753   4.585   6.754  2.3333  0.6366 -3.0281
  123OSM    H6T13064   5.732   4.682   6.898  0.6195 -0.6497 -0.1541
  123OSM    C7S13065   5.947   4.616   6.856 -0.1841  0.6740 -0.0573
  123OSM    H7S13066   6.006   4.586   6.767  0.3341  1.0194  0.1666
  123OSM    H7T13067   5.928   4.528   6.922  0.0634  1.0696  0.5548
  123OSM    C8S13068   6.003   4.722   6.954 -0.8029 -0.2906  0.3780
  123OSM    H8S13069   6.031   4.808   6.889  0.6374  0.5162  1.9643
  123OSM    H8T13070   6.083   4.675   7.014 -0.9311  1.9767  2.4873
  123OSM    C9S13071   5.918   4.762   7.074 -0.7113  0.4285  0.0655
  123OSM    H9S13072   5.868   4.671   7.113 -1.8444  0.4861 -1.1705
  123OSM    H9T13073   5.824   4.819   7.056 -2.6341 -2.3584  0.6636
  123OSM   C10S13074   6.001   4.824   7.189 -0.9345  0.1794  0.4924
  123OSM   H10S13075   6.072   4.900   7.152 -0.0065 -1.6570 -1.7893
  123OSM   H10T13076   6.059   4.740   7.232  1.0670 -0.3738 -2.9543
  123OSM   C11S13077   5.924   4.881   7.308  0.0295 -0.0412 -0.0516
  123OSM   H11S13078   5.861   4.801   7.353  0.1634  0.5990  1.3371
  123OSM   H11T13079   5.861   4.960   7.262 -0.5972 -0.8149 -0.5607
  123OSM   C12S13080   6.022   4.935   7.406  0.8943 -0.4257 -0.2241
  123OSM   H12S13081   6.097   4.998   7.352 -0.8613  1.4943 -0.5742
  123OSM   H12T13082   6.073   4.847   7.450 -2.4331 -2.2768  0.2461
  123OSM   C13S13083   5.953   5.009   7.522 -0.0187  0.0344  0.5650
  123OSM   H13S13084   5.889   4.934   7.573  0.7271 -0.1079  1.3073
  123OSM   H13T13085   5.889   5.087   7.477 -1.3296 -1.2986  0.0382
  123OSM   C14S13086   6.036   5.071   7.636 -0.0443  0.2936  0.5915
  123OSM   H14S13087   6.120   5.137   7.605  1.2833 -1.2505  0.7780
  123OSM   H14T13088   6.066   4.979   7.691 -2.9609  0.2733  2.3497
  123OSM   C15S13089   5.942   5.154   7.729  0.2842 -0.5356 -0.2424
  123OSM   H15S13090   5.854   5.095   7.762  0.1540  0.1177  0.6045
  123OSM   H15T13091   5.907   5.240   7.667 -1.9784 -1.4369 -0.3190
  123OSM   C16S13092   6.014   5.209   7.851 -0.0194  0.5136  0.6581
  123OSM   H16S13093   6.083   5.293   7.830  0.6170 -0.0798  0.3530
  123OSM   H16T13094   6.073   5.122   7.886 -0.9560 -0.0010  0.9872
  123OSM   C17S13095   5.926   5.254   7.974 -0.0754  0.8573  0.2871
  123OSM   H17S13096   5.873   5.160   7.999  1.6207 -0.8071 -1.9291
  123OSM   H17T13097   5.860   5.337   7.940 -0.3771 -0.3620 -2.4347
  123OSM   C18S13098   6.011   5.299   8.098 -0.0400  0.3341 -0.2295
  123OSM   H18S13099   6.074   5.381   8.056  0.3425  0.1031 -0.1190
  123OSM   H18T13100   6.072   5.212   8.130  2.7628  2.2306 -0.0152
  123OSM   H18U13101   5.947   5.331   8.183  1.2499 -1.0952  1.3682
  123OSM    C1F13102   5.381   5.011   6.536  0.0013 -0.5604 -0.5237
  123OSM     OF13103   5.332   4.941   6.444 -0.6066 -0.0708  0.5813
  123OSM    C2F13104   5.296   5.105   6.620  0.2800  0.0312  0.0532
  123OSM    H2F13105   5.270   5.192   6.557  0.3042 -0.3622 -0.5110
  123OSM    H2G13106   5.347   5.135   6.714 -0.4082 -0.2674  0.5337
  123OSM    C3F13107   5.164   5.042   6.668 -0.6659 -0.2019  0.6247
  123OSM    H3F13108   5.171   4.938   6.707 -1.7065  0.0909  1.6715
  123OSM    H3G13109   5.103   5.027   6.577 -0.4961  3.5709 -0.2650
  123OSM    C4F13110   5.105   5.117   6.783 -0.0406  0.2768 -0.1692
  123OSM    H4F13111   4.995   5.107   6.792 -0.3539  1.2576 -2.2107
  123OSM    H4G13112   5.111   5.226   6.760 -0.2324  0.5523  1.0235
  123OSM    C5F13113   5.171   5.086   6.912 -0.0364  0.7533 -0.1450
  123OSM    H5F13114   5.282   5.095   6.902  0.1167 -0.6974 -0.0728
  123OSM    H5G13115   5.152   4.979   6.937  3.6067 -0.1802 -0.6430
  123OSM    C6F13116   5.126   5.171   7.032  0.4914  0.3416 -0.3877
  123OSM    H6F13117   5.015   5.162   7.033  0.5950 -1.7392  1.7756
  123OSM    H6G13118   5.160   5.274   7.008  4.5966 -1.2580 -2.2811
  123OSM    C7F13119   5.198   5.133   7.162  0.2200 -0.2001  0.1791
  123OSM    H7F13120   5.308   5.144   7.157  0.3652 -1.4282  0.4332
  123OSM    H7G13121   5.167   5.029   7.184 -2.5368  0.3343 -0.7587
  123OSM    C8F13122   5.146   5.217   7.283 -0.5053  0.4347  0.0808
  123OSM    H8F13123   5.139   5.323   7.249  0.1720 -0.0358 -1.5741
  123OSM    H8G13124   5.218   5.215   7.368 -2.2194 -1.8347  1.6001
  123OSM    C9F13125   5.015   5.166   7.334  0.7815 -0.3529  0.6698
  123OSM    H9F13126   4.940   5.174   7.253  1.9056  1.8323 -0.2264
  123OSM   C10F13127   5.000   5.105   7.453  0.7210  0.4501  0.4732
  123OSM   H10F13128   4.902   5.064   7.483 -0.5037  2.2447 -0.8541
  123OSM   C11F13129   5.110   5.087   7.555 -0.4686 -0.2566  0.0916
  123OSM   H11F13130   5.162   5.184   7.567  0.6016 -0.9079  0.8162
  123OSM   H11G13131   5.183   5.014   7.516  2.4516  2.7609 -0.5297
  123OSM   C12F13132   5.070   5.059   7.703 -0.8366  0.1839  0.1930
  123OSM   H12F13133   5.014   4.963   7.710 -1.1096  0.4805  2.7056
  123OSM   H12G13134   4.994   5.137   7.723 -0.7598  0.2339  0.2871
  123OSM   C13F13135   5.194   5.078   7.794  0.2582 -0.0467 -0.1718
  123OSM   H13F13136   5.238   5.178   7.772  3.0776 -1.6536 -2.7500
  123OSM   H13G13137   5.270   5.003   7.762 -1.7682 -1.6527 -1.4718
  123OSM   C14F13138   5.183   5.062   7.943  0.1450  0.3965 -0.2723
  123OSM   H14F13139   5.283   5.064   7.991  0.3359 -1.1560 -0.5352
  123OSM   H14G13140   5.118   4.973   7.960 -1.3888  1.1636 -1.8309
  123OSM   C15F13141   5.107   5.175   8.018 -0.0445 -0.3506 -0.1070
  123OSM   H15F13142   5.003   5.184   7.978  0.0258 -1.1847 -0.5122
  123OSM   H15G13143   5.160   5.271   7.997 -0.1269 -0.3979 -0.5556
  123OSM   C16F13144   5.101   5.159   8.177  0.0551 -0.1753 -0.1549
  123OSM   H16F13145   5.070   5.054   8.195  0.4000  0.0071  1.6488
  123OSM   H16G13146   5.023   5.229   8.214 -1.0860 -1.1436 -0.6328
  123OSM   C17F13147   5.240   5.179   8.248  0.2950 -0.5004  1.0360
  123OSM   H17F13148   5.295   5.265   8.203  0.6163  0.0055  2.3481
  123OSM   H17G13149   5.301   5.088   8.227  0.1437 -0.6272  1.1469
  123OSM   C18F13150   5.242   5.207   8.398  0.7790  0.5045  0.3055
  123OSM   H18F13151   5.345   5.198   8.439  0.0480  0.1465  2.1705
  123OSM   H18G13152   5.180   5.128   8.445  0.4539  1.1751  1.0245
  123OSM   H18H13153   5.201   5.306   8.429 -0.4558 -0.3911  1.6696
  124OSM      N13154   2.532   4.365   6.186  0.1716 -0.2637 -0.2936
  124OSM    C1513155   2.430   4.324   6.290 -0.2555  0.3539 -0.3616
  124OSM   H15A13156   2.343   4.290   6.235 -0.6232  1.0492 -0.2188
  124OSM   H15B13157   2.413   4.408   6.355 -0.3219 -0.8152  1.2014
  124OSM   H15C13158   2.456   4.242   6.356 -1.0778  0.8153  0.5712
  124OSM    C1413159   2.663   4.410   6.243  0.1478 -0.2720 -0.5574
  124OSM   H14A13160   2.650   4.486   6.319 -0.2901 -1.4153  0.5459
  124OSM   H14B13161   2.726   4.447   6.163  1.0459  0.0398  0.2745
  124OSM   H14C13162   2.716   4.330   6.292 -0.4337 -0.3250  0.0031
  124OSM    C1313163   2.543   4.235   6.102  1.1329  0.0755 -0.3290
  124OSM   H13A13164   2.616   4.248   6.024  0.5891  0.2567 -0.8086
  124OSM   H13B13165   2.451   4.235   6.046 -0.2926  0.4645  1.8900
  124OSM   H13C13166   2.558   4.148   6.165  1.2536  0.9699  0.9194
  124OSM    C1213167   2.479   4.481   6.109  0.2761 -0.2878  0.2257
  124OSM   H12A13168   2.559   4.499   6.039 -0.2971 -0.1802 -0.4152
  124OSM   H12B13169   2.464   4.568   6.171  1.3094  0.1594 -0.1255
  124OSM    C1113170   2.352   4.463   6.026 -0.7215  0.0863 -0.2799
  124OSM   H11A13171   2.373   4.388   5.947 -2.5680 -1.6383  0.7416
  124OSM   H11B13172   2.324   4.554   5.969 -1.5670  0.7634  1.1537
  124OSM      P13173   2.134   4.504   6.171 -0.2603  0.1652  0.1530
  124OSM    O1313174   2.062   4.588   6.073 -0.4506  0.6429 -0.5424
  124OSM    O1413175   2.045   4.417   6.247 -0.1635  0.1340 -0.1774
  124OSM    O1113176   2.223   4.593   6.269  0.2722 -0.0514  0.0503
  124OSM    O1213177   2.239   4.414   6.095 -0.1628  0.0832  0.1661
  124OSM    C1S13178   2.186   4.606   6.406  0.3400  0.1410 -0.0500
  124OSM    H1S13179   2.217   4.513   6.459 -0.9116 -0.7163 -0.7749
  124OSM    H1T13180   2.076   4.616   6.417  0.3707  0.5016 -0.0470
  124OSM     NF13181   2.212   4.727   6.619  0.6012 -0.0567 -0.1830
  124OSM    HNF13182   2.155   4.808   6.630 -1.1438 -0.8963 -2.2502
  124OSM    C2S13183   2.251   4.726   6.479 -0.5920 -0.5707  0.3912
  124OSM    H2S13184   2.359   4.702   6.476  0.3252  2.6449  2.4554
  124OSM    C3S13185   2.224   4.868   6.408  0.0033 -0.4017 -0.1335
  124OSM    H3S13186   2.115   4.891   6.410  0.2831  1.1695 -1.1625
  124OSM     O313187   2.272   4.871   6.274  0.2124 -0.0913  0.7817
  124OSM    HO313188   2.287   4.779   6.253  0.9589  0.1851  0.0975
  124OSM    C4S13189   2.303   4.975   6.491  0.7328  0.1406 -0.1353
  124OSM    H4S13190   2.411   4.979   6.470  0.6059 -3.0339 -2.1270
  124OSM    C5S13191   2.246   5.063   6.576 -1.0386  0.9399 -1.2758
  124OSM    H5S13192   2.136   5.069   6.575 -1.0529  0.9171 -0.2734
  124OSM    C6S13193   2.314   5.177   6.652 -0.2180 -0.1653 -0.3151
  124OSM    H6S13194   2.290   5.273   6.602 -3.2737  0.9010  2.7756
  124OSM    H6T13195   2.424   5.162   6.647 -0.5575 -2.9151 -0.9828
  124OSM    C7S13196   2.263   5.184   6.794  0.3823  0.6594  0.1936
  124OSM    H7S13197   2.153   5.179   6.808  0.2235 -0.2429 -1.2336
  124OSM    H7T13198   2.306   5.275   6.843 -2.1782  2.4471 -0.6665
  124OSM    C8S13199   2.320   5.067   6.887 -0.2700  0.7917 -0.1357
  124OSM    H8S13200   2.429   5.056   6.867 -0.4845 -1.2487 -0.4530
  124OSM    H8T13201   2.274   4.975   6.844  0.3843  0.3974 -0.0099
  124OSM    C9S13202   2.296   5.069   7.032  0.4689  0.8574 -0.3267
  124OSM    H9S13203   2.186   5.080   7.047 -0.4597 -1.2417 -4.2884
  124OSM    H9T13204   2.336   5.167   7.066 -0.8864  1.5370 -0.6058
  124OSM   C10S13205   2.359   4.954   7.127 -0.7169 -0.6621 -0.5818
  124OSM   H10S13206   2.468   4.960   7.109 -1.1892 -0.8601 -4.5787
  124OSM   H10T13207   2.340   4.844   7.121  0.6897 -0.9515  0.0084
  124OSM   C11S13208   2.320   4.989   7.273 -0.5966 -0.2295 -0.0412
  124OSM   H11S13209   2.212   4.965   7.281 -0.5293 -0.7556 -0.6553
  124OSM   H11T13210   2.349   5.090   7.307  1.4818 -0.9980  0.6368
  124OSM   C12S13211   2.380   4.893   7.378 -0.0914  0.1557 -0.5272
  124OSM   H12S13212   2.491   4.891   7.374  0.0182  1.0582  1.0887
  124OSM   H12T13213   2.346   4.788   7.362 -0.2434  0.1354 -0.0903
  124OSM   C13S13214   2.329   4.925   7.521 -0.1691 -0.4270 -0.1840
  124OSM   H13S13215   2.221   4.948   7.517 -0.5579 -2.0586  0.0822
  124OSM   H13T13216   2.389   5.012   7.554  1.5743 -1.2816 -0.9436
  124OSM   C14S13217   2.362   4.812   7.621  1.0601 -0.2320 -0.2207
  124OSM   H14S13218   2.470   4.789   7.615  0.7540 -1.4903 -1.1047
  124OSM   H14T13219   2.310   4.725   7.576 -1.2547  0.7633  0.3530
  124OSM   C15S13220   2.308   4.829   7.762  0.7096 -0.3942 -0.4838
  124OSM   H15S13221   2.197   4.823   7.758  0.6461 -0.2091  0.6382
  124OSM   H15T13222   2.345   4.926   7.802  1.2833 -0.7054 -0.2531
  124OSM   C16S13223   2.363   4.723   7.864  0.1849 -0.5399  0.1231
  124OSM   H16S13224   2.474   4.731   7.861  0.1314  0.6817  0.9145
  124OSM   H16T13225   2.331   4.625   7.822 -2.6340  0.2344  0.2968
  124OSM   C17S13226   2.314   4.751   8.007 -0.4995 -0.2119  0.2729
  124OSM   H17S13227   2.204   4.767   8.014 -0.6458 -1.1358  0.2689
  124OSM   H17T13228   2.368   4.841   8.044 -0.5166 -0.2996  0.5094
  124OSM   C18S13229   2.356   4.636   8.099  0.1342 -0.4837  0.9179
  124OSM   H18S13230   2.339   4.658   8.207 -1.9409 -0.6416  0.6699
  124OSM   H18T13231   2.466   4.630   8.087  0.1600  2.5273 -1.4733
  124OSM   H18U13232   2.309   4.542   8.064 -0.3146  0.4659 -1.1837
  124OSM    C1F13233   2.236   4.628   6.710  0.1578 -0.7802 -0.0415
  124OSM     OF13234   2.299   4.528   6.676 -0.1769 -0.6633 -0.2887
  124OSM    C2F13235   2.187   4.655   6.846  0.2041  0.5755  0.0585
  124OSM    H2F13236   2.078   4.675   6.835  0.0572  1.4833  2.5689
  124OSM    H2G13237   2.244   4.745   6.877  1.5780 -0.1907 -0.1677
  124OSM    C3F13238   2.228   4.537   6.934 -0.5362  0.5727 -0.0643
  124OSM    H3F13239   2.336   4.514   6.926 -0.5624 -1.0682  3.0212
  124OSM    H3G13240   2.173   4.447   6.897 -1.8644  0.6622  1.5719
  124OSM    C4F13241   2.215   4.560   7.086  0.2762  0.4883  1.4191
  124OSM    H4F13242   2.292   4.637   7.105  1.2669 -0.4625  1.3831
  124OSM    H4G13243   2.258   4.469   7.134  2.6237 -0.1722 -1.5997
  124OSM    C5F13244   2.085   4.584   7.156  0.6201 -0.4225 -0.6934
  124OSM    H5F13245   2.009   4.509   7.128 -0.7358  0.9077 -0.7118
  124OSM    H5G13246   2.047   4.682   7.117  1.9416  0.1418 -0.6388
  124OSM    C6F13247   2.083   4.592   7.309 -0.8843 -0.0563 -0.0763
  124OSM    H6F13248   2.138   4.687   7.327  1.3173 -1.3514  0.4352
  124OSM    H6G13249   2.124   4.502   7.361 -0.0478 -0.7700 -1.8656
  124OSM    C7F13250   1.941   4.631   7.360 -0.4912 -0.9189  0.2365
  124OSM    H7F13251   1.894   4.722   7.317  2.5206  1.5708  1.7524
  124OSM    H7G13252   1.970   4.667   7.461  1.4795  3.1059 -1.5414
  124OSM    C8F13253   1.840   4.514   7.379  0.7882 -0.0236  0.2254
  124OSM    H8F13254   1.884   4.435   7.442  2.8453 -0.0054 -1.0866
  124OSM    H8G13255   1.807   4.471   7.282 -1.3076 -0.3102  1.0335
  124OSM    C9F13256   1.709   4.552   7.441 -0.3600 -0.1435  0.9939
  124OSM    H9F13257   1.724   4.631   7.516  0.6816  0.5384  0.0943
  124OSM   C10F13258   1.583   4.512   7.409  0.1598  0.1197  0.7463
  124OSM   H10F13259   1.502   4.565   7.462 -0.9691 -0.6854 -0.1141
  124OSM   C11F13260   1.549   4.420   7.293  0.4947 -0.1312 -0.3775
  124OSM   H11F13261   1.598   4.445   7.197 -0.1335 -3.7056 -1.7773
  124OSM   H11G13262   1.443   4.440   7.265  1.1842  3.2646 -1.0408
  124OSM   C12F13263   1.579   4.276   7.333 -0.3242  0.3637  0.8286
  124OSM   H12F13264   1.683   4.263   7.371 -0.3624 -0.7226  0.5911
  124OSM   H12G13265   1.566   4.210   7.245 -3.4321  2.2569 -0.2813
  124OSM   C13F13266   1.487   4.219   7.443 -0.9515 -0.1431  0.1230
  124OSM   H13F13267   1.505   4.109   7.433  1.7028  0.0870  1.5060
  124OSM   H13G13268   1.382   4.249   7.426 -1.0717  1.0080  2.5339
  124OSM   C14F13269   1.535   4.253   7.588 -0.1572  0.4959  0.0021
  124OSM   H14F13270   1.527   4.358   7.625 -0.8457  0.2724  0.4945
  124OSM   H14G13271   1.641   4.219   7.588  0.4815  2.3052  1.6252
  124OSM   C15F13272   1.462   4.161   7.685  0.0267  0.2983  0.0646
  124OSM   H15F13273   1.457   4.056   7.649 -0.0747 -0.0368  1.0194
  124OSM   H15G13274   1.363   4.208   7.701  0.0345  0.3230  0.0384
  124OSM   C16F13275   1.537   4.162   7.817  0.1736 -0.2836  0.2133
  124OSM   H16F13276   1.551   4.263   7.861 -1.0519 -0.0001 -0.0280
  124OSM   H16G13277   1.639   4.122   7.800 -0.1418 -0.8870 -0.2657
  124OSM   C17F13278   1.462   4.084   7.924 -0.3549 -0.7631 -0.4836
  124OSM   H17F13279   1.536   4.020   7.978 -0.2112 -2.0295 -2.0896
  124OSM   H17G13280   1.394   4.009   7.879 -1.1770  0.1550 -0.8027
  124OSM   C18F13281   1.380   4.171   8.018  0.4065  0.4837  0.1921
  124OSM   H18F13282   1.285   4.205   7.971 -0.3688 -1.5421  0.2279
  124OSM   H18G13283   1.442   4.261   8.041  0.2649  0.5240  0.4202
  124OSM   H18H13284   1.368   4.127   8.119 -1.9147  1.8485  0.5845
  125OSM      N13285   1.199   6.245   6.017  0.8643 -0.3673  0.3292
  125OSM    C1513286   1.293   6.239   5.896  0.7183  0.3868 -0.6051
  125OSM   H15A13287   1.383   6.182   5.916  1.5408  1.9255  0.2975
  125OSM   H15B13288   1.320   6.339   5.866 -3.2074  1.3748 -1.4109
  125OSM   H15C13289   1.257   6.188   5.808 -1.2462 -0.8094  0.8140
  125OSM    C1413290   1.096   6.346   5.977  1.0044  0.4164 -0.0729
  125OSM   H14A13291   1.034   6.289   5.909  0.8100  0.8851 -0.2935
  125OSM   H14B13292   1.138   6.432   5.927 -0.5934  0.9012 -0.6236
  125OSM   H14C13293   1.037   6.376   6.062  1.1278  0.9257 -0.1589
  125OSM    C1313294   1.137   6.109   6.030 -0.0821  0.3361  0.2765
  125OSM   H13A13295   1.107   6.072   5.933 -0.0632  2.2685 -0.5153
  125OSM   H13B13296   1.049   6.109   6.091  0.7195 -0.0068  1.4740
  125OSM   H13C13297   1.210   6.061   6.094  1.5301  1.5918 -0.5216
  125OSM    C1213298   1.274   6.289   6.141  0.2365  0.4978 -0.1881
  125OSM   H12A13299   1.204   6.315   6.219  1.4926  1.2604  0.7252
  125OSM   H12B13300   1.318   6.386   6.121  1.5949  0.2054  1.1650
  125OSM    C1113301   1.383   6.198   6.187  0.4369 -0.6810 -0.3553
  125OSM   H11A13302   1.453   6.259   6.247 -1.3159  1.9703 -0.8464
  125OSM   H11B13303   1.451   6.167   6.104 -1.3926  0.8041 -2.5433
  125OSM      P13304   1.429   5.992   6.338 -0.0325 -0.0365  0.3125
  125OSM    O1313305   1.348   5.882   6.393 -0.7702 -0.1960 -0.0709
  125OSM    O1413306   1.544   5.947   6.257  0.2904 -0.9915  0.4242
  125OSM    O1113307   1.479   6.080   6.460 -0.1070 -0.0494 -0.0380
  125OSM    O1213308   1.334   6.081   6.248  0.1054 -0.1610 -0.4838
  125OSM    C1S13309   1.385   6.131   6.556 -0.2422  0.0853 -0.8853
  125OSM    H1S13310   1.313   6.054   6.593  0.7757  0.8800  3.3255
  125OSM    H1T13311   1.330   6.221   6.523  0.7161  1.2002  0.4250
  125OSM     NF13312   1.353   6.252   6.768 -0.3423  0.3315  0.8007
  125OSM    HNF13313   1.363   6.351   6.764 -0.2350  0.4004  2.1385
  125OSM    C2S13314   1.454   6.181   6.693  0.4902 -0.0732 -0.7835
  125OSM    H2S13315   1.478   6.087   6.747  0.3608  1.0005  1.2195
  125OSM    C3S13316   1.588   6.257   6.671  0.4365  1.2458  0.2870
  125OSM    H3S13317   1.550   6.353   6.630  2.5737  1.7334 -0.7107
  125OSM     O313318   1.676   6.196   6.573  0.1814  0.0375 -0.3947
  125OSM    HO313319   1.627   6.134   6.518 -0.5492  1.7375 -1.7308
  125OSM    C4S13320   1.653   6.278   6.809  0.1641  0.5186 -0.6928
  125OSM    H4S13321   1.656   6.383   6.842  1.9531  0.6922 -1.3072
  125OSM    C5S13322   1.719   6.189   6.892  0.8378 -0.2470  0.0731
  125OSM    H5S13323   1.721   6.085   6.855 -2.0052  0.0588 -1.2346
  125OSM    C6S13324   1.767   6.239   7.027 -0.3371 -0.3026  0.0182
  125OSM    H6S13325   1.731   6.341   7.051 -0.5984  0.0340 -1.6928
  125OSM    H6T13326   1.877   6.258   7.023 -0.8684  3.4587 -0.6642
  125OSM    C7S13327   1.733   6.132   7.128 -0.3603  0.0100 -0.6433
  125OSM    H7S13328   1.772   6.031   7.104  1.2626  0.9938 -2.4147
  125OSM    H7T13329   1.625   6.117   7.148 -0.3791 -0.0651 -0.8073
  125OSM    C8S13330   1.804   6.151   7.265  0.2802 -0.8711 -0.2154
  125OSM    H8S13331   1.801   6.252   7.312  0.4240 -1.6419  1.5439
  125OSM    H8T13332   1.911   6.123   7.261  0.8771  1.2802 -3.6535
  125OSM    C9S13333   1.723   6.064   7.363 -0.0458 -0.1723 -0.6593
  125OSM    H9S13334   1.733   5.960   7.327  1.6116  0.0580 -0.9177
  125OSM    H9T13335   1.613   6.077   7.357 -0.0519 -0.3731 -0.9689
  125OSM   C10S13336   1.766   6.073   7.512 -0.1199  0.1183 -0.2409
  125OSM   H10S13337   1.741   6.178   7.539  1.6061  0.3868  0.4051
  125OSM   H10T13338   1.876   6.071   7.522  0.0813 -0.4594 -2.1860
  125OSM   C11S13339   1.697   5.973   7.604  0.1325 -0.1325  0.1058
  125OSM   H11S13340   1.697   5.870   7.563  2.9352  0.6654 -2.2242
  125OSM   H11T13341   1.591   6.005   7.605  0.6920  1.9718  2.4937
  125OSM   C12S13342   1.759   5.971   7.738 -0.1994  0.5258 -0.2841
  125OSM   H12S13343   1.777   6.076   7.772  0.1415 -0.2457  2.0896
  125OSM   H12T13344   1.863   5.935   7.732  0.3755  2.1714 -0.9633
  125OSM   C13S13345   1.672   5.910   7.845 -0.4404  0.6042  0.1391
  125OSM   H13S13346   1.643   5.805   7.823 -1.0267  0.8654 -0.3495
  125OSM   H13T13347   1.582   5.971   7.866 -0.2798  0.2514  2.0811
  125OSM   C14S13348   1.749   5.912   7.982  0.8226  0.2019 -0.6430
  125OSM   H14S13349   1.773   6.015   8.015  1.2648 -0.2976  0.6533
  125OSM   H14T13350   1.850   5.872   7.961  1.0449  0.4102 -0.0136
  125OSM   C15S13351   1.688   5.838   8.098  0.5529 -0.7201 -0.0507
  125OSM   H15S13352   1.686   5.727   8.098  0.0357 -0.7603  2.2823
  125OSM   H15T13353   1.581   5.866   8.104  0.5623 -0.8754  1.0129
  125OSM   C16S13354   1.755   5.872   8.236 -0.2085 -0.2736  0.2217
  125OSM   H16S13355   1.759   5.980   8.260  1.5955 -0.2072 -0.2256
  125OSM   H16T13356   1.857   5.828   8.234 -0.4433 -1.3454  3.9663
  125OSM   C17S13357   1.693   5.783   8.348 -0.4462 -0.1229  0.0174
  125OSM   H17S13358   1.766   5.743   8.421 -0.6228 -1.9392 -0.7442
  125OSM   H17T13359   1.649   5.691   8.306 -3.0166 -0.0947  2.3676
  125OSM   C18S13360   1.574   5.853   8.417  0.1740 -0.1429  0.4106
  125OSM   H18S13361   1.589   5.941   8.483 -0.8853 -0.4168  1.0568
  125OSM   H18T13362   1.531   5.776   8.486 -2.8294  2.5541  1.8508
  125OSM   H18U13363   1.492   5.882   8.348 -1.4019 -0.1006  2.1834
  125OSM    C1F13364   1.243   6.205   6.827 -0.2429  0.7518 -0.3578
  125OSM     OF13365   1.241   6.085   6.855  0.3481  0.5110  0.8212
  125OSM    C2F13366   1.141   6.299   6.877  0.1680 -0.2938  0.6878
  125OSM    H2F13367   1.064   6.307   6.797  0.8310  1.6470  0.1862
  125OSM    H2G13368   1.174   6.405   6.884  1.7117 -0.3959 -2.8178
  125OSM    C3F13369   1.063   6.256   7.001  0.2566  0.3043  0.3832
  125OSM    H3F13370   1.070   6.145   7.010  2.7433  0.1190 -2.3113
  125OSM    H3G13371   0.961   6.298   6.987  0.7774  1.8393  0.9647
  125OSM    C4F13372   1.097   6.324   7.133  0.2132 -0.2264  0.0648
  125OSM    H4F13373   1.040   6.271   7.213 -0.6370 -0.6948 -0.8272
  125OSM    H4G13374   1.046   6.422   7.120 -3.1525 -1.8240  0.0454
  125OSM    C5F13375   1.242   6.324   7.152  0.0715  0.2570  0.2573
  125OSM    H5F13376   1.297   6.394   7.086  1.7240 -2.2763 -1.2293
  125OSM    H5G13377   1.280   6.223   7.124 -0.2140 -0.0091  0.8047
  125OSM    C6F13378   1.284   6.354   7.294 -0.5302 -0.2122  0.1302
  125OSM    H6F13379   1.262   6.263   7.355  1.1411 -0.8288 -0.1146
  125OSM    H6G13380   1.227   6.442   7.330  1.7612  1.0226  0.9579
  125OSM    C7F13381   1.433   6.379   7.297 -0.5087  0.3903  0.6273
  125OSM    H7F13382   1.440   6.479   7.249 -0.5714  0.5467  0.9425
  125OSM    H7G13383   1.475   6.303   7.227 -0.8294 -1.2586  2.1689
  125OSM    C8F13384   1.507   6.367   7.434 -0.2350 -0.3633 -0.6439
  125OSM    H8F13385   1.611   6.405   7.419  0.2139 -0.5445  1.6499
  125OSM    H8G13386   1.516   6.259   7.460 -0.6338  0.2523  2.4433
  125OSM    C9F13387   1.445   6.445   7.549 -0.3191  0.6896  0.3606
  125OSM    H9F13388   1.455   6.555   7.546  0.3857  0.6736  1.3778
  125OSM   C10F13389   1.371   6.391   7.654 -0.5355 -0.2475  0.0734
  125OSM   H10F13390   1.337   6.456   7.735 -0.3603 -0.6256  0.4567
  125OSM   C11F13391   1.332   6.249   7.690  0.1589  0.5896  0.2633
  125OSM   H11F13392   1.368   6.168   7.622  0.8766  0.4325  0.8183
  125OSM   H11G13393   1.221   6.244   7.690  0.0363  1.0024 -3.2134
  125OSM   C12F13394   1.392   6.213   7.829  0.4690  0.7096 -0.0647
  125OSM   H12F13395   1.503   6.206   7.823  0.6659  2.3908  1.0258
  125OSM   H12G13396   1.355   6.109   7.841 -0.3184  1.2155  2.5178
  125OSM   C13F13397   1.334   6.295   7.947  0.1696 -0.0575  0.4186
  125OSM   H13F13398   1.226   6.272   7.963 -0.0168 -0.2146 -0.9139
  125OSM   H13G13399   1.352   6.403   7.930  0.2347 -0.3389 -1.5892
  125OSM   C14F13400   1.411   6.258   8.071 -0.9389  0.3244  0.1976
  125OSM   H14F13401   1.518   6.233   8.055 -0.3954  0.5086  3.0265
  125OSM   H14G13402   1.361   6.167   8.111 -0.8007  0.4304  0.6090
  125OSM   C15F13403   1.416   6.376   8.173  0.6372 -0.1632  0.3517
  125OSM   H15F13404   1.318   6.411   8.213 -1.0855 -2.8100 -1.2233
  125OSM   H15G13405   1.448   6.468   8.120 -2.1810  1.4530  1.2184
  125OSM   C16F13406   1.495   6.339   8.293 -0.7020  0.2060 -0.4157
  125OSM   H16F13407   1.599   6.306   8.270 -0.1817  2.0107 -0.8240
  125OSM   H16G13408   1.451   6.252   8.346  1.4673 -0.2309  0.7911
  125OSM   C17F13409   1.506   6.455   8.392  0.3763 -0.2079  0.3509
  125OSM   H17F13410   1.402   6.493   8.392 -0.2436 -1.5791 -2.6500
  125OSM   H17G13411   1.573   6.531   8.345  0.1438  0.2123  0.6919
  125OSM   C18F13412   1.554   6.403   8.521  0.2346  0.4879  0.1390
  125OSM   H18F13413   1.626   6.319   8.513 -1.3669 -0.8252 -1.1979
  125OSM   H18G13414   1.463   6.363   8.571 -0.0914  0.2725 -0.6117
  125OSM   H18H13415   1.586   6.483   8.591 -1.8264  1.1733  0.3512
  126OSM      N13416   6.726   4.259   6.251 -0.2079  0.6912 -0.5264
  126OSM    C1513417   6.813   4.372   6.205  0.8838  0.2497  0.0018
  126OSM   H15A13418   6.786   4.464   6.256 -3.8048 -0.5310 -0.6400
  126OSM   H15B13419   6.808   4.381   6.097  0.8072 -2.4789 -0.2822
  126OSM   H15C13420   6.914   4.340   6.226  1.5685  1.3624 -1.4168
  126OSM    C1413421   6.586   4.292   6.220 -0.0741 -0.6307  0.1447
  126OSM   H14A13422   6.551   4.384   6.264 -2.2560 -2.0357  1.5679
  126OSM   H14B13423   6.509   4.229   6.263 -0.3333 -0.6981 -0.4157
  126OSM   H14C13424   6.571   4.296   6.113 -1.1570 -1.0684  0.2605
  126OSM    C1313425   6.762   4.130   6.179  1.0194  0.0425 -0.7986
  126OSM   H13A13426   6.868   4.109   6.190  0.6935 -1.8344 -1.0484
  126OSM   H13B13427   6.752   4.136   6.071  1.1335 -1.7604 -0.9380
  126OSM   H13C13428   6.710   4.043   6.215  0.3929  0.9738  0.6123
  126OSM    C1213429   6.746   4.248   6.398 -0.0273  0.3733  0.5131
  126OSM   H12A13430   6.682   4.170   6.435  0.1387 -0.7315 -1.4176
  126OSM   H12B13431   6.700   4.339   6.436 -1.4852 -0.0856 -0.0792
  126OSM    C1113432   6.881   4.213   6.456 -0.1773  0.4705  0.2859
  126OSM   H11A13433   6.908   4.106   6.450  2.2464  0.9944  0.7550
  126OSM   H11B13434   6.872   4.245   6.562  0.7156 -3.8275  1.8486
  126OSM      P13435   7.137   4.287   6.425 -0.3011  0.0555 -0.0672
  126OSM    O1313436   7.191   4.157   6.379 -0.2869  0.3506 -0.0322
  126OSM    O1413437   7.193   4.409   6.369  0.3702  0.2456  0.6324
  126OSM    O1113438   7.136   4.296   6.585  0.5861 -0.2104 -0.0057
  126OSM    O1213439   6.985   4.292   6.391  0.0716 -0.2924 -0.9003
  126OSM    C1S13440   7.267   4.302   6.648  0.8742  0.2721  0.0138
  126OSM    H1S13441   7.315   4.399   6.623 -1.1617  1.3539  0.1030
  126OSM    H1T13442   7.330   4.215   6.617  1.4578  1.0518 -1.0324
  126OSM     NF13443   7.385   4.318   6.862  0.1130  0.1573 -0.7263
  126OSM    HNF13444   7.434   4.236   6.892  0.7459 -0.3227 -2.8613
  126OSM    C2S13445   7.255   4.304   6.801 -0.0008 -0.4409  0.4568
  126OSM    H2S13446   7.195   4.395   6.821 -1.2171 -1.5041  1.9375
  126OSM    C3S13447   7.175   4.180   6.849  0.4194  0.1261  0.0224
  126OSM    H3S13448   7.222   4.090   6.804 -1.7787 -0.8225 -0.5213
  126OSM     O313449   7.040   4.172   6.801  0.2248 -0.3102 -0.1932
  126OSM    HO313450   7.038   4.244   6.738  3.1989 -1.1123 -1.4190
  126OSM    C4S13451   7.187   4.165   7.001  0.7797 -0.4471 -0.2675
  126OSM    H4S13452   7.289   4.145   7.035  0.0956 -0.7941  1.7143
  126OSM    C5S13453   7.099   4.196   7.100  0.8678  0.4132 -0.0907
  126OSM    H5S13454   6.995   4.212   7.067 -0.0979 -3.8871  0.3079
  126OSM    C6S13455   7.117   4.181   7.255 -0.0387  0.1077 -0.3505
  126OSM    H6S13456   7.102   4.282   7.300  2.9630  2.0405 -3.2605
  126OSM    H6T13457   7.226   4.164   7.269  0.1092  1.4548  0.4004
  126OSM    C7S13458   7.030   4.081   7.334 -0.1578 -0.0492  0.5722
  126OSM    H7S13459   7.081   3.983   7.323  0.9765  0.3490  1.9884
  126OSM    H7T13460   6.929   4.065   7.291 -0.5223 -0.8860  1.6899
  126OSM    C8S13461   7.023   4.111   7.481 -0.4837 -0.2361 -0.0190
  126OSM    H8S13462   6.966   4.204   7.499  0.0303  0.0430  0.1897
  126OSM    H8T13463   7.127   4.133   7.515 -0.1277 -0.6999 -0.7837
  126OSM    C9S13464   6.962   3.994   7.565  0.2541  0.0210 -0.4257
  126OSM    H9S13465   7.021   3.900   7.555 -0.7054 -0.8838  1.9138
  126OSM    H9T13466   6.860   3.974   7.527  0.0994 -0.4342  0.2145
  126OSM   C10S13467   6.949   4.035   7.713  0.0532 -0.3469 -0.8550
  126OSM   H10S13468   7.036   4.100   7.733  0.5109 -1.0369 -0.5846
  126OSM   H10T13469   6.953   3.946   7.779 -2.0522  0.2699  0.2101
  126OSM   C11S13470   6.809   4.101   7.731  0.0589  0.7135  0.3066
  126OSM   H11S13471   6.716   4.045   7.706  2.5739 -2.5909 -2.7068
  126OSM   H11T13472   6.800   4.181   7.654 -0.3230 -1.8918 -2.5890
  126OSM   C12S13473   6.794   4.150   7.879 -0.1490  0.3609 -0.0125
  126OSM   H12S13474   6.888   4.206   7.894  0.4419  0.0878 -2.3258
  126OSM   H12T13475   6.778   4.062   7.945 -0.5043 -1.1258 -1.9603
  126OSM   C13S13476   6.685   4.259   7.900 -0.4945 -0.7016 -0.4031
  126OSM   H13S13477   6.586   4.209   7.901 -0.3492 -0.9864 -0.3168
  126OSM   H13T13478   6.700   4.325   7.811  1.6685 -1.6897 -0.8413
  126OSM   C14S13479   6.722   4.346   8.021  0.4165  0.3733 -0.1520
  126OSM   H14S13480   6.824   4.376   7.992  1.3879 -1.4109  1.2122
  126OSM   H14T13481   6.722   4.312   8.127  2.4629 -0.7548 -0.4623
  126OSM   C15S13482   6.635   4.470   8.024  0.3759 -0.0750  0.1485
  126OSM   H15S13483   6.536   4.440   8.065  0.0035  1.8815  0.7682
  126OSM   H15T13484   6.623   4.524   7.928  0.5809  0.1377  0.2430
  126OSM   C16S13485   6.703   4.576   8.116  0.5409 -0.3100 -0.7448
  126OSM   H16S13486   6.811   4.584   8.094  1.0081  0.3648  1.5661
  126OSM   H16T13487   6.704   4.534   8.219  1.0803 -0.2140 -0.7088
  126OSM   C17S13488   6.614   4.698   8.115 -0.4462 -0.3669 -0.1098
  126OSM   H17S13489   6.509   4.671   8.139 -0.3129  0.2280  1.2523
  126OSM   H17T13490   6.615   4.752   8.018  0.9343 -0.8143 -0.3666
  126OSM   C18S13491   6.658   4.802   8.220  0.5794  0.0932 -0.1743
  126OSM   H18S13492   6.604   4.898   8.205 -0.2792 -0.7733 -3.5097
  126OSM   H18T13493   6.767   4.825   8.213  0.1092  2.3514 -1.2440
  126OSM   H18U13494   6.632   4.769   8.323  0.7928 -0.1268 -0.1899
  126OSM    C1F13495   7.449   4.432   6.877 -0.0281  0.3660  0.0084
  126OSM     OF13496   7.398   4.540   6.850  0.5489 -0.3054 -0.0771
  126OSM    C2F13497   7.581   4.417   6.936 -0.1865  0.0501  1.5813
  126OSM    H2F13498   7.651   4.422   6.849 -2.6399  0.5019 -0.4857
  126OSM    H2G13499   7.608   4.319   6.981  2.2088 -0.0197  0.2287
  126OSM    C3F13500   7.615   4.531   7.026  0.7681  0.7557  0.1541
  126OSM    H3F13501   7.616   4.619   6.959 -0.5421  2.2973  2.0413
  126OSM    H3G13502   7.716   4.508   7.067 -0.0380  1.1412  2.5325
  126OSM    C4F13503   7.534   4.546   7.150  0.0510 -0.0520 -0.3855
  126OSM    H4F13504   7.436   4.597   7.138  0.2258  0.4963  0.4026
  126OSM    H4G13505   7.588   4.619   7.214 -1.1430  0.3682  0.1735
  126OSM    C5F13506   7.520   4.412   7.225  0.1528  0.8512  0.0750
  126OSM    H5F13507   7.620   4.369   7.245  1.7586  4.0456 -0.4454
  126OSM    H5G13508   7.456   4.343   7.166 -2.0750  2.3879  0.5392
  126OSM    C6F13509   7.450   4.435   7.356 -0.1499  0.2399  0.3601
  126OSM    H6F13510   7.352   4.484   7.339 -0.0800  0.4715  0.6139
  126OSM    H6G13511   7.510   4.510   7.413 -0.7387  2.2372 -1.4769
  126OSM    C7F13512   7.436   4.312   7.450  0.0798 -0.5442  0.7049
  126OSM    H7F13513   7.536   4.276   7.484  0.4792 -1.4179 -1.2721
  126OSM    H7G13514   7.394   4.235   7.382 -0.5010  1.9116 -1.9040
  126OSM    C8F13515   7.333   4.349   7.562 -0.3192  0.2256 -0.7287
  126OSM    H8F13516   7.301   4.254   7.611  0.3425  1.1902  1.7380
  126OSM    H8G13517   7.238   4.372   7.511 -0.4271  0.6164 -0.3521
  126OSM    C9F13518   7.361   4.457   7.656 -0.1848  0.0228  0.0580
  126OSM    H9F13519   7.368   4.556   7.608 -0.6555  0.1662  0.2766
  126OSM   C10F13520   7.385   4.456   7.790  0.4412  0.2560  0.5327
  126OSM   H10F13521   7.399   4.554   7.837  0.8569 -0.1555  1.2925
  126OSM   C11F13522   7.381   4.339   7.888 -0.1844 -0.4003 -0.2389
  126OSM   H11F13523   7.429   4.245   7.854 -1.0052 -0.9397  0.0640
  126OSM   H11G13524   7.273   4.316   7.904 -0.6957  1.7164 -0.3458
  126OSM   C12F13525   7.448   4.368   8.027  0.1327 -0.2293 -0.4820
  126OSM   H12F13526   7.554   4.393   8.008  0.1757 -0.1475 -0.1305
  126OSM   H12G13527   7.448   4.277   8.090  1.8759 -1.9455 -2.7575
  126OSM   C13F13528   7.380   4.479   8.117  0.6172  0.4159  0.0364
  126OSM   H13F13529   7.353   4.551   8.036 -0.9462 -1.0737 -0.8313
  126OSM   H13G13530   7.453   4.515   8.193  1.3569 -2.3840  0.7597
  126OSM   C14F13531   7.267   4.417   8.195  0.7038  0.0145  0.0298
  126OSM   H14F13532   7.310   4.330   8.249 -0.6260 -0.7071 -0.0374
  126OSM   H14G13533   7.194   4.383   8.118  1.0690  0.8400 -0.6981
  126OSM   C15F13534   7.187   4.496   8.297  0.8290 -0.0563  0.7537
  126OSM   H15F13535   7.141   4.583   8.244  2.6972 -0.4536 -1.7058
  126OSM   H15G13536   7.257   4.536   8.373 -1.6751  0.5271  2.9075
  126OSM   C16F13537   7.084   4.415   8.370 -0.1214 -0.5356  0.5963
  126OSM   H16F13538   7.096   4.437   8.479  0.8256 -2.8769  1.0400
  126OSM   H16G13539   7.102   4.306   8.361 -0.1458 -0.3875 -1.7412
  126OSM   C17F13540   6.943   4.437   8.318 -0.2126 -0.4422 -1.3302
  126OSM   H17F13541   6.930   4.389   8.219 -1.3222 -1.8001 -0.5635
  126OSM   H17G13542   6.918   4.545   8.326 -1.5355 -0.8028 -0.2554
  126OSM   C18F13543   6.842   4.358   8.403 -0.2559  0.2195 -0.1970
  126OSM   H18F13544   6.831   4.395   8.508  2.5196  1.2694 -0.1828
  126OSM   H18G13545   6.887   4.257   8.416 -0.9167 -0.1682 -0.8841
  126OSM   H18H13546   6.740   4.348   8.362 -0.8218  0.9745  0.9580
  127OSM      N13547   6.051   2.498   5.984 -0.5951  0.0183  0.0366
  127OSM    C1513548   6.005   2.610   5.894 -0.6761 -0.2975 -0.2494
  127OSM   H15A13549   6.086   2.681   5.890 -0.0605 -0.9480  0.5362
  127OSM   H15B13550   5.908   2.647   5.924 -1.6560 -2.1115 -1.0132
  127OSM   H15C13551   5.990   2.569   5.795  1.6242  0.3821 -0.9334
  127OSM    C1413552   5.945   2.393   5.995  0.4214  0.0532 -0.1412
  127OSM   H14A13553   5.964   2.310   6.062  1.4533  0.9305  0.6914
  127OSM   H14B13554   5.920   2.342   5.904 -0.1300 -2.1663  1.1812
  127OSM   H14C13555   5.856   2.441   6.033  1.0231  1.7280 -0.7734
  127OSM    C1313556   6.181   2.451   5.918  0.1323  0.2903 -0.1021
  127OSM   H13A13557   6.242   2.538   5.902  0.9363 -0.3994 -0.9004
  127OSM   H13B13558   6.166   2.400   5.824 -0.8262 -0.7145  0.5614
  127OSM   H13C13559   6.235   2.385   5.984 -1.0789 -0.3697  0.2800
  127OSM    C1213560   6.076   2.552   6.126  0.2641  0.1701  0.2093
  127OSM   H12A13561   5.976   2.582   6.154  0.0167  0.0256 -0.5065
  127OSM   H12B13562   6.134   2.644   6.126 -1.3651  1.2389 -0.2066
  127OSM    C1113563   6.159   2.475   6.237 -0.3798  0.7579  0.0128
  127OSM   H11A13564   6.104   2.384   6.267  0.3488  0.1475 -0.4835
  127OSM   H11B13565   6.163   2.546   6.323 -0.8590  1.9239 -0.8909
  127OSM      P13566   6.383   2.340   6.247 -0.2387 -0.5009  0.1697
  127OSM    O1313567   6.308   2.216   6.275 -0.1515 -0.9047 -0.1376
  127OSM    O1413568   6.496   2.332   6.150 -0.5235  0.8888  0.0801
  127OSM    O1113569   6.436   2.395   6.382 -0.1587 -0.3761 -0.0806
  127OSM    O1213570   6.291   2.454   6.188 -0.7496 -0.3735 -0.6206
  127OSM    C1S13571   6.356   2.413   6.509  0.1070  0.5728  0.0782
  127OSM    H1S13572   6.268   2.346   6.511  2.0630 -2.1390  1.2125
  127OSM    H1T13573   6.329   2.520   6.526  0.5570  0.7388 -0.2136
  127OSM     NF13574   6.369   2.382   6.758  0.3613 -0.1252  0.2626
  127OSM    HNF13575   6.415   2.458   6.802  0.4039  1.4506 -2.2999
  127OSM    C2S13576   6.437   2.367   6.631 -0.0004 -0.5770 -0.3992
  127OSM    H2S13577   6.450   2.256   6.625  0.5056 -0.7076  2.1170
  127OSM    C3S13578   6.578   2.434   6.631  0.2020 -0.0373 -0.3713
  127OSM    H3S13579   6.557   2.542   6.617  1.2183  0.0062 -1.7097
  127OSM     O313580   6.660   2.412   6.516  0.2338  0.4133  0.0078
  127OSM    HO313581   6.599   2.359   6.464 -0.7455 -0.8447  2.2694
  127OSM    C4S13582   6.654   2.405   6.755  0.1682  0.1954 -0.2519
  127OSM    H4S13583   6.620   2.465   6.841  1.1190  0.5869 -0.1370
  127OSM    C5S13584   6.757   2.319   6.777  0.3596  0.4258  0.1724
  127OSM    H5S13585   6.787   2.248   6.698  2.7161  0.4143  1.0064
  127OSM    C6S13586   6.816   2.295   6.911 -0.0686  0.3259  0.1349
  127OSM    H6S13587   6.803   2.378   6.983  1.1289 -1.6320  2.7740
  127OSM    H6T13588   6.924   2.273   6.898 -0.3360 -0.8789 -0.1558
  127OSM    C7S13589   6.749   2.173   6.972 -0.3373  1.4983 -0.4606
  127OSM    H7S13590   6.768   2.080   6.915 -0.2767  2.6002 -2.3198
  127OSM    H7T13591   6.639   2.187   6.966 -0.6947  0.1595  1.8222
  127OSM    C8S13592   6.787   2.159   7.127 -0.0744  0.1324  0.1829
  127OSM    H8S13593   6.892   2.195   7.128 -0.7548  2.2036  0.3968
  127OSM    H8T13594   6.775   2.053   7.160  1.7343 -0.1770 -0.0091
  127OSM    C9S13595   6.698   2.242   7.222  0.0040  0.0044 -0.2872
  127OSM    H9S13596   6.590   2.217   7.219 -0.4470  1.6451 -4.0783
  127OSM    H9T13597   6.708   2.347   7.189 -1.3846 -0.4132 -2.2304
  127OSM   C10S13598   6.751   2.224   7.366 -0.0642 -0.2038  0.1652
  127OSM   H10S13599   6.834   2.296   7.382 -1.4478  1.7432 -0.8147
  127OSM   H10T13600   6.774   2.116   7.369  0.4992 -0.2003 -1.9024
  127OSM   C11S13601   6.646   2.253   7.476  0.7903  0.1309 -0.4989
  127OSM   H11S13602   6.555   2.191   7.459  0.6146  0.2426  0.0015
  127OSM   H11T13603   6.598   2.353   7.476 -2.1160 -1.1710 -0.3892
  127OSM   C12S13604   6.698   2.233   7.621 -0.7185  0.2561  0.2696
  127OSM   H12S13605   6.762   2.321   7.645 -0.9065  0.4428  0.0934
  127OSM   H12T13606   6.767   2.146   7.617 -2.0771 -0.8627  0.3894
  127OSM   C13S13607   6.603   2.212   7.737  0.3500 -0.1925 -1.4920
  127OSM   H13S13608   6.564   2.108   7.737  0.7108 -0.3283 -0.7701
  127OSM   H13T13609   6.518   2.284   7.734  0.6823  0.5619  2.3597
  127OSM   C14S13610   6.677   2.239   7.863 -0.0326 -0.6440  0.1170
  127OSM   H14S13611   6.714   2.344   7.870  0.0123 -0.6096 -0.6129
  127OSM   H14T13612   6.754   2.161   7.881 -1.5446 -2.4377 -0.9738
  127OSM   C15S13613   6.585   2.216   7.991 -0.2854  0.1070 -0.0513
  127OSM   H15S13614   6.528   2.121   7.992 -0.1176 -0.0428 -1.8644
  127OSM   H15T13615   6.510   2.299   7.993 -0.9724 -0.4833  2.0198
  127OSM   C16S13616   6.658   2.231   8.128 -0.2896  0.0656  0.3192
  127OSM   H16S13617   6.712   2.326   8.110 -0.7230  0.6892  2.1345
  127OSM   H16T13618   6.740   2.156   8.138 -0.1801  0.0242 -0.7859
  127OSM   C17S13619   6.564   2.234   8.246 -0.3844 -0.2553  0.6193
  127OSM   H17S13620   6.499   2.322   8.226 -1.0875 -0.8242  0.3250
  127OSM   H17T13621   6.632   2.246   8.332 -0.1868  1.8999  0.1999
  127OSM   C18S13622   6.474   2.107   8.258  0.0317  0.6551  0.4832
  127OSM   H18S13623   6.520   2.026   8.197  0.3350  2.6946 -2.2166
  127OSM   H18T13624   6.377   2.133   8.210  0.6681 -0.3943 -1.5147
  127OSM   H18U13625   6.460   2.074   8.363 -0.4700 -0.8621 -0.0409
  127OSM    C1F13626   6.257   2.330   6.812 -0.3296 -0.6703  0.6963
  127OSM     OF13627   6.207   2.233   6.763 -0.1474  0.6046  0.2665
  127OSM    C2F13628   6.206   2.395   6.943  0.8215  0.2085 -0.1679
  127OSM    H2F13629   6.098   2.419   6.938  0.0764 -2.1908  2.0331
  127OSM    H2G13630   6.266   2.488   6.955 -0.8753  1.0939  2.5561
  127OSM    C3F13631   6.212   2.298   7.071  0.3686  0.2910  0.0268
  127OSM    H3F13632   6.302   2.233   7.069 -0.6151 -1.1024 -1.0404
  127OSM    H3G13633   6.134   2.220   7.055  1.3372 -0.6314 -0.3689
  127OSM    C4F13634   6.182   2.367   7.205 -0.3713  0.1187 -0.5322
  127OSM    H4F13635   6.078   2.405   7.196 -0.5704 -0.5671 -1.2800
  127OSM    H4G13636   6.261   2.441   7.231 -0.6461  0.4779 -0.7163
  127OSM    C5F13637   6.196   2.263   7.325 -0.3771 -0.3000 -0.3418
  127OSM    H5F13638   6.288   2.202   7.312 -0.0957 -0.6149  2.5739
  127OSM    H5G13639   6.118   2.184   7.328  1.3129 -2.0415  0.1401
  127OSM    C6F13640   6.213   2.331   7.464 -0.0704  0.6002  0.4294
  127OSM    H6F13641   6.115   2.381   7.477 -1.2737 -0.9319 -2.0182
  127OSM    H6G13642   6.306   2.393   7.467  1.0605 -1.0532  1.6638
  127OSM    C7F13643   6.233   2.220   7.571  0.2426  0.1005 -0.8862
  127OSM    H7F13644   6.334   2.179   7.551  0.1025 -1.0929  0.6952
  127OSM    H7G13645   6.161   2.137   7.557 -0.3719  0.3251  0.8047
  127OSM    C8F13646   6.236   2.282   7.714 -0.1034 -0.1592  0.4407
  127OSM    H8F13647   6.301   2.371   7.719  0.3858 -0.5251  0.6339
  127OSM    H8G13648   6.282   2.201   7.775 -1.2711 -1.8667 -0.8132
  127OSM    C9F13649   6.100   2.314   7.745 -0.2227  0.7290 -0.3706
  127OSM    H9F13650   6.068   2.410   7.704  0.0786  1.9439  2.0486
  127OSM   C10F13651   6.017   2.256   7.837 -0.1371  0.0770 -0.5631
  127OSM   H10F13652   5.913   2.294   7.836 -0.6834 -1.3303  0.3621
  127OSM   C11F13653   6.044   2.149   7.931 -0.3288  0.7008  0.8190
  127OSM   H11F13654   6.084   2.061   7.877 -1.4072 -0.1057  1.2772
  127OSM   H11G13655   5.945   2.114   7.968 -1.6292  3.2516 -0.0215
  127OSM   C12F13656   6.134   2.181   8.046  0.3130 -0.1239 -0.0879
  127OSM   H12F13657   6.233   2.221   8.012  0.2731  0.6499  0.6654
  127OSM   H12G13658   6.151   2.090   8.107  0.3441 -0.2369 -0.2649
  127OSM   C13F13659   6.085   2.296   8.136  0.1310  0.5374 -0.3504
  127OSM   H13F13660   5.984   2.279   8.179  0.1713 -0.6586 -0.7080
  127OSM   H13G13661   6.074   2.384   8.069 -0.8226 -0.9926 -2.2921
  127OSM   C14F13662   6.168   2.330   8.261  0.0242  0.7539  0.5113
  127OSM   H14F13663   6.267   2.364   8.224 -0.2365 -1.0381 -2.1049
  127OSM   H14G13664   6.187   2.245   8.330 -1.6844 -0.5178 -0.4898
  127OSM   C15F13665   6.114   2.436   8.356  0.4742 -0.7098  0.2687
  127OSM   H15F13666   6.026   2.400   8.414 -1.6909  1.8488 -1.2133
  127OSM   H15G13667   6.094   2.527   8.296  4.4261  0.3751  0.2759
  127OSM   C16F13668   6.222   2.488   8.459  0.7095  0.4417  0.4047
  127OSM   H16F13669   6.315   2.515   8.404  0.4494  1.9767  0.6539
  127OSM   H16G13670   6.251   2.398   8.517 -1.2613 -0.8166 -0.4959
  127OSM   C17F13671   6.182   2.598   8.554  0.1834  0.2301  0.2317
  127OSM   H17F13672   6.114   2.673   8.509 -1.4285 -1.8724 -0.9720
  127OSM   H17G13673   6.281   2.642   8.580  0.9520 -1.5011  0.3918
  127OSM   C18F13674   6.114   2.543   8.676 -0.8879  0.1723 -0.4540
  127OSM   H18F13675   6.170   2.452   8.707 -1.0165  0.2763  0.0963
  127OSM   H18G13676   6.006   2.518   8.666 -1.1999  1.3552 -0.1609
  127OSM   H18H13677   6.120   2.622   8.754  1.3637  1.0205 -1.3845
  128OSM      N13678   6.635   0.490   5.847 -0.1507 -0.1453  0.5392
  128OSM    C1513679   6.687   0.354   5.828 -0.2599  0.5019  0.4771
  128OSM   H15A13680   6.787   0.358   5.787 -0.0008 -0.6165  0.9707
  128OSM   H15B13681   6.614   0.302   5.768 -0.2049 -0.3850  1.1556
  128OSM   H15C13682   6.694   0.310   5.927 -0.6587  0.3454  0.4344
  128OSM    C1413683   6.626   0.564   5.721  0.9356  1.0558  0.6262
  128OSM   H14A13684   6.579   0.661   5.735 -2.2274  0.0046 -1.5972
  128OSM   H14B13685   6.570   0.512   5.644 -1.6845  1.0978  2.3668
  128OSM   H14C13686   6.729   0.575   5.692  1.1159 -1.3862  0.1563
  128OSM    C1313687   6.501   0.475   5.913 -0.0726 -0.0049  0.3774
  128OSM   H13A13688   6.504   0.418   6.005 -1.4191 -0.5472  0.1004
  128OSM   H13B13689   6.425   0.433   5.849  0.0680 -1.2604  1.0050
  128OSM   H13C13690   6.466   0.572   5.945 -1.8860 -0.6147  0.3365
  128OSM    C1213691   6.727   0.574   5.945  0.3978 -0.9814  0.2419
  128OSM   H12A13692   6.828   0.568   5.906  0.7532  2.7972  0.2897
  128OSM   H12B13693   6.732   0.526   6.041  0.4463 -0.6438  0.4098
  128OSM    C1113694   6.702   0.723   5.968 -0.6640  0.1675 -0.3244
  128OSM   H11A13695   6.702   0.778   5.871 -1.1178  0.0115 -0.4186
  128OSM   H11B13696   6.772   0.770   6.039 -0.1113 -1.8192  0.5255
  128OSM      P13697   6.484   0.865   6.007 -0.0365 -0.2826 -0.3618
  128OSM    O1313698   6.563   0.965   5.928  0.1956  0.2146  0.4752
  128OSM    O1413699   6.348   0.841   5.958  0.1420  0.1246 -0.6271
  128OSM    O1113700   6.481   0.916   6.161  0.5310  0.0988 -0.0598
  128OSM    O1213701   6.573   0.733   6.021 -0.0018 -0.5848 -0.8357
  128OSM    C1S13702   6.426   1.044   6.203 -0.5071 -0.1222  0.1350
  128OSM    H1S13703   6.316   1.036   6.192 -0.5745  0.5783  0.2648
  128OSM    H1T13704   6.463   1.129   6.142 -0.1073 -1.0695 -0.9811
  128OSM     NF13705   6.381   1.149   6.428  0.6415 -0.3589  0.3491
  128OSM    HNF13706   6.403   1.245   6.442  2.4533 -0.5560 -0.7255
  128OSM    C2S13707   6.471   1.068   6.354 -1.2575 -0.1885  0.5063
  128OSM    H2S13708   6.473   0.969   6.405  3.1703  0.6731  2.5181
  128OSM    C3S13709   6.616   1.128   6.340 -0.5811  0.5027 -0.1864
  128OSM    H3S13710   6.608   1.237   6.317  1.7449  1.0644  1.3147
  128OSM     O313711   6.696   1.074   6.230  0.6499 -0.2121  0.8342
  128OSM    HO313712   6.638   1.008   6.192  1.0762 -0.4286  0.5480
  128OSM    C4S13713   6.689   1.130   6.475 -0.4844 -0.3998  0.3725
  128OSM    H4S13714   6.702   1.233   6.513  2.3184  0.7442 -3.0571
  128OSM    C5S13715   6.762   1.032   6.526  0.3553  0.0998  0.3494
  128OSM    H5S13716   6.773   0.936   6.474 -1.1885 -0.8345  1.6768
  128OSM    C6S13717   6.840   1.032   6.656 -0.0397  0.2095  0.3015
  128OSM    H6S13718   6.947   1.039   6.627 -0.7234  1.1730 -2.2988
  128OSM    H6T13719   6.818   0.930   6.695 -1.3798  1.0519  1.8755
  128OSM    C7S13720   6.809   1.139   6.763 -0.1632 -0.9233 -0.5374
  128OSM    H7S13721   6.701   1.163   6.779  0.3148 -0.4104  2.7857
  128OSM    H7T13722   6.853   1.232   6.721  0.4097 -1.3311 -0.8436
  128OSM    C8S13723   6.866   1.106   6.897 -0.4877 -0.7241  0.0082
  128OSM    H8S13724   6.976   1.089   6.904 -0.0772  2.0075  2.1893
  128OSM    H8T13725   6.816   1.009   6.917  0.5865 -1.1450  0.7384
  128OSM    C9S13726   6.829   1.207   7.009 -0.6226 -0.3470  0.0731
  128OSM    H9S13727   6.724   1.202   7.044 -0.8776 -1.4250 -0.8175
  128OSM    H9T13728   6.842   1.309   6.965  0.6597 -0.9545 -1.0223
  128OSM   C10S13729   6.905   1.178   7.143  0.2754  0.1975  0.4842
  128OSM   H10S13730   6.919   1.271   7.203  0.5803 -0.2178  1.0671
  128OSM   H10T13731   7.008   1.143   7.121  0.3945  1.3788 -0.9351
  128OSM   C11S13732   6.844   1.067   7.220 -0.2267  0.1673  0.4026
  128OSM   H11S13733   6.854   0.968   7.170  0.1932  0.6653 -0.5365
  128OSM   H11T13734   6.736   1.088   7.231 -0.2316  0.2332  0.2239
  128OSM   C12S13735   6.910   1.057   7.357 -0.2580  0.3668 -0.4388
  128OSM   H12S13736   7.019   1.080   7.355 -0.5781  2.5199  2.0809
  128OSM   H12T13737   6.876   0.960   7.398 -2.9573  0.4992 -2.1350
  128OSM   C13S13738   6.854   1.162   7.454 -0.0665  0.8474  0.6787
  128OSM   H13S13739   6.743   1.162   7.459 -0.1385 -2.4967  1.8329
  128OSM   H13T13740   6.884   1.262   7.417  0.0128  1.3358  1.9953
  128OSM   C14S13741   6.906   1.139   7.595  0.1675 -0.6430  0.4451
  128OSM   H14S13742   7.017   1.135   7.586  0.3126  1.1322  1.2215
  128OSM   H14T13743   6.882   1.040   7.638 -0.1055 -1.3303 -1.1933
  128OSM   C15S13744   6.885   1.251   7.695  0.5362  0.0370  0.0347
  128OSM   H15S13745   6.777   1.260   7.720  0.7153  0.1689  0.8091
  128OSM   H15T13746   6.919   1.349   7.654  1.3600  0.8443  2.4523
  128OSM   C16S13747   6.966   1.219   7.821 -0.5620 -0.4922  0.1999
  128OSM   H16S13748   7.075   1.218   7.800 -0.7322 -0.2699 -0.7283
  128OSM   H16T13749   6.956   1.116   7.860  1.0359 -0.1274  1.7238
  128OSM   C17S13750   6.933   1.322   7.934 -0.0313  0.4682 -0.0364
  128OSM   H17S13751   6.842   1.288   7.988 -1.0887  1.0649 -1.3970
  128OSM   H17T13752   6.894   1.412   7.881 -1.2117 -0.3630 -0.6080
  128OSM   C18S13753   7.058   1.362   8.014  0.3723  0.2795  0.1380
  128OSM   H18S13754   7.125   1.417   7.945  1.5885 -0.4919  0.6868
  128OSM   H18T13755   7.099   1.273   8.066 -0.4100  0.0858  0.4388
  128OSM   H18U13756   7.033   1.445   8.084 -2.0662  0.6280 -1.0196
  128OSM    C1F13757   6.263   1.101   6.471 -0.1689 -0.9439  0.7301
  128OSM     OF13758   6.240   0.984   6.452 -0.3699  0.1485 -0.3075
  128OSM    C2F13759   6.169   1.197   6.531 -0.2633  0.0801 -0.5223
  128OSM    H2F13760   6.083   1.208   6.461 -1.6304 -0.9483  0.9313
  128OSM    H2G13761   6.213   1.299   6.529 -1.8642  0.7964 -0.9608
  128OSM    C3F13762   6.105   1.147   6.664  0.3335 -0.4313 -0.3785
  128OSM    H3F13763   6.178   1.127   6.746 -1.1323  0.1711  1.1381
  128OSM    H3G13764   6.044   1.057   6.641 -0.3772  0.0806 -0.5110
  128OSM    C4F13765   6.017   1.246   6.736 -0.0643 -0.7774 -0.3077
  128OSM    H4F13766   5.943   1.184   6.792  0.2151  0.9828  2.2032
  128OSM    H4G13767   5.963   1.300   6.656  0.8817 -0.9196 -1.0517
  128OSM    C5F13768   6.091   1.342   6.834 -0.0057 -0.7139  0.2009
  128OSM    H5F13769   6.182   1.379   6.783  0.8890 -1.9776  0.8494
  128OSM    H5G13770   6.118   1.276   6.919 -1.1628 -2.0199 -0.3966
  128OSM    C6F13771   6.001   1.452   6.887 -0.2999  0.0927  0.0937
  128OSM    H6F13772   5.957   1.499   6.796 -1.5036  2.1845  1.6618
  128OSM    H6G13773   6.069   1.519   6.944 -0.8523  0.3621  0.4488
  128OSM    C7F13774   5.890   1.413   6.983 -0.1806  0.0597 -0.4756
  128OSM    H7F13775   5.859   1.311   6.950  2.1139  0.0141 -2.8936
  128OSM    H7G13776   5.804   1.483   6.981 -1.6425 -1.4018  2.9948
  128OSM    C8F13777   5.944   1.401   7.129 -0.5972  0.5177  0.3461
  128OSM    H8F13778   5.984   1.502   7.153 -0.8801  0.9052 -0.7596
  128OSM    H8G13779   6.032   1.333   7.123 -1.5356 -0.5923 -1.9104
  128OSM    C9F13780   5.842   1.360   7.229  0.6279  0.2673  0.3603
  128OSM    H9F13781   5.747   1.416   7.224 -0.1562 -1.1521 -2.0796
  128OSM   C10F13782   5.855   1.254   7.311  0.3823 -0.5397  1.1990
  128OSM   H10F13783   5.779   1.239   7.388 -2.8549  3.4607 -0.8328
  128OSM   C11F13784   5.975   1.161   7.329  0.1995  0.2110 -0.0954
  128OSM   H11F13785   6.057   1.191   7.260  0.3880  1.1633  0.5228
  128OSM   H11G13786   5.951   1.053   7.319 -1.1618  0.6679 -2.5918
  128OSM   C12F13787   6.042   1.184   7.470  0.4899 -1.1356 -0.6759
  128OSM   H12F13788   6.039   1.293   7.493  0.3472 -1.4277  0.7538
  128OSM   H12G13789   6.149   1.155   7.467  1.2745  0.9110  2.2636
  128OSM   C13F13790   5.973   1.107   7.583  0.0764 -0.0080  0.2826
  128OSM   H13F13791   5.958   1.002   7.549  2.6096 -0.1545 -0.5983
  128OSM   H13G13792   5.875   1.156   7.600  0.5032  0.5341  1.2200
  128OSM   C14F13793   6.050   1.100   7.707 -0.3699 -0.1110 -0.1177
  128OSM   H14F13794   6.076   1.197   7.756  2.9668 -1.5290  1.1857
  128OSM   H14G13795   6.152   1.062   7.688  0.3177  0.5702  1.9121
  128OSM   C15F13796   5.985   1.007   7.814 -0.1328  0.1161 -0.9852
  128OSM   H15F13797   5.973   0.907   7.767 -0.5214  0.2114 -1.0950
  128OSM   H15G13798   5.888   1.059   7.832  0.3097  1.2832 -1.8302
  128OSM   C16F13799   6.060   0.996   7.943  0.9847  0.1450  0.0504
  128OSM   H16F13800   6.072   1.102   7.972 -1.2851  1.1538 -2.2772
  128OSM   H16G13801   6.162   0.955   7.929  1.9119  0.9136  3.5301
  128OSM   C17F13802   5.992   0.905   8.045  0.2641 -0.1240  0.6140
  128OSM   H17F13803   5.884   0.919   8.068  0.1406 -0.8861  0.5100
  128OSM   H17G13804   6.035   0.931   8.144 -0.4163  0.3796  0.7834
  128OSM   C18F13805   6.027   0.763   8.027  0.2658  0.6294  0.4570
  128OSM   H18F13806   5.996   0.731   7.926  0.3469  0.0114  0.6244
  128OSM   H18G13807   5.970   0.707   8.104  0.5162 -0.2100  0.0304
  128OSM   H18H13808   6.133   0.740   8.054 -1.0383 -3.7045  2.8548
  129OSM      N13809   1.448   3.614   6.143 -0.5089 -0.4350  0.0923
  129OSM    C1513810   1.560   3.657   6.043 -0.0011 -0.3541  0.2981
  129OSM   H15A13811   1.557   3.583   5.964 -1.2572  0.5808 -0.5790
  129OSM   H15B13812   1.658   3.647   6.088  0.0436 -1.4241 -0.0242
  129OSM   H15C13813   1.556   3.759   6.009 -1.1003 -1.0975 -1.9707
  129OSM    C1413814   1.460   3.709   6.258 -0.5483  0.8770 -0.7068
  129OSM   H14A13815   1.563   3.736   6.273  0.3530 -1.6548 -1.8267
  129OSM   H14B13816   1.433   3.657   6.348  0.2806  0.5194 -0.6588
  129OSM   H14C13817   1.393   3.793   6.248  1.4227  2.9675  2.1221
  129OSM    C1313818   1.312   3.647   6.083  0.1073  0.5336  0.0327
  129OSM   H13A13819   1.242   3.677   6.159  0.0567  0.5420 -0.0171
  129OSM   H13B13820   1.260   3.562   6.041 -1.9672  1.4297  0.6609
  129OSM   H13C13821   1.314   3.736   6.021 -0.7076  1.3959  1.2089
  129OSM    C1213822   1.469   3.476   6.185  0.4740  0.2611 -0.7029
  129OSM   H12A13823   1.570   3.465   6.223  0.4843  1.7085 -0.2577
  129OSM   H12B13824   1.470   3.411   6.099  2.0195  0.2898 -0.7401
  129OSM    C1113825   1.370   3.410   6.289  0.6464 -0.5886  0.4827
  129OSM   H11A13826   1.380   3.300   6.280  1.4303 -0.3583 -3.3570
  129OSM   H11B13827   1.267   3.425   6.248  0.5780 -0.5000  0.6827
  129OSM      P13828   1.486   3.435   6.523  0.1916  0.0562  0.3727
  129OSM    O1313829   1.598   3.525   6.503 -0.2171 -0.3140  0.4865
  129OSM    O1413830   1.419   3.431   6.655  0.1833 -0.2744  0.3481
  129OSM    O1113831   1.535   3.290   6.477 -0.3071  0.2698  0.4031
  129OSM    O1213832   1.372   3.466   6.419 -0.3857 -0.3506 -1.1298
  129OSM    C1S13833   1.634   3.218   6.546  0.4988 -0.0002 -0.1493
  129OSM    H1S13834   1.730   3.274   6.554  0.9095 -0.5814 -0.8909
  129OSM    H1T13835   1.661   3.128   6.487  0.6457  0.5198 -0.8993
  129OSM     NF13836   1.724   3.140   6.759  0.0959  0.4677 -0.3090
  129OSM    HNF13837   1.732   3.040   6.754  1.7993  0.5731 -0.1828
  129OSM    C2S13838   1.599   3.183   6.694 -0.1551  0.2510  0.0297
  129OSM    H2S13839   1.569   3.273   6.752  1.4666  2.0838 -1.8091
  129OSM    C3S13840   1.484   3.079   6.695 -0.3803  1.2089  0.1322
  129OSM    H3S13841   1.518   2.987   6.643 -2.4829  1.9941 -2.9028
  129OSM     O313842   1.375   3.116   6.613  0.3803  0.3883  0.0227
  129OSM    HO313843   1.402   3.203   6.584 -2.0001  1.5723  1.1279
  129OSM    C4S13844   1.447   3.054   6.837 -0.2202 -0.3507 -0.7947
  129OSM    H4S13845   1.449   2.954   6.882 -0.8270  0.4964  1.2323
  129OSM    C5S13846   1.392   3.152   6.915 -0.1301 -0.2328 -0.0369
  129OSM    H5S13847   1.379   3.258   6.887 -0.1646 -0.0537  0.6405
  129OSM    C6S13848   1.360   3.140   7.061 -0.3624 -0.5528 -0.0213
  129OSM    H6S13849   1.410   3.055   7.113  0.4847 -0.9160 -1.3877
  129OSM    H6T13850   1.250   3.127   7.062 -0.4736  0.1595 -1.1086
  129OSM    C7S13851   1.395   3.266   7.151 -0.2525 -0.6045 -0.0476
  129OSM    H7S13852   1.383   3.358   7.090  1.3936 -1.1170 -1.2256
  129OSM    H7T13853   1.503   3.272   7.174 -0.5513 -0.8928  1.5577
  129OSM    C8S13854   1.319   3.264   7.286 -0.8455 -0.1936  0.4546
  129OSM    H8S13855   1.210   3.262   7.264 -0.6788  0.1286 -0.4388
  129OSM    H8T13856   1.352   3.349   7.350  1.3151 -0.1167 -0.6764
  129OSM    C9S13857   1.346   3.132   7.365  0.2949 -0.6211 -0.0734
  129OSM    H9S13858   1.454   3.107   7.354  0.6362  0.7725 -0.0244
  129OSM    H9T13859   1.297   3.046   7.314  0.9774 -1.0780  0.0348
  129OSM   C10S13860   1.304   3.141   7.508  0.0365  0.0161 -0.1130
  129OSM   H10S13861   1.331   3.045   7.557  1.9672  0.2688 -0.5809
  129OSM   H10T13862   1.194   3.151   7.498 -0.1039 -0.5717  0.7425
  129OSM   C11S13863   1.349   3.259   7.600 -0.2679 -0.0385 -0.3311
  129OSM   H11S13864   1.294   3.350   7.568 -0.7187 -0.6804 -1.4652
  129OSM   H11T13865   1.457   3.283   7.598 -0.3181  0.3158  0.7688
  129OSM   C12S13866   1.323   3.225   7.755  0.0636 -0.0109 -0.5200
  129OSM   H12S13867   1.362   3.124   7.780  0.6581  0.1946 -0.6259
  129OSM   H12T13868   1.214   3.230   7.777 -0.2442  2.3071 -2.2499
  129OSM   C13S13869   1.406   3.318   7.849 -0.4206 -0.4479 -0.6998
  129OSM   H13S13870   1.358   3.418   7.843 -1.4004 -0.8318  0.4759
  129OSM   H13T13871   1.515   3.327   7.830  0.0702  0.1780  2.0427
  129OSM   C14S13872   1.388   3.285   8.003 -0.8688  0.4487  0.6879
  129OSM   H14S13873   1.450   3.348   8.070 -1.3549 -0.6643  2.2404
  129OSM   H14T13874   1.426   3.182   8.021  0.2159  0.6131 -0.5281
  129OSM   C15S13875   1.246   3.287   8.058  0.8569 -0.9081 -0.2523
  129OSM   H15S13876   1.186   3.211   8.003  1.7291  0.1187 -2.7976
  129OSM   H15T13877   1.216   3.387   8.020  1.1792 -1.1576 -1.1901
  129OSM   C16S13878   1.231   3.266   8.208 -0.3180 -0.2569 -0.3548
  129OSM   H16S13879   1.308   3.333   8.253 -0.9895  2.0596 -2.4282
  129OSM   H16T13880   1.264   3.162   8.230 -1.0255 -0.2226  0.9129
  129OSM   C17S13881   1.097   3.320   8.261 -0.1096  0.2826 -0.1826
  129OSM   H17S13882   1.019   3.251   8.222  0.0352 -0.8358  1.3768
  129OSM   H17T13883   1.080   3.423   8.226 -1.3149 -0.0675 -0.6962
  129OSM   C18S13884   1.088   3.317   8.415  0.3097 -0.2342 -0.5691
  129OSM   H18S13885   1.092   3.210   8.444  0.4751 -0.8216 -2.5671
  129OSM   H18T13886   0.996   3.369   8.449  0.2077 -1.6572  1.4925
  129OSM   H18U13887   1.176   3.366   8.462  0.1975 -1.6513  1.2156
  129OSM    C1F13888   1.822   3.222   6.800 -0.5040  0.0080 -0.4892
  129OSM     OF13889   1.819   3.345   6.779  0.3773 -0.2946  0.4565
  129OSM    C2F13890   1.934   3.159   6.872  0.1247  0.9584  0.4714
  129OSM    H2F13891   2.027   3.201   6.828  0.8927 -0.2684  0.8774
  129OSM    H2G13892   1.951   3.053   6.842 -1.8841  0.7121  0.0583
  129OSM    C3F13893   1.918   3.166   7.028 -0.1419  0.6319  0.3196
  129OSM    H3F13894   1.948   3.267   7.063  1.7721 -0.3054  1.5682
  129OSM    H3G13895   1.997   3.093   7.057  1.3017  1.6400 -0.9327
  129OSM    C4F13896   1.788   3.119   7.095  0.0605  0.7763 -0.2439
  129OSM    H4F13897   1.796   3.012   7.122  2.5251  1.0056  0.1855
  129OSM    H4G13898   1.693   3.145   7.044  0.3032 -0.8585 -1.6155
  129OSM    C5F13899   1.771   3.183   7.239  0.2793 -1.1543 -1.3846
  129OSM    H5F13900   1.665   3.167   7.271  0.9979 -0.3408  1.8591
  129OSM    H5G13901   1.792   3.291   7.226 -0.3337 -1.0438 -1.4807
  129OSM    C6F13902   1.861   3.123   7.354 -0.5002  0.0250 -0.1457
  129OSM    H6F13903   1.966   3.150   7.335 -0.4265 -1.2162 -1.7504
  129OSM    H6G13904   1.862   3.012   7.340 -0.1444  0.1965 -1.6326
  129OSM    C7F13905   1.835   3.160   7.501 -0.4832 -0.1930 -0.5744
  129OSM    H7F13906   1.833   3.271   7.510  0.3776 -0.2010 -0.1718
  129OSM    H7G13907   1.917   3.114   7.560 -1.8578 -0.3777  1.2876
  129OSM    C8F13908   1.709   3.110   7.558 -0.0487  0.1526  0.3501
  129OSM    H8F13909   1.622   3.162   7.512 -1.0689 -2.5948 -1.1321
  129OSM    H8G13910   1.700   3.132   7.666 -2.7970 -2.5345  0.8241
  129OSM    C9F13911   1.699   2.959   7.551 -0.1315  0.2077  0.1870
  129OSM    H9F13912   1.721   2.911   7.455 -0.7831  2.2295 -1.0416
  129OSM   C10F13913   1.649   2.877   7.652 -0.5746 -0.6042  0.5102
  129OSM   H10F13914   1.654   2.767   7.640  0.0513 -0.4692 -0.5939
  129OSM   C11F13915   1.601   2.927   7.788  0.0266 -0.6827  0.5408
  129OSM   H11F13916   1.548   3.024   7.778  0.7725 -0.1685  1.4335
  129OSM   H11G13917   1.693   2.957   7.842  1.2473 -0.8490 -1.3376
  129OSM   C12F13918   1.524   2.823   7.873 -0.0600  0.1917 -0.4717
  129OSM   H12F13919   1.594   2.738   7.888  0.9205  0.6037 -2.4410
  129OSM   H12G13920   1.439   2.781   7.816 -1.5824  0.0144  1.7940
  129OSM   C13F13921   1.481   2.862   8.016 -0.3850  0.1687  0.1514
  129OSM   H13F13922   1.430   2.960   8.005  1.1611  1.0045  0.2088
  129OSM   H13G13923   1.574   2.867   8.077  0.5445 -1.3748 -1.0727
  129OSM   C14F13924   1.382   2.766   8.073  0.1507  0.4878 -0.2304
  129OSM   H14F13925   1.433   2.669   8.090 -0.3078  0.1964 -0.5148
  129OSM   H14G13926   1.300   2.743   8.002 -0.2057  2.1480 -0.3964
  129OSM   C15F13927   1.329   2.808   8.210  0.0624 -0.2393  0.5333
  129OSM   H15F13928   1.254   2.731   8.235 -0.0746 -0.7770 -1.3419
  129OSM   H15G13929   1.290   2.910   8.189 -0.1367 -0.3375  0.4308
  129OSM   C16F13930   1.435   2.822   8.317 -0.9183  0.0735 -0.2825
  129OSM   H16F13931   1.393   2.892   8.392 -1.6802  1.5540 -2.0302
  129OSM   H16G13932   1.523   2.876   8.277 -0.1360 -1.3396 -0.5519
  129OSM   C17F13933   1.466   2.688   8.377  0.2579 -0.0966 -0.0853
  129OSM   H17F13934   1.514   2.623   8.301  1.7897 -0.1584  0.8865
  129OSM   H17G13935   1.374   2.652   8.426 -0.9641  0.9472 -1.5260
  129OSM   C18F13936   1.574   2.695   8.491  0.7228 -0.6300 -0.4887
  129OSM   H18F13937   1.603   2.591   8.515  0.9953 -0.7246 -1.2263
  129OSM   H18G13938   1.528   2.759   8.570 -0.0241 -1.7388  0.0034
  129OSM   H18H13939   1.663   2.748   8.451  0.2198 -0.2170 -1.0924
  130OSM      N13940   3.771   4.172   6.414  0.3523  0.1696  0.9843
  130OSM    C1513941   3.860   4.108   6.310 -0.9753 -0.2083  0.9218
  130OSM   H15A13942   3.941   4.170   6.276 -2.5075  1.7161  0.6102
  130OSM   H15B13943   3.797   4.073   6.230 -0.3288 -0.9508  0.7258
  130OSM   H15C13944   3.905   4.014   6.339  2.7662  0.8315 -0.9265
  130OSM    C1413945   3.856   4.180   6.540 -0.5847 -0.8223 -0.4684
  130OSM   H14A13946   3.935   4.250   6.518 -1.0840 -1.3359 -4.6452
  130OSM   H14B13947   3.907   4.088   6.565  2.2674  0.3120 -1.7630
  130OSM   H14C13948   3.805   4.208   6.631  2.4306 -1.2765  1.5075
  130OSM    C1313949   3.733   4.308   6.362 -0.0562 -1.1721 -0.5143
  130OSM   H13A13950   3.819   4.372   6.346 -1.8844  1.1489 -1.6970
  130OSM   H13B13951   3.670   4.361   6.432  0.6068 -0.7732 -0.2039
  130OSM   H13C13952   3.682   4.300   6.267 -0.6532  0.9795 -0.4306
  130OSM    C1213953   3.650   4.088   6.440 -0.1162  0.5777 -0.2444
  130OSM   H12A13954   3.590   4.133   6.517  0.8935 -0.7921  1.4243
  130OSM   H12B13955   3.687   4.001   6.492 -0.9359  1.2952  1.6502
  130OSM    C1113956   3.562   4.070   6.318  0.4591  0.1809  0.0512
  130OSM   H11A13957   3.541   4.168   6.270  1.5196  1.3937  1.9440
  130OSM   H11B13958   3.463   4.039   6.357  0.2330 -0.7720 -1.2348
  130OSM      P13959   3.581   3.828   6.240  0.3920  0.0241  0.3027
  130OSM    O1313960   3.451   3.804   6.168  0.2872 -0.2786  0.5670
  130OSM    O1413961   3.694   3.747   6.206  0.0614 -0.2225 -0.0676
  130OSM    O1113962   3.552   3.808   6.394  0.3665  0.3328 -0.3734
  130OSM    O1213963   3.616   3.975   6.231  0.6671  0.0705 -0.2818
  130OSM    C1S13964   3.434   3.743   6.441 -0.5799  0.0620  0.2976
  130OSM    H1S13965   3.410   3.650   6.386 -1.5440  1.0830 -1.0938
  130OSM    H1T13966   3.350   3.815   6.427  0.8942  1.9152  0.6283
  130OSM     NF13967   3.300   3.673   6.631  0.3502  0.1578 -0.0333
  130OSM    HNF13968   3.248   3.749   6.670 -2.0365 -1.4475  0.0975
  130OSM    C2S13969   3.435   3.702   6.592  0.1299 -0.3476  0.1299
  130OSM    H2S13970   3.496   3.609   6.592 -0.8160 -0.9812 -0.5009
  130OSM    C3S13971   3.509   3.811   6.684 -0.2904  0.0469  0.6930
  130OSM    H3S13972   3.455   3.908   6.675  1.2072  1.2812  3.6971
  130OSM     O313973   3.648   3.830   6.657 -0.0005  0.3012 -0.3606
  130OSM    HO313974   3.665   3.789   6.572  2.5674  0.3508  0.0462
  130OSM    C4S13975   3.499   3.774   6.828  0.2584  0.1177 -0.5555
  130OSM    H4S13976   3.563   3.696   6.871 -2.8817 -1.0360  2.4432
  130OSM    C5S13977   3.423   3.828   6.928  0.1270  0.0159 -0.0239
  130OSM    H5S13978   3.349   3.907   6.907  0.1084 -0.4627 -1.9744
  130OSM    C6S13979   3.427   3.781   7.068 -0.2962  0.8149 -0.2502
  130OSM    H6S13980   3.477   3.867   7.116  1.8312  1.3529 -3.1417
  130OSM    H6T13981   3.489   3.689   7.078  0.1754  0.9225 -1.8754
  130OSM    C7S13982   3.286   3.738   7.121 -0.5714  0.4095 -0.0251
  130OSM    H7S13983   3.271   3.636   7.080  3.8822 -1.5234  2.3956
  130OSM    H7T13984   3.209   3.809   7.084  0.9078  1.7247 -0.6754
  130OSM    C8S13985   3.298   3.739   7.278 -0.3474  0.4225 -0.2623
  130OSM    H8S13986   3.329   3.841   7.308  2.6218  0.2076 -2.1753
  130OSM    H8T13987   3.371   3.667   7.319 -0.5058  0.0812 -0.5708
  130OSM    C9S13988   3.161   3.736   7.351 -0.8847  0.7112 -0.4027
  130OSM    H9S13989   3.119   3.634   7.336  1.5404 -0.0061 -3.3923
  130OSM    H9T13990   3.095   3.814   7.306 -1.5066 -0.0716 -0.8711
  130OSM   C10S13991   3.158   3.768   7.505  0.0590 -0.7126 -0.6630
  130OSM   H10S13992   3.051   3.785   7.527  0.7395  0.7946  1.8312
  130OSM   H10T13993   3.202   3.870   7.501 -0.2603 -0.6066 -1.7775
  130OSM   C11S13994   3.227   3.675   7.604  0.0706 -0.7091  0.3174
  130OSM   H11S13995   3.334   3.667   7.578 -0.5297 -0.8438 -2.3457
  130OSM   H11T13996   3.173   3.580   7.588 -0.3300 -0.5788  0.8519
  130OSM   C12S13997   3.216   3.715   7.749  0.2650  0.0715 -0.2036
  130OSM   H12S13998   3.110   3.692   7.775 -0.0024 -1.4463 -2.3715
  130OSM   H12T13999   3.244   3.822   7.757 -3.3697  1.1469  0.1385
  130OSM   C13S14000   3.304   3.631   7.846 -0.0085 -0.4479  0.4923
  130OSM   H13S14001   3.404   3.676   7.863 -0.7259  1.3769  0.1099
  130OSM   H13T14002   3.334   3.531   7.807 -0.7414 -1.5049  2.4569
  130OSM   C14S14003   3.239   3.615   7.981 -0.8089  0.1315  0.4343
  130OSM   H14S14004   3.140   3.565   7.985 -1.0379  0.6775  2.2054
  130OSM   H14T14005   3.213   3.719   8.009  1.2311  0.6938  0.4071
  130OSM   C15S14006   3.336   3.552   8.083  0.1728  0.7420 -0.0078
  130OSM   H15S14007   3.419   3.625   8.094  0.8819  0.3186 -2.0875
  130OSM   H15T14008   3.383   3.457   8.051  0.8355  1.1874 -0.3736
  130OSM   C16S14009   3.262   3.531   8.216  0.0884 -0.2437 -0.3197
  130OSM   H16S14010   3.328   3.491   8.296 -1.9401 -2.8374  0.1970
  130OSM   H16T14011   3.186   3.452   8.200 -0.5133  0.4275 -0.8371
  130OSM   C17S14012   3.191   3.655   8.269 -0.4512 -0.3966 -0.9846
  130OSM   H17S14013   3.108   3.694   8.207  0.3840  3.7251  0.1927
  130OSM   H17T14014   3.269   3.734   8.274 -0.0552 -0.8588  0.9366
  130OSM   C18S14015   3.142   3.639   8.422 -0.3192 -0.1941  0.0748
  130OSM   H18S14016   3.096   3.733   8.461 -0.1601  1.1397 -2.6968
  130OSM   H18T14017   3.219   3.607   8.495 -0.5214  0.6103  0.6582
  130OSM   H18U14018   3.055   3.570   8.428  1.3166 -2.3311  0.2363
  130OSM    C1F14019   3.248   3.548   6.602 -0.7401  0.0919  0.3334
  130OSM     OF14020   3.297   3.468   6.529 -0.3631 -0.7216 -0.1216
  130OSM    C2F14021   3.139   3.509   6.692 -0.1235 -0.2044  0.0422
  130OSM    H2F14022   3.059   3.587   6.690 -0.8239 -0.8487  1.5174
  130OSM    H2G14023   3.180   3.514   6.795  0.4032 -1.0385 -0.1221
  130OSM    C3F14024   3.077   3.371   6.670 -0.2617 -0.8850  0.1752
  130OSM    H3F14025   3.156   3.294   6.655 -1.0745 -1.7650  0.3410
  130OSM    H3G14026   3.014   3.368   6.578  0.0476 -0.8873 -0.0372
  130OSM    C4F14027   2.986   3.316   6.792  0.2364  0.6216  0.3515
  130OSM    H4F14028   2.900   3.381   6.820  0.1714  1.0503 -0.7732
  130OSM    H4G14029   3.053   3.324   6.879 -0.1255  0.7740  0.6176
  130OSM    C5F14030   2.931   3.177   6.771  0.1480 -0.4671  0.2104
  130OSM    H5F14031   3.010   3.121   6.717 -0.3273 -0.5355 -0.4372
  130OSM    H5G14032   2.850   3.198   6.697  2.5668 -0.7407 -2.7315
  130OSM    C6F14033   2.877   3.123   6.904  0.6619  1.2229  0.7220
  130OSM    H6F14034   2.811   3.041   6.869 -0.6166  2.4056  0.2695
  130OSM    H6G14035   2.801   3.196   6.937  0.6008  1.9423 -0.8871
  130OSM    C7F14036   2.973   3.064   6.996  0.2251 -1.2314 -0.5645
  130OSM    H7F14037   3.046   3.144   7.022  0.3038 -1.2252 -0.8021
  130OSM    H7G14038   3.045   2.990   6.954  0.8402 -0.6846 -0.4806
  130OSM    C8F14039   2.902   3.001   7.114 -0.2416  0.4871 -0.5398
  130OSM    H8F14040   2.851   2.908   7.079 -2.4377  2.2493 -2.3303
  130OSM    H8G14041   2.818   3.065   7.150 -1.5362 -1.5229  0.2386
  130OSM    C9F14042   2.991   2.960   7.226 -0.9424  0.3161  0.2496
  130OSM    H9F14043   3.089   2.935   7.184  0.7262  3.9456  1.5983
  130OSM   C10F14044   2.971   2.964   7.361 -0.9838 -0.3090  0.3035
  130OSM   H10F14045   3.055   2.931   7.424  0.2835  2.1095 -0.0166
  130OSM   C11F14046   2.849   3.015   7.427  0.5798 -0.0285 -0.3038
  130OSM   H11F14047   2.811   2.935   7.495 -0.6066 -0.2868 -1.2270
  130OSM   H11G14048   2.773   3.041   7.351 -1.6265 -0.5060  1.5953
  130OSM   C12F14049   2.876   3.130   7.527 -0.4173  0.6728  0.0132
  130OSM   H12F14050   2.786   3.194   7.537 -1.3782 -0.3822 -1.4144
  130OSM   H12G14051   2.958   3.189   7.480  1.4563 -1.9454 -0.2251
  130OSM   C13F14052   2.910   3.087   7.669 -0.4417  0.6639  0.1946
  130OSM   H13F14053   2.957   3.173   7.722 -0.6375  0.1577  1.2145
  130OSM   H13G14054   2.994   3.015   7.673  0.2560  1.4900  0.9817
  130OSM   C14F14055   2.792   3.046   7.760  0.8093  0.3655 -0.0190
  130OSM   H14F14056   2.838   3.018   7.857 -1.3785 -2.2627  0.3534
  130OSM   H14G14057   2.751   2.956   7.710 -1.5979  0.5584  1.4941
  130OSM   C15F14058   2.687   3.155   7.786  0.3221  0.2029 -0.0566
  130OSM   H15F14059   2.621   3.171   7.697  1.2308 -3.9064 -1.7019
  130OSM   H15G14060   2.752   3.240   7.813  0.7827 -0.5258  1.1859
  130OSM   C16F14061   2.617   3.119   7.916  0.5073  0.1768 -0.6673
  130OSM   H16F14062   2.695   3.091   7.989  0.3326 -0.3694 -0.6814
  130OSM   H16G14063   2.541   3.038   7.908  1.0069 -0.6560  2.1656
  130OSM   C17F14064   2.546   3.249   7.969 -0.1556 -0.3636  0.0078
  130OSM   H17F14065   2.488   3.305   7.892 -1.0254 -0.0021  0.8988
  130OSM   H17G14066   2.620   3.320   8.011  0.6791 -2.4879  2.3604
  130OSM   C18F14067   2.435   3.211   8.073  0.3927 -0.5583  0.0218
  130OSM   H18F14068   2.365   3.134   8.034 -0.3503 -0.7559  1.6546
  130OSM   H18G14069   2.374   3.301   8.095 -1.0893 -1.2802 -0.9688
  130OSM   H18H14070   2.481   3.158   8.159 -1.0541 -2.5380 -0.3660
  131OSM      N14071   5.951   6.745   5.657 -0.1304 -0.6056  0.2609
  131OSM    C1514072   6.026   6.871   5.628  0.1156 -0.3043 -0.6892
  131OSM   H15A14073   6.131   6.852   5.616  0.6827  1.9853  0.0503
  131OSM   H15B14074   6.021   6.939   5.712 -0.1989 -1.0043 -0.1369
  131OSM   H15C14075   5.997   6.912   5.532  0.8418  0.9974 -0.3820
  131OSM    C1414076   5.809   6.775   5.636 -0.8924 -1.0162 -0.4848
  131OSM   H14A14077   5.781   6.818   5.541 -1.6889 -1.5680 -0.5134
  131OSM   H14B14078   5.766   6.844   5.707 -1.7197 -0.0399 -1.8880
  131OSM   H14C14079   5.755   6.682   5.636 -2.9576  0.1291 -0.2626
  131OSM    C1314080   5.997   6.635   5.561 -0.2513 -0.0364 -0.7493
  131OSM   H13A14081   6.104   6.624   5.566 -0.2612 -0.0232 -0.4856
  131OSM   H13B14082   5.960   6.653   5.461 -2.1012  0.3072 -0.0527
  131OSM   H13C14083   5.947   6.545   5.595  0.4606  0.1641  0.9676
  131OSM    C1214084   5.979   6.702   5.796 -0.2991  0.3123 -0.1947
  131OSM   H12A14085   5.937   6.769   5.869  1.5949  1.6464 -0.2442
  131OSM   H12B14086   6.086   6.697   5.814  0.4255  1.6172 -3.2940
  131OSM    C1114087   5.934   6.554   5.830  0.5263  0.2624 -0.1624
  131OSM   H11A14088   5.986   6.520   5.922  0.2251  0.3881  0.0550
  131OSM   H11B14089   5.971   6.487   5.749  0.1666  0.4670 -0.5018
  131OSM      P14090   5.725   6.612   5.970 -0.0561  0.1855 -0.2913
  131OSM    O1314091   5.768   6.752   5.977  0.0681  0.5325  0.5985
  131OSM    O1414092   5.577   6.589   5.969 -0.1185 -0.4651  0.4076
  131OSM    O1114093   5.778   6.537   6.094  0.9175 -0.1267 -0.1039
  131OSM    O1214094   5.789   6.543   5.840  0.3101  0.1744 -0.0498
  131OSM    C1S14095   5.793   6.391   6.095  0.3320 -0.3123 -0.0866
  131OSM    H1S14096   5.886   6.349   6.053 -0.3266 -1.8410 -0.0754
  131OSM    H1T14097   5.711   6.331   6.050  0.8403 -0.3619 -0.9777
  131OSM     NF14098   5.808   6.204   6.244  0.5167 -0.3406  0.1569
  131OSM    HNF14099   5.727   6.155   6.275 -1.2608  2.1940 -0.2016
  131OSM    C2S14100   5.790   6.345   6.241 -0.4259  0.4749 -0.2866
  131OSM    H2S14101   5.878   6.397   6.285 -0.7218  0.0891  0.8022
  131OSM    C3S14102   5.666   6.386   6.328  1.3020  0.3355 -0.7252
  131OSM    H3S14103   5.581   6.328   6.287  2.1760  0.9405 -3.6404
  131OSM     O314104   5.625   6.527   6.322 -0.0428  0.7034  0.2624
  131OSM    HO314105   5.677   6.550   6.245  0.9791  0.2665  0.7971
  131OSM    C4S14106   5.687   6.350   6.477  0.7879  1.1857  0.8146
  131OSM    H4S14107   5.663   6.245   6.500  0.3054  0.3289 -2.9292
  131OSM    C5S14108   5.741   6.436   6.567  0.0738 -0.0812 -0.0592
  131OSM    H5S14109   5.785   6.527   6.523 -1.0620  0.6565  0.2898
  131OSM    C6S14110   5.772   6.393   6.714 -0.0974  0.3127 -0.5773
  131OSM    H6S14111   5.707   6.306   6.737 -2.1049  1.9874  0.4063
  131OSM    H6T14112   5.747   6.474   6.786 -1.9919  1.7534 -2.7064
  131OSM    C7S14113   5.924   6.345   6.733 -0.0694  0.2415 -0.2473
  131OSM    H7S14114   5.984   6.437   6.716  1.5355 -0.6529  0.4152
  131OSM    H7T14115   5.948   6.277   6.649 -0.3314  0.8520 -0.8315
  131OSM    C8S14116   5.950   6.292   6.872 -0.1188 -0.5077  0.4828
  131OSM    H8S14117   5.889   6.201   6.890 -1.3946  0.4582  1.1988
  131OSM    H8T14118   5.899   6.354   6.948 -0.4615 -1.0981  0.7397
  131OSM    C9S14119   6.096   6.254   6.891 -0.5228  0.2671  0.0010
  131OSM    H9S14120   6.111   6.208   6.991  1.8792 -1.1968 -0.9512
  131OSM    H9T14121   6.153   6.349   6.881 -0.3458  0.0623 -0.9981
  131OSM   C10S14122   6.158   6.164   6.785  0.8375 -0.0893  0.8195
  131OSM   H10S14123   6.164   6.224   6.691 -3.4683 -0.1270  0.3198
  131OSM   H10T14124   6.094   6.076   6.764  1.4824  0.0029 -1.9494
  131OSM   C11S14125   6.296   6.103   6.825  0.3480  0.4643 -0.1144
  131OSM   H11S14126   6.333   6.044   6.738 -0.8271 -0.9127  0.2759
  131OSM   H11T14127   6.290   6.037   6.915 -1.7611 -1.4396 -1.5507
  131OSM   C12S14128   6.390   6.223   6.850  0.8473 -0.0147  0.3393
  131OSM   H12S14129   6.357   6.293   6.930  0.2709 -0.4620  0.4983
  131OSM   H12T14130   6.387   6.289   6.760 -0.9796 -0.7915 -0.2319
  131OSM   C13S14131   6.536   6.183   6.876 -0.5255  0.7150 -0.3957
  131OSM   H13S14132   6.577   6.119   6.796  0.6398  1.5095 -0.4532
  131OSM   H13T14133   6.541   6.124   6.970 -1.7150  1.0096 -0.1240
  131OSM   C14S14134   6.630   6.307   6.887  0.8796  0.4389  0.4659
  131OSM   H14S14135   6.730   6.262   6.901  0.9872 -1.0162 -3.6517
  131OSM   H14T14136   6.592   6.353   6.980 -1.5919 -0.1233 -0.1806
  131OSM   C15S14137   6.647   6.398   6.767 -0.1184  0.6283  0.3467
  131OSM   H15S14138   6.721   6.477   6.794 -1.1910  0.7335  3.3911
  131OSM   H15T14139   6.551   6.445   6.735  0.5101  1.5392 -0.2413
  131OSM   C16S14140   6.697   6.315   6.643  0.6211 -0.0786 -0.0119
  131OSM   H16S14141   6.609   6.274   6.590 -1.6992  2.5497  1.5204
  131OSM   H16T14142   6.765   6.235   6.679 -2.3078 -2.3152  0.9567
  131OSM   C17S14143   6.764   6.400   6.537  0.5884 -0.5432 -0.2463
  131OSM   H17S14144   6.860   6.447   6.567  0.9225 -1.0804 -0.4551
  131OSM   H17T14145   6.688   6.479   6.525  0.7301 -0.3669  0.0086
  131OSM   C18S14146   6.776   6.342   6.388  0.3671  0.0697  0.1698
  131OSM   H18S14147   6.866   6.277   6.388  0.3930  0.0693 -1.2290
  131OSM   H18T14148   6.779   6.427   6.316 -0.3129 -0.9528 -1.1005
  131OSM   H18U14149   6.685   6.280   6.374 -0.3363  1.3801 -1.4316
  131OSM    C1F14150   5.919   6.141   6.216 -0.1142  0.0235  0.3732
  131OSM     OF14151   6.021   6.208   6.206  0.3225  0.5568  0.1030
  131OSM    C2F14152   5.914   5.990   6.187  0.0977 -0.5244 -0.0530
  131OSM    H2F14153   5.897   5.982   6.078  0.2434  1.8737 -0.2987
  131OSM    H2G14154   5.836   5.934   6.244 -0.1351  0.5512  0.7269
  131OSM    C3F14155   6.046   5.933   6.228  0.5591  0.2240  0.1492
  131OSM    H3F14156   6.138   5.981   6.187 -0.2350  0.5681 -1.3162
  131OSM    H3G14157   6.054   5.832   6.184  2.5051 -0.4497  1.8946
  131OSM    C4F14158   6.061   5.908   6.380  0.1773  0.0901  0.2999
  131OSM    H4F14159   5.956   5.895   6.416  0.1941  1.2563  0.8172
  131OSM    H4G14160   6.082   6.005   6.429 -1.5812  2.1122 -2.6757
  131OSM    C5F14161   6.154   5.791   6.422  0.2135  0.1218 -0.0640
  131OSM    H5F14162   6.239   5.791   6.352 -0.2165 -1.6651 -0.6472
  131OSM    H5G14163   6.103   5.696   6.393  0.0909  0.6810 -1.8307
  131OSM    C6F14164   6.206   5.795   6.563  0.1951 -0.4867 -0.1975
  131OSM    H6F14165   6.268   5.885   6.584  1.9233 -2.1828  2.6403
  131OSM    H6G14166   6.275   5.710   6.580 -0.5544 -1.1816 -0.5560
  131OSM    C7F14167   6.099   5.757   6.667 -0.2678 -0.2999 -0.0881
  131OSM    H7F14168   6.050   5.672   6.616  0.9556 -0.1097 -1.6622
  131OSM    H7G14169   6.031   5.843   6.687 -0.7890 -0.4097 -1.3115
  131OSM    C8F14170   6.154   5.714   6.808 -0.4447 -0.4268  0.0422
  131OSM    H8F14171   6.212   5.805   6.835  0.1274 -0.9580  0.6337
  131OSM    H8G14172   6.230   5.635   6.797  1.8924  1.6125  0.6746
  131OSM    C9F14173   6.055   5.674   6.914 -0.2395  0.3350 -0.3945
  131OSM    H9F14174   5.972   5.610   6.881 -0.4513 -0.4698  1.5514
  131OSM   C10F14175   6.058   5.703   7.047  0.0566  0.2016  0.6042
  131OSM   H10F14176   5.975   5.671   7.111 -0.8292  0.0958 -0.5582
  131OSM   C11F14177   6.165   5.795   7.107 -0.5044 -0.5801  0.1026
  131OSM   H11F14178   6.227   5.840   7.027 -0.4096  0.8743  0.9618
  131OSM   H11G14179   6.243   5.746   7.168  0.4733  1.4070  0.5306
  131OSM   C12F14180   6.084   5.905   7.174  0.4893 -0.4835 -0.2340
  131OSM   H12F14181   5.997   5.871   7.234 -1.8897  4.1862 -0.5896
  131OSM   H12G14182   6.035   5.964   7.094 -0.8604 -2.9736 -1.3386
  131OSM   C13F14183   6.175   5.981   7.265 -0.1500 -0.0627  0.1717
  131OSM   H13F14184   6.268   6.026   7.226 -0.4785 -0.1394 -0.7192
  131OSM   H13G14185   6.217   5.909   7.339 -1.2421 -1.5492 -0.5893
  131OSM   C14F14186   6.097   6.090   7.345 -0.0235  0.2444  0.0264
  131OSM   H14F14187   5.994   6.054   7.363 -0.5140  2.2992  1.6056
  131OSM   H14G14188   6.084   6.175   7.275  3.1708  0.2325 -0.7727
  131OSM   C15F14189   6.155   6.108   7.482  0.3565 -0.3930 -0.6358
  131OSM   H15F14190   6.160   6.007   7.527  0.7313  0.0109  0.2430
  131OSM   H15G14191   6.092   6.164   7.554  1.2247  1.8155 -1.4988
  131OSM   C16F14192   6.298   6.163   7.483 -0.4132 -0.1011  0.4913
  131OSM   H16F14193   6.309   6.255   7.422  0.6037 -0.2001  0.5059
  131OSM   H16G14194   6.360   6.076   7.455  1.8529  1.3920  0.6341
  131OSM   C17F14195   6.351   6.189   7.626  0.1891  0.4527  1.0785
  131OSM   H17F14196   6.460   6.169   7.618 -0.0873 -0.3256 -1.4782
  131OSM   H17G14197   6.306   6.121   7.702  0.3336  0.9580  1.6294
  131OSM   C18F14198   6.324   6.336   7.668  0.1594  0.0748 -0.1850
  131OSM   H18F14199   6.361   6.342   7.773  3.2968  0.1721 -1.1814
  131OSM   H18G14200   6.218   6.368   7.661  0.6892  1.5339 -2.2367
  131OSM   H18H14201   6.376   6.409   7.603 -0.0631  0.7192  0.3511
  132OSM      N14202   1.715   1.808   6.051 -0.3027  0.1669  0.4908
  132OSM    C1514203   1.584   1.736   6.034  0.3114 -0.2255 -0.4546
  132OSM   H15A14204   1.569   1.659   6.108  2.0940 -1.7713 -1.6160
  132OSM   H15B14205   1.587   1.686   5.938 -0.0674 -1.3234  0.0903
  132OSM   H15C14206   1.502   1.807   6.027  1.3441  1.0215 -0.1913
  132OSM    C1414207   1.831   1.714   6.004 -0.2778 -0.3140 -0.3180
  132OSM   H14A14208   1.922   1.771   6.010  2.5967 -4.4948 -0.0286
  132OSM   H14B14209   1.826   1.680   5.902  0.8734  0.3623 -0.6085
  132OSM   H14C14210   1.840   1.630   6.072 -0.9178 -0.1865 -0.0670
  132OSM    C1314211   1.718   1.927   5.963 -0.0703  0.0544  0.0390
  132OSM   H13A14212   1.672   2.010   6.014  1.4205  0.0555  1.4562
  132OSM   H13B14213   1.678   1.897   5.867  0.1733 -0.1712  0.0073
  132OSM   H13C14214   1.821   1.955   5.946  0.4100 -2.9885 -3.5177
  132OSM    C1214215   1.738   1.846   6.196 -0.7316 -0.3040 -0.1125
  132OSM   H12A14216   1.700   1.765   6.257 -0.2374 -0.6071 -0.2025
  132OSM   H12B14217   1.663   1.920   6.221  0.9976  1.0872  1.1820
  132OSM    C1114218   1.879   1.889   6.240  0.4763  0.6758  0.7056
  132OSM   H11A14219   1.941   1.800   6.219 -0.9392  0.1191 -1.3871
  132OSM   H11B14220   1.883   1.915   6.348  0.4446 -1.4008  1.2432
  132OSM      P14221   2.084   2.014   6.138 -0.1452  0.1683  0.0994
  132OSM    O1314222   2.126   1.910   6.038  0.4487  0.4497 -0.1121
  132OSM    O1414223   2.111   2.150   6.095  0.2242 -0.1221 -0.1598
  132OSM    O1114224   2.155   1.983   6.276 -0.6270  0.1560  0.0849
  132OSM    O1214225   1.930   1.998   6.163 -0.0131  0.1540  0.2127
  132OSM    C1S14226   2.152   2.088   6.382  0.9506 -0.3046 -0.5716
  132OSM    H1S14227   2.048   2.127   6.382  0.3473 -1.8386 -0.5743
  132OSM    H1T14228   2.229   2.167   6.372  2.3081 -1.7370 -2.0802
  132OSM     NF14229   2.140   2.109   6.632 -0.2456 -0.2481  0.4972
  132OSM    HNF14230   2.222   2.149   6.674 -1.1410  1.0268  1.1317
  132OSM    C2S14231   2.162   2.014   6.520 -0.2672 -0.5519  0.0695
  132OSM    H2S14232   2.084   1.935   6.520 -1.4411  0.4977 -1.9268
  132OSM    C3S14233   2.299   1.938   6.541 -0.7443 -0.1828  0.6449
  132OSM    H3S14234   2.379   2.015   6.531 -1.2346  0.5459  2.0556
  132OSM     O314235   2.328   1.842   6.428 -0.6888  0.7247  0.4656
  132OSM    HO314236   2.293   1.879   6.347 -1.3966 -2.9901 -1.1249
  132OSM    C4S14237   2.315   1.861   6.668 -0.4212  0.1471 -0.4318
  132OSM    H4S14238   2.234   1.792   6.694 -0.4069  0.8380  1.5976
  132OSM    C5S14239   2.406   1.885   6.766  0.7872  0.1525 -0.2804
  132OSM    H5S14240   2.475   1.970   6.765 -0.7623  1.4534 -1.5631
  132OSM    C6S14241   2.410   1.812   6.898  0.3407  0.4998  0.0437
  132OSM    H6S14242   2.514   1.785   6.927 -0.1734 -3.2423 -1.0181
  132OSM    H6T14243   2.353   1.718   6.879  0.4610  0.3033  0.6211
  132OSM    C7S14244   2.349   1.888   7.021 -0.3079  0.0159  0.8236
  132OSM    H7S14245   2.246   1.924   7.000 -0.7421 -0.7005  1.6538
  132OSM    H7T14246   2.415   1.977   7.022  0.2642 -0.3559 -1.0254
  132OSM    C8S14247   2.345   1.807   7.149 -0.4282 -0.9877  0.0871
  132OSM    H8S14248   2.335   1.698   7.127  1.3601 -1.8035  2.7559
  132OSM    H8T14249   2.271   1.850   7.219 -0.8369  0.4142 -1.1527
  132OSM    C9S14250   2.486   1.807   7.223  0.5393  0.1937  0.3873
  132OSM    H9S14251   2.534   1.904   7.199  1.7869 -1.1062 -2.9784
  132OSM    H9T14252   2.563   1.738   7.182  0.5587 -0.8317  2.0639
  132OSM   C10S14253   2.486   1.794   7.376  0.3347 -0.2476  0.4443
  132OSM   H10S14254   2.554   1.711   7.405 -0.5022 -1.2971 -0.5045
  132OSM   H10T14255   2.384   1.769   7.413  0.4531  0.1122  1.0176
  132OSM   C11S14256   2.521   1.924   7.448 -0.1505 -0.9328 -0.5738
  132OSM   H11S14257   2.486   2.011   7.388  0.3424 -0.7169 -0.5508
  132OSM   H11T14258   2.631   1.929   7.460 -0.3244 -2.4053  2.5503
  132OSM   C12S14259   2.474   1.920   7.598  0.5703 -0.9084  0.9408
  132OSM   H12S14260   2.364   1.932   7.589  0.8811  1.6650 -0.3217
  132OSM   H12T14261   2.520   2.008   7.647  2.3607 -0.5572 -1.2234
  132OSM   C13S14262   2.522   1.799   7.673 -0.4375 -0.0128  0.3275
  132OSM   H13S14263   2.633   1.793   7.671 -0.4276 -0.2206  1.1549
  132OSM   H13T14264   2.490   1.700   7.633 -1.5811  0.0745  0.9726
  132OSM   C14S14265   2.465   1.807   7.821 -0.1898  0.0191  0.7487
  132OSM   H14S14266   2.471   1.911   7.860 -3.5000  0.0567  1.4771
  132OSM   H14T14267   2.534   1.743   7.880  1.3607 -1.1500 -2.1462
  132OSM   C15S14268   2.323   1.761   7.844  0.5015 -0.1261 -0.5029
  132OSM   H15S14269   2.334   1.651   7.827  0.9022 -0.1975  0.1795
  132OSM   H15T14270   2.240   1.800   7.781 -0.7899 -0.8598  0.6944
  132OSM   C16S14271   2.270   1.773   7.990 -1.3006  0.1862 -1.0417
  132OSM   H16S14272   2.237   1.873   8.025 -0.9933 -0.0079 -0.1755
  132OSM   H16T14273   2.351   1.750   8.062 -2.1560 -1.8274 -0.6406
  132OSM   C17S14274   2.152   1.679   8.014  0.1082 -0.6846  0.2624
  132OSM   H17S14275   2.185   1.574   8.008 -0.5823 -1.2287  4.0255
  132OSM   H17T14276   2.083   1.688   7.927  0.2566 -0.4627  0.1647
  132OSM   C18S14277   2.069   1.699   8.135 -0.3568  0.4599  0.5085
  132OSM   H18S14278   1.998   1.613   8.134  1.1731 -0.8677  0.9514
  132OSM   H18T14279   2.009   1.790   8.117 -0.0941  0.6164  0.4121
  132OSM   H18U14280   2.134   1.707   8.225 -2.0577 -1.0894  1.9527
  132OSM    C1F14281   2.022   2.169   6.639  0.0892 -0.0356 -0.0762
  132OSM     OF14282   1.914   2.138   6.581  0.0123 -0.4805 -0.7075
  132OSM    C2F14283   2.011   2.281   6.737  0.3996  0.6899 -0.4363
  132OSM    H2F14284   1.921   2.338   6.705  0.6014  2.1832  1.4414
  132OSM    H2G14285   2.091   2.359   6.728 -0.2803  1.6320  1.2052
  132OSM    C3F14286   1.992   2.223   6.882 -0.1569 -0.5943  0.7540
  132OSM    H3F14287   2.070   2.160   6.929 -0.9045 -1.3612  0.9935
  132OSM    H3G14288   1.903   2.157   6.883 -1.0012  0.5071  2.5572
  132OSM    C4F14289   1.955   2.323   6.983  0.2796 -0.0998 -0.0118
  132OSM    H4F14290   1.873   2.389   6.947 -0.9141 -0.2626  2.2240
  132OSM    H4G14291   2.040   2.388   7.013  0.1237  0.3738 -0.5859
  132OSM    C5F14292   1.906   2.246   7.105  0.4027  0.9069  0.1026
  132OSM    H5F14293   1.990   2.202   7.165 -0.1311  1.4565  1.2847
  132OSM    H5G14294   1.832   2.171   7.071  1.4192  0.0134 -0.1999
  132OSM    C6F14295   1.829   2.335   7.205  0.5016 -0.0263  0.3925
  132OSM    H6F14296   1.751   2.385   7.143  2.0306  1.4872 -0.4267
  132OSM    H6G14297   1.895   2.418   7.238  1.0078 -0.5351  0.6593
  132OSM    C7F14298   1.791   2.259   7.327 -0.6561  0.1989  0.9878
  132OSM    H7F14299   1.884   2.210   7.360  1.5576  2.0315 -1.9887
  132OSM    H7G14300   1.720   2.190   7.277 -1.2678  0.6926  1.1452
  132OSM    C8F14301   1.707   2.323   7.436  0.2899 -0.1214  0.1141
  132OSM    H8F14302   1.609   2.349   7.390  0.1954 -0.5964  0.0430
  132OSM    H8G14303   1.745   2.421   7.473 -1.3332  0.2264  0.9439
  132OSM    C9F14304   1.695   2.231   7.557 -0.0899 -0.5621  0.0420
  132OSM    H9F14305   1.685   2.125   7.529 -0.0723  0.0993 -2.7987
  132OSM   C10F14306   1.680   2.275   7.683 -0.5384  0.5102  0.0529
  132OSM   H10F14307   1.668   2.200   7.763 -1.1121 -0.4846 -0.9231
  132OSM   C11F14308   1.683   2.415   7.738 -0.1751  0.7350 -0.0002
  132OSM   H11F14309   1.579   2.442   7.766 -0.1007  2.1200 -1.0046
  132OSM   H11G14310   1.711   2.485   7.657  1.6450 -0.1818 -0.2134
  132OSM   C12F14311   1.774   2.424   7.865 -0.0059  0.2373  0.5325
  132OSM   H12F14312   1.881   2.412   7.837  0.3051  1.8941  0.9166
  132OSM   H12G14313   1.747   2.344   7.936 -0.3114 -0.7691 -0.6814
  132OSM   C13F14314   1.770   2.556   7.950 -0.0589 -0.2376  0.0010
  132OSM   H13F14315   1.664   2.579   7.974  0.2030  0.8556  0.1815
  132OSM   H13G14316   1.817   2.637   7.889 -0.0766  0.5119  0.9614
  132OSM   C14F14317   1.852   2.545   8.083  0.3223 -0.4432  0.6052
  132OSM   H14F14318   1.960   2.533   8.062  0.1867 -0.5866 -0.0303
  132OSM   H14G14319   1.828   2.455   8.145  2.6076 -1.3869  0.2097
  132OSM   C15F14320   1.837   2.671   8.172 -0.4194  0.1898  0.0359
  132OSM   H15F14321   1.732   2.683   8.209 -0.3322  1.2208 -0.0409
  132OSM   H15G14322   1.873   2.763   8.122  0.8235  1.3620  2.9058
  132OSM   C16F14323   1.922   2.654   8.296 -0.1081  0.1857 -0.0962
  132OSM   H16F14324   1.938   2.750   8.349  2.2869  0.5444 -1.3570
  132OSM   H16G14325   2.023   2.624   8.262  0.1694  0.8160  0.1553
  132OSM   C17F14326   1.872   2.556   8.408 -0.8988 -0.3385  0.5999
  132OSM   H17F14327   1.932   2.471   8.368  2.2979  2.3289 -0.7898
  132OSM   H17G14328   1.765   2.539   8.384 -0.3384 -0.3458 -2.3252
  132OSM   C18F14329   1.905   2.585   8.557  0.5263  0.7670  0.8734
  132OSM   H18F14330   2.014   2.608   8.560  0.8234 -0.1262 -1.3326
  132OSM   H18G14331   1.889   2.492   8.615  0.4108  0.2399  0.0134
  132OSM   H18H14332   1.840   2.666   8.596  0.3777  0.5025  1.1728
  133OSM      N14333   2.923   2.746   6.362 -0.7970  0.0483 -0.0056
  133OSM    C1514334   2.946   2.779   6.215  0.2500  0.1309  0.4741
  133OSM   H15A14335   2.942   2.689   6.156 -1.0486 -0.3333  1.2092
  133OSM   H15B14336   3.046   2.818   6.207  0.5818 -0.5466  1.1925
  133OSM   H15C14337   2.879   2.849   6.166  0.8693 -0.9212 -1.9975
  133OSM    C1414338   3.040   2.675   6.414 -0.3131  0.7441 -0.1959
  133OSM   H14A14339   3.132   2.730   6.398 -0.6515  2.3437  2.6835
  133OSM   H14B14340   3.043   2.575   6.372 -1.7772  1.0034 -0.9971
  133OSM   H14C14341   3.034   2.658   6.520 -2.0859  1.6119 -0.1268
  133OSM    C1314342   2.907   2.870   6.446  0.2671  0.8545 -0.6391
  133OSM   H13A14343   2.827   2.925   6.399 -1.5711 -1.5085 -0.4702
  133OSM   H13B14344   2.993   2.935   6.453  1.3517 -0.5794 -0.2352
  133OSM   H13C14345   2.886   2.833   6.545 -0.7049 -0.8144 -1.4199
  133OSM    C1214346   2.809   2.652   6.371 -0.3074  1.4111  0.4550
  133OSM   H12A14347   2.796   2.601   6.465 -2.7046 -2.7026 -1.8137
  133OSM   H12B14348   2.825   2.566   6.308  1.1090  2.5177 -0.7852
  133OSM    C1114349   2.672   2.701   6.347  0.7999  0.6251  0.3736
  133OSM   H11A14350   2.659   2.744   6.245  3.3701  0.5152 -0.0483
  133OSM   H11B14351   2.644   2.784   6.416 -1.4567  0.5578 -0.3652
  133OSM      P14352   2.565   2.475   6.276  0.2334  0.0941 -0.2128
  133OSM    O1314353   2.439   2.485   6.200 -0.4110 -0.0933  0.2397
  133OSM    O1414354   2.686   2.467   6.191 -0.1243  0.1093 -0.5138
  133OSM    O1114355   2.553   2.360   6.389 -0.5535 -0.5064 -0.4474
  133OSM    O1214356   2.582   2.595   6.369  0.2034  0.5823 -0.1321
  133OSM    C1S14357   2.668   2.326   6.471  0.4573  0.4788  0.4298
  133OSM    H1S14358   2.759   2.385   6.446 -1.4075  3.3354 -0.2185
  133OSM    H1T14359   2.689   2.217   6.470 -1.2857  0.0767  2.0200
  133OSM     NF14360   2.750   2.324   6.705  0.2522 -0.0602  0.5546
  133OSM    HNF14361   2.750   2.240   6.758  3.0533  0.1275  1.0008
  133OSM    C2S14362   2.632   2.355   6.621 -0.8698  0.2427 -0.2911
  133OSM    H2S14363   2.608   2.463   6.631 -0.0140  0.2989  1.6090
  133OSM    C3S14364   2.515   2.273   6.670 -0.9549  0.1127  0.5088
  133OSM    H3S14365   2.538   2.165   6.663 -0.9850  0.2335 -2.6910
  133OSM     O314366   2.397   2.290   6.589  0.9154  0.5201  0.4280
  133OSM    HO314367   2.427   2.348   6.519 -0.7695  0.4704 -0.3835
  133OSM    C4S14368   2.487   2.300   6.808 -0.2564 -0.0078  0.4546
  133OSM    H4S14369   2.468   2.404   6.840 -0.7026 -0.3328  1.3043
  133OSM    C5S14370   2.487   2.214   6.914  0.1234 -0.9482  0.6759
  133OSM    H5S14371   2.515   2.109   6.896 -0.2062 -1.0935  1.0016
  133OSM    C6S14372   2.459   2.247   7.058 -0.5174  1.0584 -0.4019
  133OSM    H6S14373   2.503   2.345   7.087  3.7030 -0.7885  0.1651
  133OSM    H6T14374   2.505   2.172   7.126 -1.5002 -0.0653 -0.9384
  133OSM    C7S14375   2.307   2.257   7.100 -0.2048 -0.7277  0.5953
  133OSM    H7S14376   2.282   2.150   7.110 -0.5938 -0.7453 -0.4290
  133OSM    H7T14377   2.255   2.300   7.012  0.8715  1.7559  1.0655
  133OSM    C8S14378   2.283   2.343   7.226 -0.8550  0.2403 -0.4073
  133OSM    H8S14379   2.174   2.349   7.247 -0.4148 -0.3948  2.6616
  133OSM    H8T14380   2.312   2.446   7.196  1.2108 -1.2468 -4.0684
  133OSM    C9S14381   2.375   2.295   7.344  0.7061 -0.9743  0.6094
  133OSM    H9S14382   2.484   2.312   7.330  0.5054 -0.4287 -0.3842
  133OSM    H9T14383   2.349   2.188   7.356  0.5524 -0.7738  2.3826
  133OSM   C10S14384   2.329   2.367   7.469  0.2969  0.7254  0.8499
  133OSM   H10S14385   2.223   2.342   7.491 -0.0434  2.7940  1.7503
  133OSM   H10T14386   2.335   2.478   7.466 -2.5686  1.0062  2.2419
  133OSM   C11S14387   2.408   2.328   7.599 -0.8303  1.2428  0.9372
  133OSM   H11S14388   2.518   2.317   7.589 -0.8225  1.3066  0.9526
  133OSM   H11T14389   2.388   2.219   7.605 -0.8356  1.2684  1.4534
  133OSM   C12S14390   2.359   2.394   7.719 -0.0376 -0.0585  0.7099
  133OSM   H12S14391   2.355   2.502   7.691 -0.3363  0.0865  1.2784
  133OSM   H12T14392   2.440   2.383   7.794  0.9926  1.8475 -0.0481
  133OSM   C13S14393   2.225   2.350   7.767  0.4214 -0.3222 -0.2673
  133OSM   H13S14394   2.206   2.241   7.776  1.8643 -0.7353 -1.7112
  133OSM   H13T14395   2.148   2.388   7.697  0.1366 -0.5881 -0.1017
  133OSM   C14S14396   2.195   2.418   7.906 -0.0252  0.5063 -0.1827
  133OSM   H14S14397   2.085   2.409   7.920 -0.1682 -2.3500 -2.1841
  133OSM   H14T14398   2.241   2.518   7.902  2.3963 -0.5808 -1.8098
  133OSM   C15S14399   2.252   2.337   8.023  0.5783  0.1234  0.7309
  133OSM   H15S14400   2.360   2.359   8.037  1.2664 -1.0962 -1.9894
  133OSM   H15T14401   2.230   2.232   7.996 -0.0611  0.7622 -1.4761
  133OSM   C16S14402   2.182   2.370   8.159 -0.5634 -0.6702 -0.2835
  133OSM   H16S14403   2.075   2.339   8.147 -0.5018 -1.0129  0.0557
  133OSM   H16T14404   2.189   2.477   8.189  0.8512 -0.8199 -0.0231
  133OSM   C17S14405   2.229   2.271   8.275  0.0573 -0.4040 -0.1168
  133OSM   H17S14406   2.178   2.305   8.368  1.1673  0.5990  0.1538
  133OSM   H17T14407   2.337   2.284   8.293 -0.3819 -0.8619  3.6679
  133OSM   C18S14408   2.203   2.133   8.245 -0.1816 -0.0258  0.0070
  133OSM   H18S14409   2.149   2.075   8.324  0.1983 -0.8231 -0.2999
  133OSM   H18T14410   2.300   2.083   8.223  0.7912  0.8090  2.0756
  133OSM   H18U14411   2.133   2.119   8.160 -0.1627  1.2645 -0.2268
  133OSM    C1F14412   2.860   2.394   6.698  0.7242  0.2319  0.5091
  133OSM     OF14413   2.867   2.494   6.631  0.0604 -0.2142 -0.1815
  133OSM    C2F14414   2.982   2.342   6.770 -0.0212  0.6272  0.1699
  133OSM    H2F14415   3.071   2.354   6.705 -1.3397  1.8147 -1.5112
  133OSM    H2G14416   2.976   2.235   6.800  1.0278  0.8554  1.2388
  133OSM    C3F14417   3.009   2.423   6.897  0.2660 -0.6299 -0.0053
  133OSM    H3F14418   2.918   2.399   6.957  0.0023 -0.1630 -0.2133
  133OSM    H3G14419   3.009   2.534   6.885  0.4100 -0.1867  3.1761
  133OSM    C4F14420   3.139   2.376   6.973 -0.3166 -0.3929 -0.7351
  133OSM    H4F14421   3.214   2.356   6.894 -0.8393 -0.3768 -1.2489
  133OSM    H4G14422   3.137   2.275   7.019  0.6251  0.5736  1.5579
  133OSM    C5F14423   3.174   2.476   7.084  0.0955  0.3534 -0.3608
  133OSM    H5F14424   3.159   2.579   7.046 -0.6299  0.9406  1.3911
  133OSM    H5G14425   3.277   2.461   7.124 -1.2920  0.3159  3.7002
  133OSM    C6F14426   3.073   2.467   7.196  0.0009  0.3518  0.1735
  133OSM    H6F14427   3.097   2.374   7.252 -2.7234 -1.1318 -0.9611
  133OSM    H6G14428   2.970   2.454   7.156 -0.7815  1.1913  1.7727
  133OSM    C7F14429   3.063   2.589   7.294  0.2443  0.6180  0.2709
  133OSM    H7F14430   2.991   2.575   7.377  0.4749 -0.2148  0.3426
  133OSM    H7G14431   3.035   2.677   7.233  1.5922  1.2456  0.5242
  133OSM    C8F14432   3.194   2.631   7.368  0.4253 -0.1786  0.3838
  133OSM    H8F14433   3.184   2.729   7.420  1.0989 -0.0856  0.3544
  133OSM    H8G14434   3.271   2.648   7.290 -0.0036  1.2104  0.2325
  133OSM    C9F14435   3.256   2.527   7.458 -0.1656 -0.7137  0.1015
  133OSM    H9F14436   3.286   2.437   7.401  0.0831  0.1495 -1.1960
  133OSM   C10F14437   3.292   2.531   7.583 -0.1047 -0.1820 -0.0449
  133OSM   H10F14438   3.323   2.437   7.631  1.3230 -0.1518 -0.8649
  133OSM   C11F14439   3.281   2.647   7.681  0.6677  0.1369  0.5169
  133OSM   H11F14440   3.241   2.736   7.629  3.0372  0.2977 -1.1783
  133OSM   H11G14441   3.375   2.656   7.740  0.5582 -1.1854  0.9279
  133OSM   C12F14442   3.178   2.591   7.795  0.5592 -0.0083  0.1357
  133OSM   H12F14443   3.219   2.494   7.831  1.7338  0.5489  0.3522
  133OSM   H12G14444   3.075   2.572   7.760  0.0242  1.1163  1.0572
  133OSM   C13F14445   3.152   2.684   7.914  0.2647 -0.7174  0.0949
  133OSM   H13F14446   3.084   2.767   7.885 -2.4086 -2.6774  0.2747
  133OSM   H13G14447   3.250   2.718   7.953  0.1037 -0.4903  0.3103
  133OSM   C14F14448   3.083   2.614   8.034 -0.2700  0.0645  0.0796
  133OSM   H14F14449   3.126   2.517   8.064 -0.6727 -0.0173  0.4032
  133OSM   H14G14450   2.987   2.570   8.001 -1.0554  2.0082 -0.4066
  133OSM   C15F14451   3.067   2.705   8.165 -0.0731 -0.0564 -0.3792
  133OSM   H15F14452   3.004   2.796   8.156  2.0264  1.8169  2.4164
  133OSM   H15G14453   3.172   2.734   8.185 -0.3868  0.3938  0.6582
  133OSM   C16F14454   3.003   2.627   8.280  0.3377 -0.4728 -0.3565
  133OSM   H16F14455   3.081   2.561   8.323 -0.9685 -0.9232  1.4432
  133OSM   H16G14456   2.922   2.558   8.246 -0.0885  0.8062 -2.1129
  133OSM   C17F14457   2.941   2.719   8.388  0.3733  0.0788  0.7990
  133OSM   H17F14458   3.006   2.808   8.396  0.1273  0.7914 -3.0727
  133OSM   H17G14459   2.949   2.660   8.481 -0.3141 -1.7217 -0.2250
  133OSM   C18F14460   2.799   2.766   8.364 -0.0875  0.6658  0.2391
  133OSM   H18F14461   2.797   2.801   8.259  4.1656  0.6180 -0.0562
  133OSM   H18G14462   2.777   2.846   8.438  2.9252  0.0643  1.9414
  133OSM   H18H14463   2.736   2.677   8.385  0.3376  0.4885  0.8199
  134OSM      N14464   2.193   0.599   6.391  0.3409 -0.5034 -0.2047
  134OSM    C1514465   2.065   0.687   6.352  0.1318  0.2265  0.3369
  134OSM   H15A14466   2.074   0.787   6.394  0.6876  0.7587 -0.9975
  134OSM   H15B14467   1.979   0.637   6.392  0.2382 -0.7697 -0.6551
  134OSM   H15C14468   2.045   0.698   6.247 -0.1058 -0.1148  0.3442
  134OSM    C1414469   2.175   0.475   6.308 -0.4977  0.4342 -0.3539
  134OSM   H14A14470   2.075   0.436   6.320 -1.6709  2.3390 -2.9113
  134OSM   H14B14471   2.255   0.404   6.324  0.1928  0.6301 -2.5660
  134OSM   H14C14472   2.185   0.496   6.202  2.0061  1.0303 -0.0768
  134OSM    C1314473   2.327   0.668   6.360  0.1124  0.0887 -0.2245
  134OSM   H13A14474   2.333   0.751   6.429  0.1686 -0.1488  0.0601
  134OSM   H13B14475   2.331   0.701   6.257 -1.7000  0.2431 -0.2758
  134OSM   H13C14476   2.413   0.605   6.378  0.3341  0.5519  0.3833
  134OSM    C1214477   2.188   0.578   6.541  0.2847  0.2348 -0.0601
  134OSM   H12A14478   2.087   0.549   6.566 -0.2795  1.0304 -1.3295
  134OSM   H12B14479   2.192   0.676   6.585  1.0052  1.5787 -2.8854
  134OSM    C1114480   2.283   0.463   6.599 -0.1041 -0.1822  0.0960
  134OSM   H11A14481   2.290   0.473   6.710  0.2037 -0.0917  0.0667
  134OSM   H11B14482   2.385   0.492   6.568 -1.3985  2.9642 -1.8194
  134OSM      P14483   2.144   0.246   6.608  0.3127 -0.1440  0.0749
  134OSM    O1314484   2.026   0.332   6.625  0.4673  0.0531  0.2350
  134OSM    O1414485   2.115   0.128   6.528 -0.2832  0.3456  0.1690
  134OSM    O1114486   2.201   0.202   6.752 -0.1264  0.0585 -0.1245
  134OSM    O1214487   2.258   0.326   6.550 -0.9450  0.2297 -0.8099
  134OSM    C1S14488   2.332   0.147   6.756 -0.7302  1.2830 -1.1439
  134OSM    H1S14489   2.402   0.224   6.715  0.8755  1.1160  1.1095
  134OSM    H1T14490   2.347   0.050   6.704 -1.3331  1.2689 -1.2953
  134OSM     NF14491   2.515   0.093   6.905  0.2915 -0.2231 -0.3997
  134OSM    HNF14492   2.551  -0.000   6.909  1.4176  0.2345  2.9944
  134OSM    C2S14493   2.377   0.116   6.900  0.0774 -0.1948 -0.6638
  134OSM    H2S14494   2.351   0.203   6.964  1.1993 -0.0416 -0.3975
  134OSM    C3S14495   2.291  -0.005   6.950  0.6302  0.2284 -0.9254
  134OSM    H3S14496   2.302  -0.085   6.873 -0.0791 -0.9730  0.1884
  134OSM     O314497   2.156   0.030   6.946  0.1967  0.6129 -0.8636
  134OSM    HO314498   2.146   0.098   6.879 -3.3037  1.2875  0.1146
  134OSM    C4S14499   2.335  -0.052   7.098 -0.1208 -0.4506  0.2807
  134OSM    H4S14500   2.433  -0.102   7.101  0.5519  0.7503 -0.9646
  134OSM    C5S14501   2.261  -0.050   7.212 -0.3555  0.0785  0.3268
  134OSM    H5S14502   2.156  -0.017   7.204 -0.5235 -0.6293 -0.5484
  134OSM    C6S14503   2.314  -0.105   7.342 -0.0633 -0.7886  0.4234
  134OSM    H6S14504   2.422  -0.126   7.354 -0.0111 -2.5060 -2.2467
  134OSM    H6T14505   2.261  -0.199   7.370 -3.0757  0.5625 -0.3140
  134OSM    C7S14506   2.266  -0.014   7.459 -0.1769 -0.1046 -0.5209
  134OSM    H7S14507   2.156  -0.008   7.465 -0.5169 -0.2594 -4.1514
  134OSM    H7T14508   2.293   0.093   7.445 -0.6373 -0.0872 -1.3025
  134OSM    C8S14509   2.331  -0.051   7.595  0.0086 -0.3461  0.2753
  134OSM    H8S14510   2.330   0.043   7.654  1.7969 -0.4399  0.4971
  134OSM    H8T14511   2.433  -0.091   7.575  0.3773  1.1592 -1.0035
  134OSM    C9S14512   2.236  -0.146   7.672 -0.5188  0.3903  0.4118
  134OSM    H9S14513   2.248  -0.249   7.632 -0.3178  0.0600  1.2862
  134OSM    H9T14514   2.127  -0.122   7.669 -0.1045  2.4572  0.3566
  134OSM   C10S14515   2.265  -0.164   7.819 -0.1956 -0.4309  0.5198
  134OSM   H10S14516   2.368  -0.205   7.834 -0.4035 -0.8740  0.7367
  134OSM   H10T14517   2.189  -0.233   7.860  0.0899  0.2701  2.3298
  134OSM   C11S14518   2.260  -0.037   7.906  0.1363 -0.6245  0.1304
  134OSM   H11S14519   2.160   0.011   7.898  0.7801  0.5083 -1.7642
  134OSM   H11T14520   2.334   0.041   7.880 -1.8194  1.0382 -0.7727
  134OSM   C12S14521   2.303  -0.072   8.054  0.0863 -0.0205 -0.1661
  134OSM   H12S14522   2.409  -0.105   8.048  0.7539  1.6055  1.8671
  134OSM   H12T14523   2.235  -0.145   8.103  0.1434 -0.7271 -1.1144
  134OSM   C13S14524   2.310   0.062   8.143 -0.0421  0.2861  0.2285
  134OSM   H13S14525   2.241   0.142   8.109 -0.4201 -0.7402 -1.5120
  134OSM   H13T14526   2.412   0.107   8.149 -0.3773  1.1544 -0.3966
  134OSM   C14S14527   2.275   0.040   8.292 -0.9587 -0.3171 -0.6055
  134OSM   H14S14528   2.349  -0.033   8.331  0.0502  1.7376  1.5265
  134OSM   H14T14529   2.177  -0.013   8.283 -0.1397 -2.1237  0.5440
  134OSM   C15S14530   2.261   0.166   8.374  0.5460 -0.1836 -0.6484
  134OSM   H15S14531   2.228   0.249   8.308  0.4644 -0.3235 -0.7843
  134OSM   H15T14532   2.361   0.184   8.420 -0.6147 -1.1704  2.5476
  134OSM   C16S14533   2.163   0.156   8.488  0.2932  0.4541 -0.0624
  134OSM   H16S14534   2.069   0.128   8.435 -0.6613  0.2075  1.6757
  134OSM   H16T14535   2.152   0.258   8.530  1.3163 -0.2919  2.1621
  134OSM   C17S14536   2.195   0.047   8.597 -0.1011  0.1088 -0.2731
  134OSM   H17S14537   2.213  -0.054   8.556 -0.4569 -1.2190  2.6042
  134OSM   H17T14538   2.107   0.048   8.664 -0.1551 -0.6399 -0.3257
  134OSM   C18S14539   2.323   0.091   8.681  0.0584 -0.4534 -0.0184
  134OSM   H18S14540   2.323   0.192   8.727  0.6460  0.5494 -2.0933
  134OSM   H18T14541   2.408   0.082   8.610  0.6840 -1.4733  0.8290
  134OSM   H18U14542   2.340   0.022   8.766  0.8294  0.9674  1.0256
  134OSM    C1F14543   2.605   0.185   6.877 -0.9383  0.3914  0.2515
  134OSM     OF14544   2.576   0.302   6.842 -0.5520  0.5556  0.4130
  134OSM    C2F14545   2.749   0.152   6.882  0.4809 -0.0443 -0.0709
  134OSM    H2F14546   2.799   0.197   6.793 -1.8492  1.0301 -0.9014
  134OSM    H2G14547   2.768   0.043   6.871 -0.0925 -0.1645  0.1054
  134OSM    C3F14548   2.810   0.187   7.019 -0.8870 -0.3565  0.7333
  134OSM    H3F14549   2.826   0.296   7.036  0.5988 -0.4576  0.1447
  134OSM    H3G14550   2.914   0.149   7.009 -0.2893  1.6798 -1.6891
  134OSM    C4F14551   2.749   0.117   7.144 -0.1691 -0.4780 -0.1099
  134OSM    H4F14552   2.766   0.008   7.136 -0.9764 -0.6148 -0.0598
  134OSM    H4G14553   2.641   0.136   7.162 -0.0028 -1.3158  2.1774
  134OSM    C5F14554   2.816   0.150   7.281 -0.2795 -0.4213  0.2757
  134OSM    H5F14555   2.800   0.260   7.289 -0.1448 -0.2613 -1.2567
  134OSM    H5G14556   2.927   0.146   7.282 -0.1943 -0.2861  3.5504
  134OSM    C6F14557   2.757   0.076   7.401 -0.1979 -0.1392 -0.2993
  134OSM    H6F14558   2.787  -0.031   7.390  0.5613 -0.0738  0.9594
  134OSM    H6G14559   2.649   0.097   7.389 -0.0059  3.4096  2.4204
  134OSM    C7F14560   2.798   0.137   7.537 -0.0006 -0.7272  0.4005
  134OSM    H7F14561   2.784   0.246   7.526 -0.4723 -0.6943  1.2148
  134OSM    H7G14562   2.906   0.131   7.558  0.1231  0.4632  0.1673
  134OSM    C8F14563   2.717   0.086   7.654  0.1939 -0.1354  0.2439
  134OSM    H8F14564   2.607   0.103   7.645  0.2925  0.1148 -0.5742
  134OSM    H8G14565   2.743   0.157   7.735  0.8715  0.3205 -0.3594
  134OSM    C9F14566   2.760  -0.056   7.682 -0.2702 -0.3065  0.3603
  134OSM    H9F14567   2.750  -0.130   7.601 -0.7939  0.6179 -0.4347
  134OSM   C10F14568   2.820  -0.098   7.798  0.8857  0.4359  0.1930
  134OSM   H10F14569   2.851  -0.202   7.811  2.2529  0.9883  1.7113
  134OSM   C11F14570   2.855  -0.007   7.918  0.0034 -0.0788 -0.8075
  134OSM   H11F14571   2.864   0.100   7.891  3.3463 -0.3670 -1.2680
  134OSM   H11G14572   2.955  -0.033   7.960  0.6463  0.6118 -1.8543
  134OSM   C12F14573   2.747  -0.032   8.022 -0.0697  0.1774 -0.1091
  134OSM   H12F14574   2.768  -0.138   8.048  0.7860 -0.1520 -1.9790
  134OSM   H12G14575   2.643  -0.033   7.984  0.9290 -1.1221 -3.1402
  134OSM   C13F14576   2.749   0.060   8.151 -0.4656  0.2106 -0.4075
  134OSM   H13F14577   2.842   0.054   8.211 -1.1969  1.5091  0.9261
  134OSM   H13G14578   2.667   0.022   8.217  0.5459 -0.3000  0.5913
  134OSM   C14F14579   2.720   0.209   8.115 -0.6412 -0.0102  0.2074
  134OSM   H14F14580   2.615   0.222   8.082 -0.8377  2.5517  1.6106
  134OSM   H14G14581   2.791   0.246   8.038 -1.3772  0.5181 -0.2209
  134OSM   C15F14582   2.737   0.308   8.240  0.7447 -0.0479 -0.1194
  134OSM   H15F14583   2.733   0.413   8.202 -0.0791 -0.0608 -0.0775
  134OSM   H15G14584   2.838   0.279   8.277  0.0219 -1.7288  0.6238
  134OSM   C16F14585   2.624   0.301   8.347 -0.2359 -0.5486 -0.6892
  134OSM   H16F14586   2.619   0.197   8.386 -0.0986 -0.3465 -0.1289
  134OSM   H16G14587   2.531   0.333   8.296 -0.3775  2.6041  1.2624
  134OSM   C17F14588   2.649   0.389   8.472  0.5715 -0.5024  0.3763
  134OSM   H17F14589   2.555   0.378   8.529 -0.2557 -0.4630 -0.9421
  134OSM   H17G14590   2.658   0.493   8.432 -0.6195 -1.5964 -3.1533
  134OSM   C18F14591   2.774   0.356   8.558  0.2861 -0.4781  0.0264
  134OSM   H18F14592   2.774   0.250   8.593 -0.8131 -0.7201 -0.6571
  134OSM   H18G14593   2.780   0.424   8.646 -0.0505 -0.8908  0.3742
  134OSM   H18H14594   2.856   0.371   8.484  1.1998  0.0240  1.1104
  135OSM      N14595   1.804   6.531   6.350  0.1307 -0.8552  0.2220
  135OSM    C1514596   1.765   6.396   6.288 -0.7475  0.1559  0.5059
  135OSM   H15A14597   1.781   6.309   6.350  0.6644 -0.3600 -0.5338
  135OSM   H15B14598   1.816   6.368   6.197 -2.2251 -2.6641  0.4163
  135OSM   H15C14599   1.662   6.392   6.256 -0.5880  0.0439 -0.0001
  135OSM    C1414600   1.952   6.517   6.388  0.2118  0.0455  0.0302
  135OSM   H14A14601   2.022   6.508   6.306  1.1564  2.6097  0.4432
  135OSM   H14B14602   1.975   6.434   6.453 -0.5303  0.0094  0.2473
  135OSM   H14C14603   1.986   6.609   6.434  1.9165 -0.3971 -0.2616
  135OSM    C1314604   1.775   6.638   6.251  0.2937 -0.0575  0.5880
  135OSM   H13A14605   1.821   6.622   6.155 -1.6595  4.0206 -1.2527
  135OSM   H13B14606   1.816   6.734   6.279 -2.3545  1.2836  0.1314
  135OSM   H13C14607   1.670   6.644   6.227  0.1707 -0.0673  1.1002
  135OSM    C1214608   1.726   6.549   6.472  0.0511 -0.4700 -0.0291
  135OSM   H12A14609   1.771   6.628   6.530  3.1678 -0.0075 -2.8154
  135OSM   H12B14610   1.732   6.453   6.521  2.4086 -0.5144 -0.3045
  135OSM    C1114611   1.578   6.585   6.444  0.2623  0.3409  0.0874
  135OSM   H11A14612   1.522   6.555   6.534 -0.3388  0.6394 -0.1786
  135OSM   H11B14613   1.523   6.531   6.364 -0.0970  2.4975 -1.1981
  135OSM      P14614   1.618   6.839   6.496  0.2735 -0.2065  0.3426
  135OSM    O1314615   1.709   6.920   6.403 -0.0637  0.1542 -0.3618
  135OSM    O1414616   1.507   6.920   6.554 -0.0293  0.4620  0.0225
  135OSM    O1114617   1.701   6.782   6.615 -0.2185  0.3401  0.0421
  135OSM    O1214618   1.559   6.724   6.414 -0.0416 -0.0802  0.4843
  135OSM    C1S14619   1.790   6.868   6.682 -0.0568 -0.8451 -0.7248
  135OSM    H1S14620   1.767   6.976   6.670  0.1966 -0.7900 -0.7181
  135OSM    H1T14621   1.889   6.862   6.630 -1.2992  1.8728 -3.7927
  135OSM     NF14622   1.893   6.911   6.901 -0.4786 -0.2087  0.6928
  135OSM    HNF14623   1.982   6.873   6.921 -0.2257  0.2200  0.3988
  135OSM    C2S14624   1.795   6.831   6.831 -0.6857 -0.8483 -0.6762
  135OSM    H2S14625   1.694   6.851   6.872  0.0184  1.0840  0.2468
  135OSM    C3S14626   1.824   6.680   6.848 -0.2203 -0.6204  0.1911
  135OSM    H3S14627   1.915   6.653   6.790 -1.1683 -0.7235 -1.3215
  135OSM     O314628   1.715   6.595   6.797 -1.0241 -0.3662 -0.2164
  135OSM    HO314629   1.683   6.650   6.725 -0.1748 -1.3196 -1.3632
  135OSM    C4S14630   1.853   6.637   6.991 -0.4781 -0.2246 -0.2311
  135OSM    H4S14631   1.961   6.627   7.012 -0.6847  0.5569  1.2492
  135OSM    C5S14632   1.761   6.614   7.086  0.0247  0.1303 -0.1617
  135OSM    H5S14633   1.656   6.639   7.064  0.2062  0.1780 -1.0120
  135OSM    C6S14634   1.775   6.581   7.233  0.1794 -0.7067  0.1493
  135OSM    H6S14635   1.764   6.471   7.244  0.1606 -0.7622 -0.3970
  135OSM    H6T14636   1.694   6.626   7.295  1.4330  0.7141  0.8161
  135OSM    C7S14637   1.899   6.641   7.305  0.9000 -0.5308  0.5606
  135OSM    H7S14638   1.899   6.751   7.316 -2.1595 -0.3123 -0.5438
  135OSM    H7T14639   1.988   6.594   7.258  0.2823 -1.2487  0.0567
  135OSM    C8S14640   1.891   6.592   7.452 -0.2266  0.3442 -0.2481
  135OSM    H8S14641   1.988   6.607   7.502 -0.5624 -1.4460  1.0472
  135OSM    H8T14642   1.870   6.483   7.448  1.1094 -0.0794  2.4184
  135OSM    C9S14643   1.794   6.652   7.546  0.5494 -0.2777  0.2344
  135OSM    H9S14644   1.687   6.628   7.527  0.4332  0.5384 -0.1753
  135OSM    H9T14645   1.816   6.761   7.542  1.3565 -0.4483 -0.2265
  135OSM   C10S14646   1.816   6.614   7.695  0.4739  0.4751 -0.0442
  135OSM   H10S14647   1.740   6.672   7.751  1.5170  2.5543 -0.7103
  135OSM   H10T14648   1.913   6.659   7.723  1.2997 -0.5818 -1.1324
  135OSM   C11S14649   1.803   6.468   7.733  0.2233  0.5167 -0.3336
  135OSM   H11S14650   1.895   6.408   7.718  1.1069  1.3015  1.6305
  135OSM   H11T14651   1.714   6.433   7.678 -0.6373 -1.0707  1.9338
  135OSM   C12S14652   1.764   6.458   7.884  0.3507  0.2619  0.4041
  135OSM   H12S14653   1.755   6.351   7.910  0.5878  0.7538  2.6887
  135OSM   H12T14654   1.667   6.508   7.907 -0.5582 -1.0296 -0.4685
  135OSM   C13S14655   1.881   6.517   7.969 -0.0916  0.4035  0.7867
  135OSM   H13S14656   1.897   6.626   7.955 -0.1623  0.4587  1.1253
  135OSM   H13T14657   1.982   6.475   7.948 -0.5405 -0.8346  1.0141
  135OSM   C14S14658   1.850   6.486   8.116 -0.0486 -0.2815  0.9752
  135OSM   H14S14659   1.796   6.389   8.117  0.0187 -0.3417  2.9580
  135OSM   H14T14660   1.792   6.574   8.152 -1.8968 -1.1919  0.3475
  135OSM   C15S14661   1.975   6.472   8.194  0.0227 -0.0135  0.0140
  135OSM   H15S14662   2.046   6.554   8.172 -0.9967  0.5154 -1.5050
  135OSM   H15T14663   2.029   6.384   8.156 -0.5753  0.4309 -1.9672
  135OSM   C16S14664   1.942   6.451   8.343 -0.5826 -0.6449  0.3236
  135OSM   H16S14665   1.910   6.349   8.371  1.9682 -1.1031  1.9726
  135OSM   H16T14666   1.862   6.520   8.379  1.0758  2.1213 -0.9267
  135OSM   C17S14667   2.073   6.467   8.425 -0.6405 -0.6833  0.4666
  135OSM   H17S14668   2.107   6.572   8.422  0.2960 -0.9898 -0.1052
  135OSM   H17T14669   2.151   6.402   8.379  0.4068 -0.3490  1.6910
  135OSM   C18S14670   2.068   6.430   8.575  0.0482  0.2453 -0.1914
  135OSM   H18S14671   2.159   6.457   8.632 -0.5626 -0.4331  1.1438
  135OSM   H18T14672   2.050   6.321   8.588 -0.3110  0.2316 -0.7607
  135OSM   H18U14673   1.977   6.465   8.629 -0.2518  1.2460 -1.3114
  135OSM    C1F14674   1.877   7.040   6.929 -0.1041  0.4806 -0.5503
  135OSM     OF14675   1.771   7.093   6.910 -0.2896 -0.4537  0.2992
  135OSM    C2F14676   2.001   7.117   6.973 -0.1007  0.5449 -0.2458
  135OSM    H2F14677   2.020   7.203   6.905 -2.0726  0.8113 -0.5203
  135OSM    H2G14678   2.089   7.051   6.983 -0.5411 -0.1081 -0.6592
  135OSM    C3F14679   1.982   7.160   7.114 -0.3793 -1.3703  0.6221
  135OSM    H3F14680   1.881   7.202   7.131  0.0945  0.3986 -0.6921
  135OSM    H3G14681   2.052   7.245   7.130 -0.8688 -0.6255 -1.0523
  135OSM    C4F14682   2.005   7.054   7.219  0.7009 -0.4150 -0.0173
  135OSM    H4F14683   2.107   7.010   7.219 -0.7752 -4.1112  0.7473
  135OSM    H4G14684   1.939   6.967   7.200  0.6852 -0.7436  1.4855
  135OSM    C5F14685   1.965   7.106   7.356  0.0651 -0.8346  0.0520
  135OSM    H5F14686   1.861   7.144   7.365  0.9696  1.7303  0.4353
  135OSM    H5G14687   2.013   7.206   7.368 -1.2560 -0.3242  1.4936
  135OSM    C6F14688   2.009   7.018   7.469 -0.1246 -0.1237  0.1269
  135OSM    H6F14689   2.121   7.017   7.467 -0.1197  0.1428  0.1905
  135OSM    H6G14690   1.974   6.915   7.448 -1.7349  0.1453  1.3853
  135OSM    C7F14691   1.961   7.072   7.607  0.6239  0.3708  0.2669
  135OSM    H7F14692   1.852   7.091   7.601  0.1980 -1.9488 -0.5549
  135OSM    H7G14693   2.007   7.165   7.647  1.4661 -1.1158  3.0151
  135OSM    C8F14694   1.994   6.965   7.717  0.1186 -0.2449  0.3795
  135OSM    H8F14695   2.080   6.999   7.778 -0.0825  0.2298  0.4045
  135OSM    H8G14696   2.020   6.878   7.653  1.0909  1.8260 -2.2438
  135OSM    C9F14697   1.877   6.922   7.798 -0.2225 -0.2543  0.9188
  135OSM    H9F14698   1.792   6.878   7.743 -0.3724 -1.1354  1.8391
  135OSM   C10F14699   1.858   6.947   7.929 -0.1718 -0.1852  0.4284
  135OSM   H10F14700   1.760   6.914   7.966 -0.0177 -1.0443  0.0883
  135OSM   C11F14701   1.946   7.014   8.033  0.9907  0.2864 -0.2649
  135OSM   H11F14702   2.030   7.075   7.993  1.6673  0.8927  1.9878
  135OSM   H11G14703   1.988   6.934   8.098  0.8835 -1.9842 -2.7986
  135OSM   C12F14704   1.854   7.092   8.131  0.2105  0.5996  0.5244
  135OSM   H12F14705   1.771   7.146   8.081  0.2715  0.6968  0.5267
  135OSM   H12G14706   1.913   7.164   8.192 -0.7559  0.0614  2.1854
  135OSM   C13F14707   1.809   6.993   8.243  0.0328  0.2113 -0.1126
  135OSM   H13F14708   1.893   6.978   8.314 -0.6699  0.9455  0.9294
  135OSM   H13G14709   1.784   6.896   8.197 -0.7406  0.3143  0.0724
  135OSM   C14F14710   1.691   7.042   8.325  0.8339  0.6288  1.0257
  135OSM   H14F14711   1.612   7.064   8.250  0.3058  0.6352  1.5735
  135OSM   H14G14712   1.707   7.126   8.397  1.6426  0.8671  0.5800
  135OSM   C15F14713   1.624   6.921   8.403 -0.2471 -0.3575  0.1931
  135OSM   H15F14714   1.633   6.828   8.343  0.3438  0.3760 -0.8967
  135OSM   H15G14715   1.516   6.931   8.425 -0.6247 -1.0010 -1.2313
  135OSM   C16F14716   1.699   6.908   8.537  0.1438 -0.5017 -0.3339
  135OSM   H16F14717   1.653   6.981   8.606  1.2553  0.4718 -0.5947
  135OSM   H16G14718   1.808   6.928   8.527  0.3959 -1.2475  0.7271
  135OSM   C17F14719   1.689   6.769   8.591  0.1443 -0.7394  0.2316
  135OSM   H17F14720   1.719   6.694   8.515 -0.6286 -0.0417 -0.8014
  135OSM   H17G14721   1.580   6.756   8.609  0.1780 -0.3198  0.7571
  135OSM   C18F14722   1.759   6.744   8.725  0.0923 -0.1151  0.6474
  135OSM   H18F14723   1.730   6.642   8.756 -0.5971 -0.0649  0.1889
  135OSM   H18G14724   1.714   6.816   8.798  0.1784 -0.6263  1.2104
  135OSM   H18H14725   1.869   6.760   8.719  0.1459 -0.0908  1.5208
  136OSM      N14726   0.552   0.979   6.145 -0.5751  0.3924 -0.2572
  136OSM    C1514727   0.421   0.929   6.092  0.4991  0.6731 -0.5155
  136OSM   H15A14728   0.391   0.976   6.000 -0.6220  0.6233 -0.1833
  136OSM   H15B14729   0.351   0.954   6.170 -0.4531  1.7409 -1.6818
  136OSM   H15C14730   0.421   0.821   6.086  1.6098  0.5676  0.7620
  136OSM    C1414731   0.646   0.973   6.034  0.3254  0.0381  0.3650
  136OSM   H14A14732   0.635   0.878   5.982  0.7971 -0.5780  1.3587
  136OSM   H14B14733   0.745   0.994   6.071 -0.1500  2.5197  0.4030
  136OSM   H14C14734   0.633   1.047   5.957 -0.4228 -0.8554 -0.3985
  136OSM    C1314735   0.532   1.118   6.203  0.6097 -1.1366 -0.3494
  136OSM   H13A14736   0.622   1.174   6.223  0.4484 -0.5025 -1.3206
  136OSM   H13B14737   0.481   1.105   6.297  0.0896 -2.2797 -0.7629
  136OSM   H13C14738   0.466   1.184   6.149  0.0726  0.6844  2.3362
  136OSM    C1214739   0.595   0.889   6.260 -0.8667  0.1313  0.9243
  136OSM   H12A14740   0.527   0.912   6.341 -0.1950  2.0988  0.9874
  136OSM   H12B14741   0.691   0.919   6.300  0.1842 -1.1364 -0.5071
  136OSM    C1114742   0.603   0.748   6.234 -0.2646  0.5181  0.0987
  136OSM   H11A14743   0.515   0.708   6.179  1.3792 -2.5407 -0.5508
  136OSM   H11B14744   0.604   0.702   6.336  0.4291  0.5525  0.1126
  136OSM      P14745   0.864   0.708   6.225  0.2019 -0.2882 -0.1624
  136OSM    O1314746   0.949   0.650   6.121 -0.2333  0.1360  0.4829
  136OSM    O1414747   0.905   0.842   6.272  0.3715 -0.3316  0.0799
  136OSM    O1114748   0.856   0.605   6.344  0.3449  0.3073 -0.0572
  136OSM    O1214749   0.715   0.711   6.155 -0.5650 -0.4818 -0.9347
  136OSM    C1S14750   0.898   0.653   6.469 -0.0373  0.1777 -0.6348
  136OSM    H1S14751   0.814   0.715   6.504 -1.1830 -1.1050 -1.0258
  136OSM    H1T14752   0.992   0.712   6.480 -0.5166  0.9900 -0.8870
  136OSM     NF14753   0.926   0.609   6.704  0.2420  0.3307 -0.1006
  136OSM    HNF14754   1.017   0.613   6.745 -0.4754 -1.1232  1.8199
  136OSM    C2S14755   0.897   0.538   6.576 -0.4779 -0.4004 -0.6548
  136OSM    H2S14756   0.798   0.489   6.568 -0.1349 -0.8775 -2.9338
  136OSM    C3S14757   0.995   0.430   6.541 -0.6598 -0.3652  0.5218
  136OSM    H3S14758   1.094   0.479   6.538 -0.4099 -0.7311  1.8008
  136OSM     O314759   0.972   0.372   6.412 -0.0148  0.0266  0.0608
  136OSM    HO314760   0.903   0.427   6.374 -0.6394 -0.8401 -0.1009
  136OSM    C4S14761   0.995   0.313   6.644  0.0160 -0.6411 -0.4364
  136OSM    H4S14762   0.902   0.255   6.634 -0.6779  0.6904 -2.2310
  136OSM    C5S14763   1.103   0.260   6.715  0.5145  0.0285 -0.1174
  136OSM    H5S14764   1.205   0.301   6.714  1.0367 -1.2280  0.0917
  136OSM    C6S14765   1.089   0.147   6.820 -0.8163 -0.1450 -0.2286
  136OSM    H6S14766   1.173   0.152   6.893 -0.2422 -3.5967 -0.4969
  136OSM    H6T14767   1.109   0.049   6.772  0.5413  0.3862 -0.7970
  136OSM    C7S14768   0.973   0.143   6.920 -0.3876 -0.1999  0.3011
  136OSM    H7S14769   1.006   0.061   6.988  1.8839 -1.4266 -2.0925
  136OSM    H7T14770   0.876   0.114   6.874 -0.5649  1.8103 -0.6860
  136OSM    C8S14771   0.966   0.274   6.997 -0.0588  1.1440  0.1854
  136OSM    H8S14772   0.959   0.360   6.928  0.3189 -0.9196 -2.5773
  136OSM    H8T14773   1.064   0.286   7.049  0.1831  1.7187 -0.4012
  136OSM    C9S14774   0.856   0.264   7.098  0.3754 -0.2417  0.1915
  136OSM    H9S14775   0.865   0.162   7.141  1.3314 -0.2435 -0.0064
  136OSM    H9T14776   0.760   0.261   7.041  0.6218 -1.2245 -0.1892
  136OSM   C10S14777   0.852   0.374   7.203  0.8416  0.4647 -0.0923
  136OSM   H10S14778   0.806   0.461   7.153  1.8709  0.4920 -1.0321
  136OSM   H10T14779   0.955   0.403   7.233  0.5903  1.2743  0.0124
  136OSM   C11S14780   0.775   0.337   7.331  0.1252 -0.9078  0.3930
  136OSM   H11S14781   0.776   0.420   7.405  0.8207  1.1425 -1.7865
  136OSM   H11T14782   0.821   0.244   7.371  0.1505 -0.4765  1.3963
  136OSM   C12S14783   0.625   0.297   7.305  0.2140  0.2619  0.5359
  136OSM   H12S14784   0.615   0.207   7.240 -4.5451 -0.0499  1.3852
  136OSM   H12T14785   0.557   0.375   7.267 -1.8040 -1.7883 -0.2866
  136OSM   C13S14786   0.564   0.252   7.444  0.0712  0.3382  0.4498
  136OSM   H13S14787   0.454   0.246   7.429  0.3387  1.4910 -2.4977
  136OSM   H13T14788   0.584   0.332   7.518 -1.5898 -0.3442  1.7163
  136OSM   C14S14789   0.630   0.128   7.504  0.0826  0.5022  0.6773
  136OSM   H14S14790   0.738   0.146   7.526  1.1625 -3.0782 -0.8514
  136OSM   H14T14791   0.610   0.042   7.437 -1.8253 -0.4377  2.3436
  136OSM   C15S14792   0.578   0.093   7.640  0.0232 -0.3461  0.0740
  136OSM   H15S14793   0.478   0.047   7.624 -1.9643  3.0325  1.7981
  136OSM   H15T14794   0.560   0.189   7.692  1.5308  0.1014 -0.1887
  136OSM   C16S14795   0.668   0.005   7.722 -0.1752  0.5478 -0.2927
  136OSM   H16S14796   0.760   0.068   7.728 -1.3810  2.4362 -0.7083
  136OSM   H16T14797   0.708  -0.087   7.674  2.8502  0.0144  2.8336
  136OSM   C17S14798   0.625  -0.004   7.870  0.0350 -0.0527  0.3356
  136OSM   H17S14799   0.572   0.089   7.900  0.6220  1.1893 -2.2144
  136OSM   H17T14800   0.717  -0.019   7.930  0.0085 -3.0145 -0.1983
  136OSM   C18S14801   0.534  -0.130   7.904  0.3890  0.8131 -0.2862
  136OSM   H18S14802   0.435  -0.115   7.855  0.2056  0.6754  0.0372
  136OSM   H18T14803   0.513  -0.143   8.012  0.9976  0.0310 -0.2511
  136OSM   H18U14804   0.574  -0.226   7.864 -0.9914  0.7453 -1.5910
  136OSM    C1F14805   0.846   0.712   6.751  0.1884 -0.3873 -0.0589
  136OSM     OF14806   0.723   0.723   6.733 -0.1208 -0.6026 -0.2288
  136OSM    C2F14807   0.926   0.819   6.828 -0.0252  0.5407 -0.1687
  136OSM    H2F14808   1.011   0.850   6.764  1.2248  0.6707  1.4875
  136OSM    H2G14809   0.967   0.768   6.917  2.5286  0.3251 -1.3802
  136OSM    C3F14810   0.858   0.950   6.871 -0.0211  0.2383 -0.0151
  136OSM    H3F14811   0.752   0.935   6.903 -0.1419  0.9449 -0.0642
  136OSM    H3G14812   0.840   1.021   6.787 -0.7333 -0.3616 -0.3825
  136OSM    C4F14813   0.940   1.011   6.983 -0.1587 -0.5664  0.0250
  136OSM    H4F14814   1.046   0.978   6.990 -0.9347 -2.8459  3.0521
  136OSM    H4G14815   0.892   0.972   7.076 -0.6395 -2.8402 -1.0972
  136OSM    C5F14816   0.936   1.163   6.990  0.4566 -0.5191 -0.1363
  136OSM    H5F14817   0.829   1.179   7.016  0.8152 -0.9034  1.7454
  136OSM    H5G14818   0.958   1.218   6.896 -1.0578 -0.0653 -0.2479
  136OSM    C6F14819   1.015   1.215   7.103 -0.6348  0.0294  0.0902
  136OSM    H6F14820   1.067   1.307   7.071 -1.0327 -0.3475 -1.7462
  136OSM    H6G14821   1.083   1.132   7.130 -1.3899 -0.4053  0.7245
  136OSM    C7F14822   0.918   1.258   7.219 -0.3252  0.5294 -0.2518
  136OSM    H7F14823   0.847   1.173   7.222 -0.6345  0.7966  0.1091
  136OSM    H7G14824   0.861   1.353   7.210 -2.9227 -0.8378  0.7358
  136OSM    C8F14825   0.987   1.259   7.354 -0.4133  0.3256  0.7007
  136OSM    H8F14826   1.050   1.169   7.371  1.1298  1.2929  0.3118
  136OSM    H8G14827   0.922   1.256   7.444  1.7887  1.4813  2.4566
  136OSM    C9F14828   1.053   1.391   7.368 -0.9000  0.4611  0.4915
  136OSM    H9F14829   1.107   1.427   7.279 -0.2168 -0.6837  0.4314
  136OSM   C10F14830   1.057   1.468   7.477 -0.1220 -0.2205 -0.0414
  136OSM   H10F14831   1.100   1.569   7.466  0.7719 -0.5382  0.4555
  136OSM   C11F14832   1.006   1.427   7.611 -0.0478 -0.4939  0.2294
  136OSM   H11F14833   1.004   1.317   7.624  0.1217 -1.6381 -6.1854
  136OSM   H11G14834   0.896   1.430   7.626  0.1247 -1.9802  2.3074
  136OSM   C12F14835   1.078   1.502   7.729  0.0844  0.3047  0.2293
  136OSM   H12F14836   1.020   1.597   7.732 -0.8338 -0.1809 -0.9872
  136OSM   H12G14837   1.182   1.523   7.698 -0.0568  0.8358  0.1018
  136OSM   C13F14838   1.056   1.419   7.859  0.3065 -0.5849  0.0352
  136OSM   H13F14839   1.076   1.313   7.830 -3.3966 -0.7091 -2.8062
  136OSM   H13G14840   0.951   1.435   7.888 -0.2324 -0.8076 -1.6657
  136OSM   C14F14841   1.136   1.458   7.976 -1.0741  0.1916  0.0968
  136OSM   H14F14842   1.243   1.437   7.957 -0.3593  3.2931  0.2994
  136OSM   H14G14843   1.103   1.405   8.067  2.9163 -1.4497  0.7882
  136OSM   C15F14844   1.132   1.612   8.025  0.4618  0.8671  0.0531
  136OSM   H15F14845   1.023   1.624   8.040  0.4353 -1.6244  2.6335
  136OSM   H15G14846   1.174   1.680   7.948  0.4985 -1.2262 -1.9034
  136OSM   C16F14847   1.205   1.624   8.158 -0.1114 -1.2143 -0.4842
  136OSM   H16F14848   1.309   1.589   8.143  0.4338 -0.1016  0.5567
  136OSM   H16G14849   1.161   1.571   8.245  1.9925  1.6665  2.5738
  136OSM   C17F14850   1.209   1.777   8.206 -0.4952  0.3273 -0.1816
  136OSM   H17F14851   1.114   1.793   8.261 -0.3621  2.2323 -0.4326
  136OSM   H17G14852   1.225   1.835   8.113  4.1693 -0.3673 -0.0856
  136OSM   C18F14853   1.335   1.804   8.283  0.3785  1.4009 -0.0873
  136OSM   H18F14854   1.338   1.914   8.300 -2.5773  1.6237 -0.4305
  136OSM   H18G14855   1.410   1.754   8.218 -0.7521  0.1883 -0.4937
  136OSM   H18H14856   1.327   1.750   8.380  0.8225 -2.6732 -2.0971
  137OSM      N14857   4.156   4.782   6.261 -0.1134 -0.0018 -0.0410
  137OSM    C1514858   4.044   4.815   6.170 -0.1217 -0.3372  0.4061
  137OSM   H15A14859   4.075   4.871   6.083  2.6564 -2.6909 -0.2385
  137OSM   H15B14860   3.978   4.872   6.234 -0.8235 -1.3696  0.6203
  137OSM   H15C14861   3.981   4.729   6.153 -2.3250  1.0820  0.9423
  137OSM    C1414862   4.261   4.715   6.176 -0.5272  0.4310  0.2358
  137OSM   H14A14863   4.294   4.784   6.100 -0.3757 -1.0119 -1.0366
  137OSM   H14B14864   4.211   4.633   6.127  0.5782  1.2110 -2.3557
  137OSM   H14C14865   4.348   4.680   6.230  0.1870  0.1207 -1.0854
  137OSM    C1314866   4.222   4.909   6.314  0.4051  0.2984 -0.3114
  137OSM   H13A14867   4.322   4.897   6.352  0.9089 -0.2027 -1.7390
  137OSM   H13B14868   4.161   4.982   6.366  1.9059 -0.3789  2.6027
  137OSM   H13C14869   4.240   4.968   6.225 -1.1555  0.2702 -0.6751
  137OSM    C1214870   4.100   4.693   6.370 -0.7722  0.0053  0.6232
  137OSM   H12A14871   4.044   4.623   6.310  0.5545  0.4389 -1.1976
  137OSM   H12B14872   4.036   4.762   6.423  1.0368  1.7067  0.7033
  137OSM    C1114873   4.191   4.624   6.470 -0.0517 -0.7521 -0.1494
  137OSM   H11A14874   4.132   4.596   6.561  1.9440 -1.0121  1.1235
  137OSM   H11B14875   4.271   4.691   6.508 -1.1466  0.1395  0.6328
  137OSM      P14876   4.180   4.375   6.400  0.0630 -0.0408  0.2533
  137OSM    O1314877   4.036   4.410   6.424  0.4953 -0.1960  0.3257
  137OSM    O1414878   4.210   4.311   6.272  0.3344  0.6853  0.4669
  137OSM    O1114879   4.225   4.291   6.524 -0.6091  0.1661 -0.1083
  137OSM    O1214880   4.265   4.505   6.419  0.0522 -0.4902  0.3660
  137OSM    C1S14881   4.365   4.272   6.557 -0.9723  0.1615 -0.0521
  137OSM    H1S14882   4.430   4.310   6.475 -1.9823  0.3118 -0.8104
  137OSM    H1T14883   4.393   4.166   6.573 -0.6343  0.3667  0.7527
  137OSM     NF14884   4.543   4.314   6.718 -0.2650  0.1094  0.8656
  137OSM    HNF14885   4.555   4.233   6.775  0.3298 -1.4349 -1.2932
  137OSM    C2S14886   4.406   4.340   6.694  0.8099  0.1732 -0.3296
  137OSM    H2S14887   4.395   4.449   6.673  2.3479  0.3811 -0.1364
  137OSM    C3S14888   4.309   4.297   6.812 -0.0977 -0.1882  0.1239
  137OSM    H3S14889   4.345   4.199   6.849  1.5147  0.2027 -0.3416
  137OSM     O314890   4.172   4.278   6.784 -0.2989 -0.2762 -0.2104
  137OSM    HO314891   4.160   4.309   6.694  1.2586 -0.3749 -0.4932
  137OSM    C4S14892   4.316   4.398   6.932  0.0573  0.8075  0.3981
  137OSM    H4S14893   4.306   4.503   6.901  3.9035  1.2698  0.2195
  137OSM    C5S14894   4.347   4.368   7.054 -0.4694  0.5002 -0.5157
  137OSM    H5S14895   4.382   4.267   7.082  4.5594  1.9796 -0.4964
  137OSM    C6S14896   4.364   4.469   7.161 -0.6539 -0.0516  0.1124
  137OSM    H6S14897   4.273   4.463   7.225 -0.1490  0.9915  0.9561
  137OSM    H6T14898   4.380   4.567   7.111 -1.5221 -0.5498 -1.1788
  137OSM    C7S14899   4.494   4.436   7.232 -0.3999 -0.4192 -0.8100
  137OSM    H7S14900   4.575   4.458   7.159  0.2419 -0.4137 -0.1136
  137OSM    H7T14901   4.497   4.333   7.273  1.9686 -0.5306 -1.1279
  137OSM    C8S14902   4.510   4.540   7.344  0.4111  0.5690 -0.1721
  137OSM    H8S14903   4.482   4.644   7.316 -1.3181 -0.2055 -1.4961
  137OSM    H8T14904   4.617   4.546   7.375  0.0395  0.9092  1.0746
  137OSM    C9S14905   4.436   4.509   7.477  0.0474  0.2857 -0.0259
  137OSM    H9S14906   4.482   4.417   7.519 -1.0361 -0.0689  0.3964
  137OSM    H9T14907   4.330   4.491   7.452 -0.2728  1.5413  0.3420
  137OSM   C10S14908   4.446   4.621   7.589 -0.0235  0.2156 -0.1243
  137OSM   H10S14909   4.381   4.707   7.563 -0.4721  0.3925  1.4576
  137OSM   H10T14910   4.546   4.669   7.583 -1.6958  4.0203 -0.0466
  137OSM   C11S14911   4.408   4.568   7.733  1.0197 -0.0046 -0.1833
  137OSM   H11S14912   4.487   4.493   7.756 -0.6923 -2.2580 -1.2418
  137OSM   H11T14913   4.307   4.523   7.721  0.8662  0.5983 -1.1783
  137OSM   C12S14914   4.413   4.679   7.843 -0.2814  0.5219  0.1619
  137OSM   H12S14915   4.357   4.765   7.801 -2.0539 -1.1301 -1.1093
  137OSM   H12T14916   4.520   4.704   7.857 -0.7053  2.1457  0.7200
  137OSM   C13S14917   4.356   4.636   7.982  0.6834 -0.2366  0.0483
  137OSM   H13S14918   4.406   4.549   8.031  0.8361  0.4285  1.1116
  137OSM   H13T14919   4.251   4.602   7.973  0.8091 -0.5842 -0.1243
  137OSM   C14S14920   4.358   4.765   8.079 -0.4689 -0.2265  0.8462
  137OSM   H14S14921   4.314   4.851   8.024  1.0071  0.3943  0.5780
  137OSM   H14T14922   4.467   4.786   8.093 -0.1789 -0.0553 -1.3146
  137OSM   C15S14923   4.281   4.734   8.210 -0.1480 -0.3126  0.0294
  137OSM   H15S14924   4.322   4.640   8.251 -1.4681 -1.2413 -0.7139
  137OSM   H15T14925   4.172   4.723   8.192 -0.1985  1.2811 -0.8652
  137OSM   C16S14926   4.292   4.842   8.319 -0.4527 -0.4779  0.5454
  137OSM   H16S14927   4.399   4.859   8.344 -0.7714  0.2218  1.4939
  137OSM   H16T14928   4.243   4.818   8.416  2.3441  2.9584  3.0929
  137OSM   C17S14929   4.228   4.975   8.281  0.1333 -0.0260 -0.2672
  137OSM   H17S14930   4.122   4.944   8.267  0.1375 -0.2421  0.1575
  137OSM   H17T14931   4.269   5.024   8.190  0.6994  1.0945  0.5593
  137OSM   C18S14932   4.241   5.080   8.392 -0.4580 -0.6469  0.1013
  137OSM   H18S14933   4.245   5.040   8.495  2.0556  1.4140  0.9090
  137OSM   H18T14934   4.169   5.163   8.378  1.3124  0.4334 -4.9930
  137OSM   H18U14935   4.340   5.128   8.375 -0.0018 -2.0573 -1.4720
  137OSM    C1F14936   4.650   4.363   6.655 -0.8658  1.5088 -0.3007
  137OSM     OF14937   4.644   4.445   6.564  0.0329 -0.1684  0.6296
  137OSM    C2F14938   4.775   4.303   6.699 -0.8558  0.3470 -0.3518
  137OSM    H2F14939   4.820   4.287   6.598 -1.0731  1.7475 -0.6913
  137OSM    H2G14940   4.759   4.208   6.754 -1.2882 -0.2763 -1.5226
  137OSM    C3F14941   4.864   4.398   6.785  0.3261  1.3915  0.0331
  137OSM    H3F14942   4.898   4.481   6.721  0.3233  2.0838  0.9029
  137OSM    H3G14943   4.955   4.343   6.817  0.2697  0.4412 -1.3464
  137OSM    C4F14944   4.795   4.458   6.903 -0.3317  0.9941  0.0169
  137OSM    H4F14945   4.753   4.380   6.971  0.5376  1.5597  1.2462
  137OSM    H4G14946   4.706   4.520   6.877 -1.4286 -0.1893  0.8019
  137OSM    C5F14947   4.896   4.542   6.980 -0.6447 -1.1536 -0.2202
  137OSM    H5F14948   4.940   4.618   6.912 -1.0495 -1.5858 -0.9807
  137OSM    H5G14949   4.977   4.477   7.017  0.0210 -0.2176  0.0050
  137OSM    C6F14950   4.828   4.611   7.099 -0.0299 -0.0249  1.1036
  137OSM    H6F14951   4.798   4.525   7.162 -3.2599  0.0377 -0.1577
  137OSM    H6G14952   4.735   4.665   7.071  1.8003  2.7857 -0.0143
  137OSM    C7F14953   4.907   4.714   7.185 -0.2501  0.2949  0.8890
  137OSM    H7F14954   4.835   4.732   7.267 -0.9001  1.2768  0.1346
  137OSM    H7G14955   4.940   4.808   7.136  0.8688 -0.5211  0.0159
  137OSM    C8F14956   5.023   4.635   7.239 -0.0850 -1.2537 -0.5792
  137OSM    H8F14957   5.102   4.605   7.167  0.2573 -0.9015 -0.3532
  137OSM    H8G14958   4.967   4.546   7.274 -1.2003  0.1992  1.5215
  137OSM    C9F14959   5.081   4.707   7.359 -0.6301 -0.3687 -0.1123
  137OSM    H9F14960   5.162   4.775   7.329 -1.0601  0.5968  0.8324
  137OSM   C10F14961   5.051   4.689   7.488  0.2242 -0.6798 -0.1593
  137OSM   H10F14962   5.104   4.749   7.563  0.3776 -0.5655 -0.3586
  137OSM   C11F14963   4.947   4.599   7.552 -0.0361 -0.3392  0.0225
  137OSM   H11F14964   4.985   4.505   7.598 -3.7458 -1.9374  0.2573
  137OSM   H11G14965   4.879   4.552   7.478 -0.0277  0.1047 -0.2694
  137OSM   C12F14966   4.851   4.682   7.645 -0.6103  0.1009  0.1310
  137OSM   H12F14967   4.755   4.627   7.651 -1.8368  2.1452  0.2392
  137OSM   H12G14968   4.829   4.783   7.603  1.7891  1.1746  1.2902
  137OSM   C13F14969   4.911   4.712   7.786 -0.0688 -0.4143 -0.3477
  137OSM   H13F14970   5.004   4.771   7.768 -0.9451  1.1004 -0.0100
  137OSM   H13G14971   4.953   4.614   7.817  0.7199  0.6350  2.1762
  137OSM   C14F14972   4.810   4.765   7.887 -0.0518 -0.5139  0.2574
  137OSM   H14F14973   4.730   4.690   7.900  0.0660 -0.5920  0.5329
  137OSM   H14G14974   4.774   4.865   7.857  1.4087 -0.7220 -2.5712
  137OSM   C15F14975   4.880   4.782   8.027  0.0128  0.7801  0.6622
  137OSM   H15F14976   4.942   4.874   8.037  0.9490  0.7697 -3.1741
  137OSM   H15G14977   4.941   4.690   8.033  0.2798  0.9654  0.8513
  137OSM   C16F14978   4.764   4.783   8.134 -0.2232  0.1548 -0.7530
  137OSM   H16F14979   4.703   4.689   8.128 -0.3564 -0.1016  2.8541
  137OSM   H16G14980   4.694   4.867   8.118 -1.5747 -0.1648  2.7404
  137OSM   C17F14981   4.828   4.803   8.273 -0.0317  0.7530 -0.1447
  137OSM   H17F14982   4.901   4.887   8.279  1.2581 -0.3419 -0.0163
  137OSM   H17G14983   4.901   4.719   8.275  0.8977  1.5020 -1.2296
  137OSM   C18F14984   4.727   4.794   8.390 -0.1585 -0.0207  0.5102
  137OSM   H18F14985   4.685   4.691   8.395 -3.1330  1.1337  1.7427
  137OSM   H18G14986   4.637   4.859   8.387 -1.3826 -1.6898 -0.8182
  137OSM   H18H14987   4.785   4.814   8.483  0.0999  1.0653  0.1330
  138OSM      N14988   4.154   6.031   6.117 -0.1636  0.0181 -0.5365
  138OSM    C1514989   4.274   6.110   6.072  0.2623 -0.0286 -0.0142
  138OSM   H15A14990   4.356   6.043   6.052 -0.0308 -0.4107  0.0571
  138OSM   H15B14991   4.304   6.173   6.155 -0.4003 -0.2941  0.4264
  138OSM   H15C14992   4.262   6.172   5.984  2.5137  0.9230  0.2715
  138OSM    C1414993   4.139   5.899   6.050  0.5192 -0.3027  0.2052
  138OSM   H14A14994   4.080   5.834   6.113 -0.1277  0.0342 -0.0439
  138OSM   H14B14995   4.232   5.846   6.045  1.4546  1.0893  1.6823
  138OSM   H14C14996   4.103   5.909   5.949  0.6999 -0.0447  0.1654
  138OSM    C1314997   4.187   6.000   6.260  0.7533 -0.9189 -0.1027
  138OSM   H13A14998   4.263   5.925   6.274  0.2399 -0.9088  3.8040
  138OSM   H13B14999   4.101   5.951   6.302  0.0413 -0.1492 -0.6236
  138OSM   H13C15000   4.225   6.083   6.318  1.6307 -0.8868 -0.6980
  138OSM    C1215001   4.021   6.105   6.100  0.0758  0.1917 -0.1030
  138OSM   H12A15002   4.021   6.192   6.164 -1.6813  1.3742 -1.6071
  138OSM   H12B15003   3.942   6.041   6.138  2.9833 -2.9837  1.0555
  138OSM    C1115004   3.967   6.147   5.966 -0.3779 -0.8877  0.2595
  138OSM   H11A15005   3.860   6.178   5.972 -0.8440 -2.6219  1.9423
  138OSM   H11B15006   3.974   6.058   5.901 -3.1902  0.8683 -2.7515
  138OSM      P15007   4.073   6.392   5.950 -0.0716 -0.4357 -0.0924
  138OSM    O1315008   4.217   6.402   5.978 -0.1376 -0.1206  0.1676
  138OSM    O1415009   4.026   6.483   5.846  0.5406 -0.5511  0.4424
  138OSM    O1115010   3.990   6.418   6.083  0.3494 -0.1971  0.1474
  138OSM    O1215011   4.052   6.240   5.909 -0.1249  0.2673  0.4585
  138OSM    C1S15012   4.075   6.460   6.189 -0.4082  0.0817  0.2987
  138OSM    H1S15013   4.114   6.562   6.170  0.4183 -0.3433 -0.3898
  138OSM    H1T15014   4.162   6.392   6.203 -0.5033 -0.3703 -1.1691
  138OSM     NF15015   4.094   6.493   6.420 -0.9564 -0.1705 -0.2537
  138OSM    HNF15016   4.115   6.419   6.483  0.3465 -0.0339 -0.5108
  138OSM    C2S15017   3.999   6.467   6.318 -0.5835 -0.1595 -0.0063
  138OSM    H2S15018   3.924   6.549   6.320 -2.7590 -2.0261  1.8445
  138OSM    C3S15019   3.915   6.341   6.344 -0.2088  0.5451  0.2356
  138OSM    H3S15020   3.975   6.248   6.349  2.2769  2.0455 -0.2179
  138OSM     O315021   3.828   6.310   6.231 -0.4223  0.0799 -0.2801
  138OSM    HO315022   3.858   6.370   6.162 -1.4772  0.1344 -0.7090
  138OSM    C4S15023   3.846   6.349   6.482 -0.0024  0.1955  0.1383
  138OSM    H4S15024   3.911   6.317   6.565  1.6204  2.5464 -0.1380
  138OSM    C5S15025   3.718   6.391   6.503  0.1875  0.1723  0.0488
  138OSM    H5S15026   3.651   6.420   6.421  0.9302 -0.4452 -0.7997
  138OSM    C6S15027   3.652   6.396   6.637 -0.0916 -0.5570 -0.3304
  138OSM    H6S15028   3.580   6.313   6.655 -2.3413  1.5603  1.0917
  138OSM    H6T15029   3.586   6.485   6.627 -1.5248 -1.7716 -2.5106
  138OSM    C7S15030   3.736   6.390   6.763  0.1344 -0.0978  0.3529
  138OSM    H7S15031   3.823   6.458   6.760 -0.0651  0.2144  1.2869
  138OSM    H7T15032   3.783   6.289   6.769 -1.2244 -0.7464  0.5521
  138OSM    C8S15033   3.649   6.411   6.889 -0.9098 -0.4290  0.3300
  138OSM    H8S15034   3.551   6.367   6.857 -0.5291  0.6143 -2.6356
  138OSM    H8T15035   3.641   6.521   6.894  0.6989 -0.2806  0.1236
  138OSM    C9S15036   3.717   6.365   7.017  0.0958 -0.4270 -0.0326
  138OSM    H9S15037   3.819   6.409   7.019  1.1676 -2.7472  0.9276
  138OSM    H9T15038   3.736   6.256   7.006 -1.0613 -0.6812  0.4156
  138OSM   C10S15039   3.648   6.380   7.159 -0.0920  0.4220  0.3137
  138OSM   H10S15040   3.557   6.319   7.144  2.2383 -3.4056  0.6160
  138OSM   H10T15041   3.621   6.487   7.174 -0.2562  0.3298  0.6689
  138OSM   C11S15042   3.730   6.333   7.274  0.3740 -0.3327 -0.0276
  138OSM   H11S15043   3.834   6.372   7.281  0.3791 -0.5093  0.9365
  138OSM   H11T15044   3.732   6.222   7.282 -1.6264 -0.2916  2.1601
  138OSM   C12S15045   3.667   6.379   7.405  0.4657  0.5105  0.4900
  138OSM   H12S15046   3.563   6.343   7.395  1.0321 -1.1614  0.3870
  138OSM   H12T15047   3.668   6.490   7.402  3.0734  0.5839  1.2790
  138OSM   C13S15048   3.723   6.325   7.534 -0.9596  0.7008 -0.0499
  138OSM   H13S15049   3.806   6.390   7.570 -0.3017 -0.9194  1.5181
  138OSM   H13T15050   3.761   6.222   7.520  1.0423  1.3634  0.1686
  138OSM   C14S15051   3.620   6.323   7.647 -0.1797 -0.4773  0.6162
  138OSM   H14S15052   3.546   6.245   7.619  1.0622 -0.7453 -2.2559
  138OSM   H14T15053   3.579   6.425   7.663  0.7202 -0.0529  0.2710
  138OSM   C15S15054   3.664   6.269   7.786 -0.2195 -0.2864 -0.3876
  138OSM   H15S15055   3.712   6.176   7.751 -1.8164 -0.2376 -2.9603
  138OSM   H15T15056   3.574   6.245   7.846  0.2891  0.2390  0.6072
  138OSM   C16S15057   3.744   6.361   7.882 -0.1091  0.2690  0.3180
  138OSM   H16S15058   3.697   6.461   7.871  2.6202  1.5070 -0.9381
  138OSM   H16T15059   3.853   6.376   7.866 -0.0207  1.3129  1.6860
  138OSM   C17S15060   3.731   6.323   8.024 -0.4574 -0.1601  0.2818
  138OSM   H17S15061   3.751   6.214   8.026 -0.2308 -0.1575 -1.0083
  138OSM   H17T15062   3.626   6.335   8.059 -0.6950 -0.3153 -0.3789
  138OSM   C18S15063   3.811   6.394   8.126 -1.2162 -1.2884 -0.9418
  138OSM   H18S15064   3.920   6.376   8.124 -1.1904 -1.5637  0.9866
  138OSM   H18T15065   3.777   6.351   8.223 -0.8558 -0.4238 -0.4202
  138OSM   H18U15066   3.783   6.502   8.133 -2.2698 -1.6118  0.3365
  138OSM    C1F15067   4.147   6.614   6.431 -0.0500 -0.0208 -1.0143
  138OSM     OF15068   4.134   6.707   6.352 -0.0020  0.4726 -0.3299
  138OSM    C2F15069   4.226   6.630   6.560  0.1046 -0.5183  0.1683
  138OSM    H2F15070   4.293   6.541   6.569  1.7144  0.6328  0.0574
  138OSM    H2G15071   4.149   6.624   6.640  0.1236 -0.5542  0.1837
  138OSM    C3F15072   4.311   6.761   6.585 -0.4734  0.2630 -0.0947
  138OSM    H3F15073   4.242   6.848   6.577 -0.2522  0.3115 -1.8144
  138OSM    H3G15074   4.376   6.779   6.497 -2.4197  0.0664 -1.6439
  138OSM    C4F15075   4.379   6.772   6.726  0.2985 -0.1234 -0.1235
  138OSM    H4F15076   4.436   6.866   6.743 -1.0407  0.8496 -0.8114
  138OSM    H4G15077   4.463   6.699   6.728 -1.0415 -1.7263 -0.1829
  138OSM    C5F15078   4.291   6.742   6.846  0.8728 -0.0309  0.8527
  138OSM    H5F15079   4.270   6.633   6.841 -0.0041  0.1766 -3.1156
  138OSM    H5G15080   4.197   6.800   6.838  0.6429 -0.4404  0.5527
  138OSM    C6F15081   4.364   6.782   6.974  0.9628 -0.3578  0.0168
  138OSM    H6F15082   4.397   6.888   6.963  2.9865 -1.2138 -3.6736
  138OSM    H6G15083   4.465   6.738   6.985  1.0370 -1.2347 -3.1957
  138OSM    C7F15084   4.272   6.775   7.092 -0.4567  0.0932 -0.4845
  138OSM    H7F15085   4.228   6.673   7.096  2.2398 -1.2661 -2.2808
  138OSM    H7G15086   4.194   6.851   7.070 -2.5157 -1.1085  2.1017
  138OSM    C8F15087   4.344   6.825   7.226 -0.0720  0.1773 -0.4585
  138OSM    H8F15088   4.270   6.845   7.307  1.1259 -2.5867  1.4774
  138OSM    H8G15089   4.390   6.925   7.212 -1.2034  0.7831  0.0443
  138OSM    C9F15090   4.456   6.735   7.270 -0.0009 -0.0667 -0.2750
  138OSM    H9F15091   4.525   6.705   7.190  1.0223  0.5434  0.3712
  138OSM   C10F15092   4.479   6.682   7.393  0.8299 -0.4568 -0.2830
  138OSM   H10F15093   4.569   6.623   7.415 -0.0494 -1.7221  0.0516
  138OSM   C11F15094   4.407   6.708   7.521 -0.2583 -0.3069 -0.0904
  138OSM   H11F15095   4.310   6.760   7.503 -1.0681 -1.6798  0.1737
  138OSM   H11G15096   4.464   6.777   7.587 -0.8041 -2.6208  3.0458
  138OSM   C12F15097   4.377   6.588   7.605  0.1908  0.3256  0.5926
  138OSM   H12F15098   4.349   6.503   7.538  3.4687 -0.4074 -0.0123
  138OSM   H12G15099   4.288   6.609   7.669 -0.3974 -1.2558  0.3543
  138OSM   C13F15100   4.485   6.533   7.697 -0.1566 -0.6156  0.2893
  138OSM   H13F15101   4.510   6.628   7.749  0.3047 -0.7618  0.3363
  138OSM   H13G15102   4.583   6.497   7.659  0.5603 -0.2121  1.6815
  138OSM   C14F15103   4.437   6.418   7.785  0.0066  0.5130 -0.1718
  138OSM   H14F15104   4.520   6.371   7.843 -1.3365 -1.0456  0.5626
  138OSM   H14G15105   4.384   6.341   7.726 -1.8734  1.8103 -0.2343
  138OSM   C15F15106   4.337   6.450   7.898  0.1494  0.2031  0.1907
  138OSM   H15F15107   4.237   6.487   7.866  1.0938  1.0710 -1.8644
  138OSM   H15G15108   4.381   6.534   7.955 -1.7777  0.3196  1.6254
  138OSM   C16F15109   4.323   6.338   8.001 -0.6673 -0.5690  0.2588
  138OSM   H16F15110   4.425   6.327   8.044  0.5203  2.9620 -1.2842
  138OSM   H16G15111   4.319   6.243   7.943  1.8660 -0.4239 -0.2539
  138OSM   C17F15112   4.212   6.357   8.102  0.6846  0.1518  0.1781
  138OSM   H17F15113   4.116   6.375   8.049  0.6332  2.1440  0.8554
  138OSM   H17G15114   4.252   6.440   8.164  0.8135 -0.4619  0.9392
  138OSM   C18F15115   4.198   6.243   8.203 -0.4402 -0.1018  0.4084
  138OSM   H18F15116   4.109   6.268   8.264 -1.7862 -2.4318 -0.4673
  138OSM   H18G15117   4.293   6.234   8.261  1.5678 -0.8406 -2.7295
  138OSM   H18H15118   4.184   6.143   8.156 -1.7500  0.5402 -0.6108
  139OSM      N15119   3.821   1.870   5.780  0.5316 -0.8634 -0.0470
  139OSM    C1515120   3.694   1.869   5.868 -0.2035  0.1050 -0.5335
  139OSM   H15A15121   3.612   1.910   5.810  0.4685  3.5371  0.6826
  139OSM   H15B15122   3.712   1.932   5.954  0.7164 -0.6956 -0.1231
  139OSM   H15C15123   3.676   1.768   5.901 -0.0363 -0.5628 -2.3417
  139OSM    C1415124   3.784   1.782   5.664 -0.9251 -0.1965 -0.1276
  139OSM   H14A15125   3.790   1.675   5.680 -0.2993 -0.6602 -3.0127
  139OSM   H14B15126   3.862   1.791   5.591  0.8367 -1.3465  1.5071
  139OSM   H14C15127   3.691   1.818   5.624 -1.7400  1.4907  2.9442
  139OSM    C1315128   3.829   2.014   5.737 -0.3680  0.0141  0.3493
  139OSM   H13A15129   3.897   2.021   5.654 -0.3634 -1.4432  0.1965
  139OSM   H13B15130   3.862   2.079   5.816  1.3550  0.9868 -1.1248
  139OSM   H13C15131   3.740   2.059   5.696  0.7476 -0.1859 -2.4900
  139OSM    C1215132   3.945   1.832   5.856  0.0096 -0.1100  0.0073
  139OSM   H12A15133   4.028   1.843   5.788  2.3245 -0.0388  2.6625
  139OSM   H12B15134   3.952   1.730   5.891  2.4101 -0.3271 -0.9051
  139OSM    C1115135   3.984   1.909   5.993 -0.3209 -0.2514  0.2029
  139OSM   H11A15136   3.990   2.018   5.971 -0.3280 -0.7494 -2.7596
  139OSM   H11B15137   4.087   1.878   6.021 -1.1210 -3.2240  0.1623
  139OSM      P15138   3.882   1.740   6.161  0.1336  0.0398 -0.4763
  139OSM    O1315139   3.774   1.754   6.262 -0.4354 -0.2868 -0.0348
  139OSM    O1415140   3.864   1.623   6.074 -0.1581 -0.7386  0.5273
  139OSM    O1115141   4.025   1.722   6.230 -0.3348 -0.0718  0.2933
  139OSM    O1215142   3.889   1.877   6.095 -0.5814 -0.0587 -0.0229
  139OSM    C1S15143   4.076   1.798   6.338  0.0989  1.1035 -0.1108
  139OSM    H1S15144   4.009   1.883   6.360 -2.0467 -0.6052  0.3588
  139OSM    H1T15145   4.179   1.833   6.319  0.1974  0.8134 -0.1278
  139OSM     NF15146   4.128   1.801   6.579 -0.2580 -0.0283 -0.4891
  139OSM    HNF15147   4.224   1.786   6.601 -0.2670 -0.2835 -0.6192
  139OSM    C2S15148   4.073   1.712   6.474 -0.6567 -0.3596 -0.3196
  139OSM    H2S15149   3.972   1.676   6.501 -0.0778 -3.3383 -1.6927
  139OSM    C3S15150   4.164   1.593   6.457 -0.1078 -0.1900  0.0546
  139OSM    H3S15151   4.267   1.629   6.436 -0.8029  2.1324  0.3498
  139OSM     O315152   4.123   1.503   6.359  0.6251 -0.0356  0.1556
  139OSM    HO315153   4.054   1.554   6.316  1.2392  0.9791  0.3565
  139OSM    C4S15154   4.174   1.519   6.592  0.4878  0.5213 -0.2279
  139OSM    H4S15155   4.074   1.499   6.634  0.6706 -1.7737 -0.7257
  139OSM    C5S15156   4.286   1.486   6.659 -0.8553 -0.0170 -0.5328
  139OSM    H5S15157   4.385   1.521   6.625 -0.0920 -0.7912  0.8007
  139OSM    C6S15158   4.296   1.422   6.796 -1.1158 -0.1746  0.4948
  139OSM    H6S15159   4.202   1.443   6.850 -1.2628 -1.8456  0.9251
  139OSM    H6T15160   4.374   1.477   6.854  0.3886 -0.3174 -1.2780
  139OSM    C7S15161   4.301   1.273   6.802 -0.5462  0.4439 -0.1797
  139OSM    H7S15162   4.371   1.240   6.722  2.7799  1.4608  2.1002
  139OSM    H7T15163   4.199   1.244   6.770  0.1936 -2.5161 -0.1185
  139OSM    C8S15164   4.321   1.198   6.935  0.7797  0.3740  0.5273
  139OSM    H8S15165   4.420   1.220   6.980  0.7082 -2.6006  2.4455
  139OSM    H8T15166   4.322   1.090   6.906 -0.0396  0.6475 -0.5787
  139OSM    C9S15167   4.230   1.228   7.046  0.9205  0.4123 -0.8597
  139OSM    H9S15168   4.123   1.204   7.027  0.6941  0.8996 -0.2285
  139OSM    H9T15169   4.247   1.331   7.084  0.1764 -0.0406  0.7884
  139OSM   C10S15170   4.265   1.146   7.172  0.0060 -0.0563 -0.4720
  139OSM   H10S15171   4.375   1.131   7.173 -0.1702 -2.0180  2.8697
  139OSM   H10T15172   4.220   1.045   7.167 -1.9090  0.7832 -1.1374
  139OSM   C11S15173   4.231   1.228   7.302  0.9026 -0.0762  0.6516
  139OSM   H11S15174   4.123   1.253   7.299  1.1505  0.8693 -1.6303
  139OSM   H11T15175   4.285   1.324   7.299 -0.1510  0.5714  1.4904
  139OSM   C12S15176   4.261   1.143   7.426  1.1835 -0.5779  0.0071
  139OSM   H12S15177   4.369   1.119   7.420  1.1252 -0.8334 -0.0614
  139OSM   H12T15178   4.194   1.054   7.422 -1.3877  1.2963 -1.6450
  139OSM   C13S15179   4.244   1.214   7.562 -0.3541 -0.3261  1.0447
  139OSM   H13S15180   4.143   1.255   7.583  0.4261  1.5639  1.3728
  139OSM   H13T15181   4.295   1.312   7.553 -1.9613  0.3585 -1.6043
  139OSM   C14S15182   4.302   1.125   7.671  0.5004 -0.7633 -0.0466
  139OSM   H14S15183   4.413   1.128   7.661  0.8655 -2.5711  2.4234
  139OSM   H14T15184   4.270   1.020   7.656  1.1100 -1.1768  1.3497
  139OSM   C15S15185   4.265   1.160   7.820 -0.0839 -0.1843  0.2598
  139OSM   H15S15186   4.157   1.143   7.836 -0.1795 -0.6221 -0.7857
  139OSM   H15T15187   4.289   1.264   7.852  1.2852 -0.4675  0.2257
  139OSM   C16S15188   4.340   1.078   7.927  0.5794  0.8667  0.8388
  139OSM   H16S15189   4.451   1.088   7.920  0.9476 -2.1570  1.1380
  139OSM   H16T15190   4.317   0.974   7.898  1.4810  0.4251  1.6327
  139OSM   C17S15191   4.308   1.116   8.073  0.0618 -0.0679 -0.6452
  139OSM   H17S15192   4.198   1.131   8.083 -0.0288  0.7142 -2.5014
  139OSM   H17T15193   4.350   1.218   8.088  1.2381 -0.7688  1.2621
  139OSM   C18S15194   4.361   1.025   8.176 -0.2642 -0.8286 -0.0390
  139OSM   H18S15195   4.322   1.045   8.278  0.0417 -2.0489  0.3398
  139OSM   H18T15196   4.473   1.027   8.175 -0.2000 -2.3500  0.9304
  139OSM   H18U15197   4.327   0.923   8.150  0.1862 -0.9709 -0.0821
  139OSM    C1F15198   4.059   1.910   6.628 -0.4465 -0.4348 -0.4000
  139OSM     OF15199   3.943   1.933   6.600  0.3745  0.0886 -0.1572
  139OSM    C2F15200   4.139   2.007   6.717 -0.2204  0.0763  0.0498
  139OSM    H2F15201   4.220   2.052   6.656  1.2782 -0.9789  1.1813
  139OSM    H2G15202   4.180   1.948   6.802  1.1701 -1.4388 -1.5878
  139OSM    C3F15203   4.058   2.125   6.767 -0.1343 -0.8529  0.5135
  139OSM    H3F15204   3.986   2.093   6.845 -1.4124  0.4621 -0.0748
  139OSM    H3G15205   4.007   2.171   6.680  1.5743  1.9382  0.8802
  139OSM    C4F15206   4.144   2.235   6.833 -0.2399  0.0716 -0.1066
  139OSM    H4F15207   4.073   2.312   6.871 -1.8596 -1.0224 -0.7897
  139OSM    H4G15208   4.207   2.293   6.763 -0.4855 -1.5236 -1.7154
  139OSM    C5F15209   4.228   2.194   6.950 -0.2785 -0.0619  0.8164
  139OSM    H5F15210   4.314   2.262   6.969 -2.1261  2.2916  1.2011
  139OSM    H5G15211   4.271   2.092   6.940 -1.4499 -0.5506  0.6462
  139OSM    C6F15212   4.153   2.192   7.081 -0.3472 -0.4022 -0.0677
  139OSM    H6F15213   4.083   2.108   7.065 -0.7925  0.3389 -2.3568
  139OSM    H6G15214   4.098   2.287   7.101  1.3543  0.6095  0.0791
  139OSM    C7F15215   4.243   2.155   7.206  0.1235 -0.4775  0.7024
  139OSM    H7F15216   4.312   2.071   7.183  0.3878  0.6569 -3.5409
  139OSM    H7G15217   4.175   2.121   7.287  2.1640 -1.2208  2.1669
  139OSM    C8F15218   4.314   2.278   7.252  0.3903 -0.1332 -0.1878
  139OSM    H8F15219   4.241   2.343   7.302  0.4077  0.3308 -0.7530
  139OSM    H8G15220   4.350   2.342   7.168  0.4802 -0.6342 -0.5397
  139OSM    C9F15221   4.419   2.245   7.355 -0.1469 -0.2961 -0.1994
  139OSM    H9F15222   4.514   2.209   7.315  0.2466 -1.1130  1.3752
  139OSM   C10F15223   4.412   2.250   7.490  0.1080  0.7195 -0.0997
  139OSM   H10F15224   4.497   2.207   7.545  0.5276  0.9872 -0.5226
  139OSM   C11F15225   4.280   2.288   7.561  0.1776 -0.0893 -0.3472
  139OSM   H11F15226   4.196   2.281   7.489 -1.3125  0.1460  1.3112
  139OSM   H11G15227   4.287   2.388   7.608 -2.2685  0.1560 -0.3840
  139OSM   C12F15228   4.249   2.189   7.672 -0.0425 -0.1332 -0.5261
  139OSM   H12F15229   4.224   2.090   7.628 -2.5988 -0.2302  0.9413
  139OSM   H12G15230   4.155   2.221   7.721  0.8062  1.6483  0.0475
  139OSM   C13F15231   4.352   2.179   7.788 -0.2271  0.8386  0.6576
  139OSM   H13F15232   4.380   2.279   7.828 -0.4895  0.7070  1.1753
  139OSM   H13G15233   4.447   2.141   7.745  1.0487  2.7132  1.6498
  139OSM   C14F15234   4.313   2.089   7.911  0.2199 -0.3350  0.5738
  139OSM   H14F15235   4.379   2.115   7.996  0.1972  1.7317  0.0180
  139OSM   H14G15236   4.329   1.982   7.887 -0.6440 -0.9584  2.5450
  139OSM   C15F15237   4.175   2.109   7.966  0.4100  0.2720 -0.1420
  139OSM   H15F15238   4.092   2.067   7.906 -0.8684  0.3878  1.4804
  139OSM   H15G15239   4.158   2.215   7.996  2.0877  0.4394  0.3340
  139OSM   C16F15240   4.141   2.029   8.094  1.1165  0.3683  0.1165
  139OSM   H16F15241   4.167   1.921   8.085 -1.4111 -0.1529 -1.9956
  139OSM   H16G15242   4.031   2.023   8.101  1.1506 -1.0399 -0.1530
  139OSM   C17F15243   4.196   2.088   8.217 -0.2216  0.6208 -0.8631
  139OSM   H17F15244   4.160   2.193   8.229 -2.3719  0.2507 -3.2559
  139OSM   H17G15245   4.306   2.097   8.204 -0.1613 -1.2687 -2.0516
  139OSM   C18F15246   4.164   2.003   8.344  0.0244 -0.0823  0.3748
  139OSM   H18F15247   4.197   2.065   8.431  2.4450  0.8097 -1.0707
  139OSM   H18G15248   4.219   1.906   8.343  0.9522  0.4212  0.8599
  139OSM   H18H15249   4.054   1.988   8.347 -0.0323 -0.1311 -1.2252
  140OSM      N15250   2.534   2.091   6.146 -0.2623  0.1552  0.5673
  140OSM    C1515251   2.535   2.076   6.294 -1.0528 -0.0193 -0.2163
  140OSM   H15A15252   2.455   2.015   6.333  0.9542 -1.8244  1.2760
  140OSM   H15B15253   2.548   2.174   6.338  2.3690 -1.1359  1.6484
  140OSM   H15C15254   2.626   2.023   6.317 -0.2883  2.0791  2.0426
  140OSM    C1415255   2.527   1.956   6.071 -0.2168 -0.0890 -1.0645
  140OSM   H14A15256   2.514   1.962   5.964  0.8557  3.8230 -1.1414
  140OSM   H14B15257   2.452   1.888   6.107  0.8609 -0.0958  1.3919
  140OSM   H14C15258   2.617   1.904   6.100  0.1135  1.3141  0.6652
  140OSM    C1315259   2.415   2.163   6.101  0.0723  0.6096 -0.3458
  140OSM   H13A15260   2.326   2.105   6.122  0.5851  0.4796  1.6270
  140OSM   H13B15261   2.418   2.201   6.000  1.6665 -1.7589 -1.2668
  140OSM   H13C15262   2.392   2.250   6.161 -2.7579 -0.5808  0.4580
  140OSM    C1215263   2.660   2.176   6.110  0.0698  1.2604 -0.2639
  140OSM   H12A15264   2.659   2.278   6.144  0.9221  1.5572 -1.1055
  140OSM   H12B15265   2.676   2.192   6.005  3.5735  0.4981  0.0273
  140OSM    C1115266   2.789   2.113   6.167  0.4817 -0.2406  0.0147
  140OSM   H11A15267   2.792   2.147   6.272  2.0916  2.0677 -0.7037
  140OSM   H11B15268   2.871   2.174   6.124 -1.2441  0.4797 -2.5289
  140OSM      P15269   2.877   1.881   6.258 -0.1859 -0.0671  0.2222
  140OSM    O1315270   2.886   1.737   6.218 -0.2567  0.6393 -0.1638
  140OSM    O1415271   2.998   1.950   6.314 -0.1055  0.6873  0.5125
  140OSM    O1115272   2.767   1.887   6.368  0.3606 -0.1107  0.0177
  140OSM    O1215273   2.812   1.973   6.148  0.6268  0.7017  0.1222
  140OSM    C1S15274   2.824   1.868   6.501 -0.1587  0.4901 -0.1355
  140OSM    H1S15275   2.869   1.961   6.542  3.1856 -0.9186 -0.2795
  140OSM    H1T15276   2.904   1.791   6.500 -1.8483 -1.3815 -1.6850
  140OSM     NF15277   2.780   1.820   6.740  0.3966  0.5245  0.5452
  140OSM    HNF15278   2.813   1.740   6.789 -0.2117  1.4673  2.6183
  140OSM    C2S15279   2.725   1.814   6.601  0.5645 -0.2983 -0.0074
  140OSM    H2S15280   2.632   1.869   6.576 -0.1245 -1.6352 -0.4993
  140OSM    C3S15281   2.690   1.671   6.561  0.4741  0.1902  0.8650
  140OSM    H3S15282   2.780   1.606   6.567 -0.9549 -1.8070  1.6752
  140OSM     O315283   2.635   1.662   6.430  0.5278  0.1177  0.0887
  140OSM    HO315284   2.635   1.754   6.404 -1.5675 -0.2325 -1.4305
  140OSM    C4S15285   2.595   1.610   6.662  0.2418  0.1308  0.3385
  140OSM    H4S15286   2.496   1.657   6.651  1.5630  3.2011  0.5128
  140OSM    C5S15287   2.631   1.520   6.757 -0.3535  0.0103  0.2940
  140OSM    H5S15288   2.735   1.486   6.765 -0.8462 -2.4473 -2.1031
  140OSM    C6S15289   2.545   1.458   6.862  0.7435 -0.0911 -0.9346
  140OSM    H6S15290   2.510   1.358   6.830 -0.0715 -0.1127 -0.0468
  140OSM    H6T15291   2.452   1.520   6.867 -0.8121 -2.3697  0.3494
  140OSM    C7S15292   2.619   1.441   6.999  0.4625  0.1708  0.3218
  140OSM    H7S15293   2.669   1.538   7.017 -1.4338  0.9495  1.7131
  140OSM    H7T15294   2.692   1.358   6.990 -1.1707 -1.4440  1.1879
  140OSM    C8S15295   2.526   1.416   7.111 -0.2305  0.2223  0.2260
  140OSM    H8S15296   2.453   1.337   7.082  0.0688  0.8564 -2.5288
  140OSM    H8T15297   2.463   1.505   7.131 -1.2268 -0.5153  0.4979
  140OSM    C9S15298   2.601   1.365   7.236  0.1663 -0.5056  0.1077
  140OSM    H9S15299   2.687   1.435   7.244 -0.3720  0.5012 -1.9883
  140OSM    H9T15300   2.637   1.261   7.224 -2.0551 -1.1298 -2.0484
  140OSM   C10S15301   2.521   1.392   7.364 -0.9349 -0.5713 -0.2177
  140OSM   H10S15302   2.434   1.324   7.356 -2.1307  1.0291 -1.5097
  140OSM   H10T15303   2.480   1.494   7.380  1.3716  0.1096  1.9666
  140OSM   C11S15304   2.580   1.347   7.500  0.3757  0.5270 -0.0482
  140OSM   H11S15305   2.683   1.383   7.522  0.9617 -1.4255  0.6358
  140OSM   H11T15306   2.594   1.237   7.496 -0.6340  0.4015 -3.8483
  140OSM   C12S15307   2.489   1.385   7.615  0.1780 -0.0983  0.0926
  140OSM   H12S15308   2.381   1.376   7.593 -0.0914  2.5153 -0.0343
  140OSM   H12T15309   2.493   1.491   7.650 -3.6893  0.5161 -0.8377
  140OSM   C13S15310   2.505   1.289   7.733 -0.9625  0.0910 -0.0807
  140OSM   H13S15311   2.612   1.260   7.738 -1.2470 -0.8826  0.8578
  140OSM   H13T15312   2.460   1.190   7.708  1.3974 -0.9075 -0.5760
  140OSM   C14S15313   2.457   1.347   7.866  0.3568  0.6381  1.4178
  140OSM   H14S15314   2.352   1.381   7.858  1.0892  2.7561 -0.0200
  140OSM   H14T15315   2.515   1.438   7.890 -0.4310  1.5786 -0.0949
  140OSM   C15S15316   2.463   1.253   7.986  0.1439  0.5033 -0.0728
  140OSM   H15S15317   2.567   1.228   8.017 -0.0677 -0.4949 -0.1388
  140OSM   H15T15318   2.410   1.159   7.960  0.7307  0.7161 -2.2006
  140OSM   C16S15319   2.369   1.307   8.093 -0.9552  0.1383 -0.3958
  140OSM   H16S15320   2.267   1.304   8.050  0.2761 -0.7778 -3.4832
  140OSM   H16T15321   2.391   1.414   8.113 -1.9626  0.3588 -0.4138
  140OSM   C17S15322   2.378   1.240   8.227  0.4527 -0.1513 -0.4704
  140OSM   H17S15323   2.484   1.242   8.261  0.4504 -1.6953 -0.3006
  140OSM   H17T15324   2.353   1.132   8.217 -0.3942 -0.1459  1.1610
  140OSM   C18S15325   2.297   1.310   8.334 -0.3335 -0.6205  0.0659
  140OSM   H18S15326   2.333   1.414   8.348 -0.2988 -0.6614  0.2784
  140OSM   H18T15327   2.318   1.260   8.431  2.5556  0.0147 -0.1505
  140OSM   H18U15328   2.190   1.301   8.306 -0.5354  1.2794  0.1159
  140OSM    C1F15329   2.788   1.936   6.805  0.2822 -0.6432 -0.2402
  140OSM     OF15330   2.724   2.039   6.768  0.5449  0.4911  0.1241
  140OSM    C2F15331   2.865   1.937   6.933  0.0160 -0.0230  0.0077
  140OSM    H2F15332   2.974   1.940   6.913  0.2638  0.2577  1.2913
  140OSM    H2G15333   2.858   1.831   6.968  0.6100  0.4426  1.6008
  140OSM    C3F15334   2.822   2.035   7.043  0.3531  0.0871 -0.0727
  140OSM    H3F15335   2.715   2.029   7.072  0.4116  0.7037  0.2891
  140OSM    H3G15336   2.838   2.135   6.997  0.8566 -0.3942 -0.9777
  140OSM    C4F15337   2.911   2.040   7.171  0.0905 -0.0937  0.0190
  140OSM    H4F15338   3.014   2.070   7.139  1.0806 -1.5244  1.6934
  140OSM    H4G15339   2.919   1.936   7.207  0.9579 -0.5687 -1.4208
  140OSM    C5F15340   2.855   2.145   7.267 -0.3735  0.1813 -0.1796
  140OSM    H5F15341   2.748   2.124   7.293  0.5409 -1.3184  2.8683
  140OSM    H5G15342   2.856   2.248   7.225  0.7572  0.5074  0.6049
  140OSM    C6F15343   2.935   2.135   7.400  0.1657 -1.0599 -0.7871
  140OSM    H6F15344   3.042   2.121   7.373  0.0104  0.1982 -2.1181
  140OSM    H6G15345   2.900   2.047   7.459  1.9113 -2.2940 -1.4874
  140OSM    C7F15346   2.910   2.254   7.490 -0.1374  0.5016 -0.0898
  140OSM    H7F15347   2.804   2.284   7.507 -1.1222 -3.1293  1.0271
  140OSM    H7G15348   2.950   2.334   7.424 -1.4410  0.2542 -1.2381
  140OSM    C8F15349   2.986   2.246   7.628 -0.5166  0.4922 -0.2639
  140OSM    H8F15350   3.009   2.351   7.656 -1.8603  0.5722  0.6506
  140OSM    H8G15351   3.075   2.180   7.633 -1.1769 -0.3703  0.6056
  140OSM    C9F15352   2.892   2.199   7.735 -0.2667 -0.8479  0.1868
  140OSM    H9F15353   2.798   2.256   7.725  0.6214  0.4578 -1.4227
  140OSM   C10F15354   2.910   2.119   7.840 -0.1770 -0.2525 -0.8926
  140OSM   H10F15355   2.828   2.090   7.908  0.9820  0.2111  0.7762
  140OSM   C11F15356   3.042   2.045   7.878  0.3196 -1.1263  0.6666
  140OSM   H11F15357   3.129   2.075   7.817 -1.8734  2.9593 -0.7806
  140OSM   H11G15358   3.011   1.941   7.854 -3.9743  0.1349 -0.1672
  140OSM   C12F15359   3.088   2.053   8.025  0.5948  0.0671  0.1881
  140OSM   H12F15360   3.182   1.996   8.042  0.3214 -0.7630 -0.8911
  140OSM   H12G15361   3.010   2.002   8.085 -0.3923 -0.6599 -1.6225
  140OSM   C13F15362   3.094   2.199   8.079  0.3208  0.8864  0.4694
  140OSM   H13F15363   2.986   2.210   8.102 -0.0019 -0.0842 -0.4789
  140OSM   H13G15364   3.118   2.268   7.996  0.8841  1.1187  0.8208
  140OSM   C14F15365   3.172   2.211   8.210  0.1837  0.3817 -0.3739
  140OSM   H14F15366   3.143   2.312   8.247 -2.1850 -0.3934  0.0017
  140OSM   H14G15367   3.282   2.197   8.195  0.0014 -1.4948 -0.1897
  140OSM   C15F15368   3.139   2.101   8.316  0.4579  0.1846 -0.7736
  140OSM   H15F15369   3.214   2.099   8.399 -0.6971 -0.6626  0.2892
  140OSM   H15G15370   3.143   1.998   8.276  0.9967 -0.6245  1.2044
  140OSM   C16F15371   2.998   2.113   8.380  0.1531  0.1531 -0.1731
  140OSM   H16F15372   2.969   2.016   8.425 -0.7532  0.5435  0.1125
  140OSM   H16G15373   2.923   2.125   8.299 -1.3250 -2.0830  0.7634
  140OSM   C17F15374   2.984   2.232   8.485  0.4889  0.6916 -0.2494
  140OSM   H17F15375   3.012   2.326   8.433  1.4351 -0.0251 -1.0851
  140OSM   H17G15376   3.073   2.224   8.551  1.6089  1.6423 -1.5888
  140OSM   C18F15377   2.856   2.236   8.567  0.3880  0.0583 -0.3812
  140OSM   H18F15378   2.866   2.159   8.647 -1.0075  0.4721  0.2024
  140OSM   H18G15379   2.769   2.206   8.505  0.0327 -0.7399  0.4768
  140OSM   H18H15380   2.844   2.335   8.616 -1.3511 -1.5626  2.8159
  141OSM      N15381   2.444   5.913   5.703 -0.3332 -0.1525  0.2627
  141OSM    C1515382   2.297   5.882   5.734 -0.1215  0.2929 -0.3671
  141OSM   H15A15383   2.286   5.852   5.837  2.2883  1.7185  0.3851
  141OSM   H15B15384   2.260   5.806   5.667  1.1213  0.1509 -0.9282
  141OSM   H15C15385   2.233   5.969   5.728  1.1439  1.4551  1.7717
  141OSM    C1415386   2.525   5.792   5.675  0.3318  0.2484 -0.3959
  141OSM   H14A15387   2.479   5.725   5.603  0.6648 -2.4469  1.7034
  141OSM   H14B15388   2.539   5.737   5.767  0.5086  1.6493  0.4351
  141OSM   H14C15389   2.619   5.813   5.624 -1.2259  1.9687 -2.7951
  141OSM    C1315390   2.437   6.005   5.572 -0.2617  0.1325  0.4069
  141OSM   H13A15391   2.403   6.104   5.598  1.8949  0.9759  0.2215
  141OSM   H13B15392   2.384   5.960   5.490  1.4142  0.2134 -0.7630
  141OSM   H13C15393   2.538   6.016   5.536  0.2841 -1.7611  1.2196
  141OSM    C1215394   2.514   5.986   5.818  0.3783  0.3833 -0.5105
  141OSM   H12A15395   2.467   6.083   5.825 -0.2359 -0.0247  2.6349
  141OSM   H12B15396   2.617   5.995   5.787  0.2336 -1.6992 -1.8083
  141OSM    C1115397   2.512   5.925   5.954 -0.7557 -0.0247 -0.1812
  141OSM   H11A15398   2.576   5.991   6.016 -0.8907 -0.6336  0.6367
  141OSM   H11B15399   2.563   5.827   5.965  1.3680  1.0971  0.4661
  141OSM      P15400   2.313   5.852   6.111 -0.2884  0.0380  0.2871
  141OSM    O1315401   2.261   5.933   6.221  0.1602  0.5954  0.0585
  141OSM    O1415402   2.225   5.759   6.037  0.4641  0.3095  0.4568
  141OSM    O1115403   2.429   5.764   6.161  0.1377 -0.3514 -0.0596
  141OSM    O1215404   2.380   5.944   6.003 -0.2731  0.3332  0.7138
  141OSM    C1S15405   2.519   5.812   6.265  0.5083 -0.7271  0.9977
  141OSM    H1S15406   2.540   5.921   6.265  0.8683 -0.7928  1.7569
  141OSM    H1T15407   2.615   5.756   6.255  1.0183  0.2783  0.1264
  141OSM     NF15408   2.556   5.839   6.507  0.3599 -0.0956 -0.3215
  141OSM    HNF15409   2.632   5.779   6.533  2.0004 -0.2008 -4.5227
  141OSM    C2S15410   2.457   5.791   6.412  0.5805  0.3355 -0.7291
  141OSM    H2S15411   2.364   5.847   6.433  0.3157 -1.1059  2.5760
  141OSM    C3S15412   2.423   5.634   6.442  0.0564  0.0556  0.2369
  141OSM    H3S15413   2.521   5.589   6.416 -0.8000 -1.9757  0.3628
  141OSM     O315414   2.343   5.556   6.358  1.3260 -0.7760  0.5277
  141OSM    HO315415   2.360   5.598   6.273  4.4585 -1.0713  0.8901
  141OSM    C4S15416   2.393   5.612   6.588  0.6075  0.4077  0.4687
  141OSM    H4S15417   2.477   5.603   6.658 -1.5270 -3.1132  2.8827
  141OSM    C5S15418   2.264   5.607   6.632  0.5492 -0.5094  0.2063
  141OSM    H5S15419   2.180   5.605   6.560  0.1313  0.7958  0.6245
  141OSM    C6S15420   2.218   5.586   6.771 -0.6268 -0.7498  0.5786
  141OSM    H6S15421   2.146   5.501   6.779 -2.0138  0.3748  0.5105
  141OSM    H6T15422   2.180   5.685   6.805  0.0282 -0.7475  1.3435
  141OSM    C7S15423   2.340   5.565   6.872  0.2388  0.3978  0.2100
  141OSM    H7S15424   2.402   5.656   6.859 -2.1452  2.1233  0.3003
  141OSM    H7T15425   2.401   5.475   6.850  2.0958  0.3332  4.6619
  141OSM    C8S15426   2.289   5.549   7.021 -0.1015 -0.2099  0.4701
  141OSM    H8S15427   2.193   5.495   7.013 -0.0693 -0.1932 -0.0847
  141OSM    H8T15428   2.270   5.656   7.045 -1.0354 -0.8661  2.9030
  141OSM    C9S15429   2.386   5.491   7.126 -0.5232 -0.3372  0.3738
  141OSM    H9S15430   2.469   5.564   7.129 -0.9238  0.0983  2.1564
  141OSM    H9T15431   2.420   5.394   7.085  2.0622  0.1485  1.1852
  141OSM   C10S15432   2.337   5.476   7.273  0.2878  0.5274  0.4766
  141OSM   H10S15433   2.240   5.425   7.291  1.2158 -1.7754 -0.5419
  141OSM   H10T15434   2.335   5.582   7.306  0.7432  0.3070  1.2287
  141OSM   C11S15435   2.443   5.413   7.360  0.8226 -0.7856  0.1781
  141OSM   H11S15436   2.544   5.451   7.336 -0.0736  1.8352  0.2873
  141OSM   H11T15437   2.439   5.303   7.341 -1.0771 -0.7065 -0.1409
  141OSM   C12S15438   2.393   5.433   7.498 -0.7431  0.1433  0.3282
  141OSM   H12S15439   2.286   5.408   7.508 -0.7937  0.0178 -0.4529
  141OSM   H12T15440   2.399   5.540   7.528 -0.0918  0.0812  0.4336
  141OSM   C13S15441   2.475   5.346   7.590 -0.3803 -0.6158  0.5241
  141OSM   H13S15442   2.567   5.405   7.612 -1.0777  0.4140  0.7654
  141OSM   H13T15443   2.500   5.247   7.546 -0.9110 -0.3489 -0.4004
  141OSM   C14S15444   2.387   5.310   7.719 -0.0065  0.0009  0.6067
  141OSM   H14S15445   2.303   5.247   7.681 -0.5062  1.6999 -1.2336
  141OSM   H14T15446   2.352   5.403   7.769  0.1959  0.8082 -0.7350
  141OSM   C15S15447   2.469   5.223   7.820 -0.2413  0.0244  0.0561
  141OSM   H15S15448   2.566   5.273   7.843 -0.3503 -0.4666  1.7279
  141OSM   H15T15449   2.490   5.126   7.771  2.1325  1.1200 -1.2664
  141OSM   C16S15450   2.406   5.176   7.953 -0.0188  0.0507 -0.0907
  141OSM   H16S15451   2.480   5.117   8.011 -0.2237 -0.3017 -0.1794
  141OSM   H16T15452   2.319   5.108   7.935  0.2495 -0.6665  1.1971
  141OSM   C17S15453   2.354   5.299   8.040 -0.7343 -0.6894  0.3134
  141OSM   H17S15454   2.269   5.344   7.986  0.6174  3.4324  1.2307
  141OSM   H17T15455   2.441   5.369   8.039  0.1829 -1.7612 -1.3463
  141OSM   C18S15456   2.311   5.261   8.179  1.1266 -0.2858 -0.1441
  141OSM   H18S15457   2.401   5.237   8.239  0.4189 -1.6864  0.3863
  141OSM   H18T15458   2.235   5.180   8.179 -0.8490  1.4469  1.7000
  141OSM   H18U15459   2.261   5.347   8.230  2.5997 -0.3699  1.5190
  141OSM    C1F15460   2.582   5.966   6.527 -0.0582 -0.0599 -0.0969
  141OSM     OF15461   2.511   6.057   6.485  0.6425  0.0791 -0.4178
  141OSM    C2F15462   2.705   6.000   6.602  0.0551  0.6501  0.1925
  141OSM    H2F15463   2.761   6.073   6.540  0.8923  1.2203  1.5586
  141OSM    H2G15464   2.768   5.910   6.621  1.9571  1.6618 -1.0245
  141OSM    C3F15465   2.682   6.072   6.740 -0.2289  0.1908 -0.0785
  141OSM    H3F15466   2.612   6.154   6.710 -0.8823 -0.8631 -1.5420
  141OSM    H3G15467   2.775   6.122   6.775  0.6011 -2.1352  1.2221
  141OSM    C4F15468   2.615   5.992   6.851  0.4468  0.5489 -0.5137
  141OSM    H4F15469   2.636   5.885   6.833  2.1516  0.8140 -0.2652
  141OSM    H4G15470   2.506   6.009   6.861  0.2827 -0.3983 -0.6120
  141OSM    C5F15471   2.666   6.019   6.996 -0.0786 -0.1018  0.0442
  141OSM    H5F15472   2.680   6.127   7.019  1.1230 -0.0567 -0.7918
  141OSM    H5G15473   2.760   5.961   7.005  0.7356  1.1956  0.2632
  141OSM    C6F15474   2.573   5.971   7.110 -0.0155 -0.0606 -0.0861
  141OSM    H6F15475   2.553   5.863   7.090  0.1252 -0.4540  1.6531
  141OSM    H6G15476   2.472   6.016   7.116 -0.1876 -0.5438  1.0016
  141OSM    C7F15477   2.640   5.986   7.250  0.2426  0.2034  0.2621
  141OSM    H7F15478   2.687   6.084   7.271  0.0914  0.2459  0.4136
  141OSM    H7G15479   2.729   5.921   7.253  2.3738  2.8300  4.8484
  141OSM    C8F15480   2.552   5.967   7.371  0.5027 -0.0920 -0.3154
  141OSM    H8F15481   2.448   5.998   7.347  0.1949 -1.5250 -0.9754
  141OSM    H8G15482   2.579   6.031   7.458  2.4219  0.1521 -1.0497
  141OSM    C9F15483   2.532   5.822   7.415 -0.1509 -0.6685  0.1665
  141OSM    H9F15484   2.480   5.768   7.335  0.5768  0.3453 -1.0279
  141OSM   C10F15485   2.578   5.771   7.531  0.2456  0.2302  0.6721
  141OSM   H10F15486   2.561   5.664   7.549 -3.0167  0.4957 -0.2185
  141OSM   C11F15487   2.664   5.846   7.628  0.4774  0.3027  0.1377
  141OSM   H11F15488   2.625   5.948   7.649  1.7965  1.1073 -1.1273
  141OSM   H11G15489   2.768   5.857   7.590  0.6439  0.3532  0.5968
  141OSM   C12F15490   2.685   5.772   7.761 -0.7716 -0.0412  0.0417
  141OSM   H12F15491   2.750   5.834   7.826  0.7999 -0.8348 -0.7209
  141OSM   H12G15492   2.748   5.684   7.736  0.0567  0.6366 -0.3108
  141OSM   C13F15493   2.566   5.725   7.841 -0.7949  0.0916 -1.0860
  141OSM   H13F15494   2.499   5.680   7.764 -3.2213  0.2151  0.8225
  141OSM   H13G15495   2.511   5.817   7.869  0.1452 -0.2409  2.3196
  141OSM   C14F15496   2.598   5.614   7.942  0.2262 -0.0918  0.0791
  141OSM   H14F15497   2.646   5.531   7.886 -1.9075 -1.2087 -0.2353
  141OSM   H14G15498   2.506   5.564   7.980 -0.6635 -0.5086 -2.4705
  141OSM   C15F15499   2.679   5.650   8.064 -0.6431 -0.2343 -0.1109
  141OSM   H15F15500   2.742   5.733   8.027  0.1941 -0.2849  1.1633
  141OSM   H15G15501   2.737   5.563   8.100 -1.4678 -1.1140 -0.8283
  141OSM   C16F15502   2.593   5.718   8.174 -0.0518 -0.8563 -0.1300
  141OSM   H16F15503   2.528   5.794   8.125 -0.8842 -0.1717  1.9549
  141OSM   H16G15504   2.656   5.778   8.243  0.8442 -1.1257 -0.6916
  141OSM   C17F15505   2.520   5.627   8.270  0.3906  0.5060 -0.0453
  141OSM   H17F15506   2.589   5.566   8.332 -1.4817 -2.7425 -0.9126
  141OSM   H17G15507   2.461   5.563   8.200 -0.9803  2.5373 -0.8370
  141OSM   C18F15508   2.431   5.701   8.362 -0.9132 -0.5040 -0.2820
  141OSM   H18F15509   2.485   5.795   8.391  0.3618 -1.2806 -0.0356
  141OSM   H18G15510   2.417   5.626   8.442  0.4795  0.3158  0.7909
  141OSM   H18H15511   2.341   5.733   8.306 -1.4400 -0.7524  0.4008
  142OSM      N15512   2.856   1.299   6.326  0.4810 -0.2319  0.5599
  142OSM    C1515513   2.967   1.208   6.293  0.2417  0.2545  0.1835
  142OSM   H15A15514   2.956   1.132   6.217  0.3403 -0.7791  1.1735
  142OSM   H15B15515   2.978   1.145   6.380 -0.3604 -0.5675 -0.3171
  142OSM   H15C15516   3.062   1.255   6.273  0.8521 -1.1574 -0.3163
  142OSM    C1415517   2.880   1.389   6.444 -0.4547  0.4369 -0.0881
  142OSM   H14A15518   2.803   1.465   6.448 -0.5076  0.3910 -0.2109
  142OSM   H14B15519   2.973   1.442   6.432 -0.7377  2.1590  3.9025
  142OSM   H14C15520   2.887   1.338   6.539  0.0778  0.3615 -0.1618
  142OSM    C1315521   2.831   1.393   6.210  0.5046  0.2883 -0.0140
  142OSM   H13A15522   2.918   1.456   6.197 -0.7934  1.7765 -1.9685
  142OSM   H13B15523   2.744   1.454   6.225 -0.1394 -0.2045 -1.5420
  142OSM   H13C15524   2.813   1.342   6.116 -1.0550 -0.8267  0.8317
  142OSM    C1215525   2.724   1.228   6.354  0.4719  0.3831 -0.0546
  142OSM   H12A15526   2.689   1.171   6.269 -0.1529  0.2367  0.2935
  142OSM   H12B15527   2.655   1.306   6.381 -0.3052 -0.1511 -0.4274
  142OSM    C1115528   2.724   1.115   6.467  0.1060  0.1835 -0.2507
  142OSM   H11A15529   2.618   1.087   6.486  0.2793  1.0274  2.3780
  142OSM   H11B15530   2.768   1.166   6.555 -2.4836  3.1895 -0.4935
  142OSM      P15531   2.767   0.899   6.334  0.1419 -0.3285 -0.1582
  142OSM    O1315532   2.704   0.961   6.214 -0.2987 -0.1122 -0.0247
  142OSM    O1415533   2.888   0.815   6.304 -0.4094 -0.1665 -0.0853
  142OSM    O1115534   2.651   0.812   6.409 -0.2458  0.1870 -0.3761
  142OSM    O1215535   2.803   0.997   6.447 -0.1848 -0.2228  0.1742
  142OSM    C1S15536   2.693   0.731   6.515  0.1715 -0.3320 -0.3023
  142OSM    H1S15537   2.803   0.716   6.520  0.1955  0.1340  0.8245
  142OSM    H1T15538   2.642   0.633   6.504 -1.3636  0.2266  1.4386
  142OSM     NF15539   2.705   0.690   6.753 -0.0565  0.4852 -0.2952
  142OSM    HNF15540   2.644   0.645   6.818  0.6453 -1.0179 -0.6462
  142OSM    C2S15541   2.649   0.780   6.653 -0.7311 -0.6371 -0.3806
  142OSM    H2S15542   2.691   0.882   6.668 -0.3615 -1.0852  2.2657
  142OSM    C3S15543   2.499   0.805   6.666 -0.5533  0.3708  0.0280
  142OSM    H3S15544   2.459   0.702   6.678  0.7249  0.1190  3.1700
  142OSM     O315545   2.442   0.870   6.555 -0.0550  0.0948  0.0802
  142OSM    HO315546   2.509   0.874   6.486 -2.4714  1.2424 -2.3839
  142OSM    C4S15547   2.470   0.875   6.803 -0.1372  0.1765  0.0446
  142OSM    H4S15548   2.441   0.804   6.881  0.5163 -0.0663  0.0714
  142OSM    C5S15549   2.466   1.005   6.827 -0.5667  0.4848 -0.2672
  142OSM    H5S15550   2.498   1.070   6.744  0.3251  0.8498  0.3507
  142OSM    C6S15551   2.451   1.068   6.956  0.7197 -0.5375 -0.2194
  142OSM    H6S15552   2.353   1.121   6.959  0.0586 -1.6181 -1.6455
  142OSM    H6T15553   2.529   1.147   6.963  1.6017 -1.4868  0.9982
  142OSM    C7S15554   2.450   0.988   7.081 -0.2303  0.9803 -0.0307
  142OSM    H7S15555   2.547   0.938   7.101  0.0312  1.7439  0.6619
  142OSM    H7T15556   2.379   0.905   7.058  0.5684  0.6701 -1.4822
  142OSM    C8S15557   2.391   1.061   7.203  0.1146  0.1572 -0.3943
  142OSM    H8S15558   2.296   1.114   7.184  0.1202  0.4045  0.2307
  142OSM    H8T15559   2.473   1.133   7.226 -0.6170  1.6569 -2.2514
  142OSM    C9S15560   2.382   0.973   7.331 -0.2322  0.6116 -0.7835
  142OSM    H9S15561   2.481   0.959   7.378 -1.3080 -2.2601  0.8677
  142OSM    H9T15562   2.342   0.871   7.317  0.7898  0.2085 -0.8458
  142OSM   C10S15563   2.296   1.028   7.449  0.0012  0.6452 -0.4175
  142OSM   H10S15564   2.205   1.073   7.405 -0.6388 -0.8941 -0.7315
  142OSM   H10T15565   2.362   1.110   7.485 -2.6492  2.5568  0.4215
  142OSM   C11S15566   2.270   0.927   7.561  0.4561  0.2907 -0.4194
  142OSM   H11S15567   2.362   0.893   7.614 -0.1101  0.0435  0.4270
  142OSM   H11T15568   2.213   0.839   7.525  1.9180 -2.1903  2.7622
  142OSM   C12S15569   2.182   0.989   7.675 -0.2281  0.4255 -1.2632
  142OSM   H12S15570   2.079   0.954   7.651  0.0171 -1.2187 -0.1212
  142OSM   H12T15571   2.183   1.100   7.669 -0.7967  0.6038  0.9946
  142OSM   C13S15572   2.204   0.942   7.817  0.2951 -0.5347 -0.4508
  142OSM   H13S15573   2.286   1.005   7.857 -0.3267  0.5211 -0.7642
  142OSM   H13T15574   2.241   0.838   7.805  0.2965 -0.2801 -3.5126
  142OSM   C14S15575   2.078   0.948   7.905  0.1924 -0.0667  0.4194
  142OSM   H14S15576   2.022   0.856   7.879  0.3378  0.5248 -2.2548
  142OSM   H14T15577   2.005   1.026   7.876  0.2405 -0.3969 -0.6172
  142OSM   C15S15578   2.114   0.957   8.051 -0.5154  0.0962  0.3624
  142OSM   H15S15579   2.173   1.050   8.066 -1.3140  0.5604  0.6939
  142OSM   H15T15580   2.178   0.869   8.073 -0.5709 -0.3041 -1.0043
  142OSM   C16S15581   1.982   0.970   8.137  0.0389  0.3362 -0.4101
  142OSM   H16S15582   1.941   0.867   8.145  2.9599 -0.7707  1.8464
  142OSM   H16T15583   1.909   1.039   8.089 -0.2233 -0.4470 -1.1763
  142OSM   C17S15584   1.996   1.014   8.285  1.4751 -0.3303 -0.2154
  142OSM   H17S15585   2.041   1.114   8.298  2.7122 -0.7761 -0.8555
  142OSM   H17T15586   2.061   0.935   8.329  1.0329  1.1533  3.3404
  142OSM   C18S15587   1.862   1.014   8.360 -0.2867  0.6841  0.2213
  142OSM   H18S15588   1.815   0.914   8.350  0.0070  0.6082 -0.4011
  142OSM   H18T15589   1.793   1.094   8.328  0.5281  0.7808 -1.4018
  142OSM   H18U15590   1.884   1.023   8.469 -1.9245  2.1431  0.4740
  142OSM    C1F15591   2.843   0.684   6.774  0.3582  0.5514 -0.1355
  142OSM     OF15592   2.914   0.760   6.721 -0.6456  0.0285 -0.3372
  142OSM    C2F15593   2.892   0.584   6.874  0.0022 -0.3252  0.5920
  142OSM    H2F15594   2.855   0.481   6.857 -0.8482 -0.0504  0.6769
  142OSM    H2G15595   2.840   0.619   6.966 -2.6731 -0.5191 -0.7520
  142OSM    C3F15596   3.044   0.580   6.889  0.1658 -0.2559  0.0969
  142OSM    H3F15597   3.094   0.671   6.927 -0.0993  1.5489 -3.3922
  142OSM    H3G15598   3.089   0.564   6.788  0.2595  0.3382  0.0419
  142OSM    C4F15599   3.080   0.455   6.970  0.4279 -0.5465  0.0754
  142OSM    H4F15600   3.185   0.421   6.959  0.7035 -0.0865  1.1777
  142OSM    H4G15601   3.015   0.368   6.946  0.8542 -0.1732 -2.8593
  142OSM    C5F15602   3.056   0.480   7.125 -0.6989 -0.2154 -0.2096
  142OSM    H5F15603   2.949   0.465   7.148 -0.2414 -0.9467  1.6196
  142OSM    H5G15604   3.083   0.583   7.158 -1.0347  0.0024 -0.6018
  142OSM    C6F15605   3.140   0.391   7.218  0.0843 -0.1168  0.9587
  142OSM    H6F15606   3.222   0.358   7.150 -0.0813  1.5340 -0.1052
  142OSM    H6G15607   3.083   0.302   7.253 -1.0094 -0.2578 -1.0058
  142OSM    C7F15608   3.205   0.454   7.344  0.2131  0.1315 -0.1237
  142OSM    H7F15609   3.284   0.527   7.316  2.5296 -1.3146  2.2281
  142OSM    H7G15610   3.272   0.382   7.395 -1.5793 -0.5153  1.4675
  142OSM    C8F15611   3.102   0.512   7.444 -0.1110 -0.5274 -0.0518
  142OSM    H8F15612   3.018   0.565   7.395  0.6564  0.5572 -0.2198
  142OSM    H8G15613   3.148   0.591   7.508 -0.4391 -1.1080  0.9214
  142OSM    C9F15614   3.068   0.390   7.532 -0.1053 -0.5632  0.9197
  142OSM    H9F15615   2.988   0.320   7.502 -0.6006 -0.0344  0.9846
  142OSM   C10F15616   3.143   0.355   7.637  0.5709  0.5895  0.0895
  142OSM   H10F15617   3.115   0.269   7.700 -0.0229 -0.8572 -2.0384
  142OSM   C11F15618   3.253   0.436   7.702  0.6554  0.6835 -0.0002
  142OSM   H11F15619   3.303   0.509   7.634  1.1286 -0.3630 -0.8193
  142OSM   H11G15620   3.332   0.366   7.735  0.6764  0.4704 -0.4899
  142OSM   C12F15621   3.202   0.517   7.829  0.8524  0.1506  1.0016
  142OSM   H12F15622   3.136   0.596   7.785 -1.5246 -2.7468 -1.0403
  142OSM   H12G15623   3.286   0.573   7.876  0.1631  0.7128  1.5882
  142OSM   C13F15624   3.116   0.437   7.927  0.6031 -0.3197  0.4070
  142OSM   H13F15625   3.166   0.355   7.984 -2.0163 -1.0349  1.8507
  142OSM   H13G15626   3.037   0.383   7.871  0.9056  0.4392 -0.7825
  142OSM   C14F15627   3.039   0.531   8.028 -1.0013 -0.0618 -0.7783
  142OSM   H14F15628   2.961   0.469   8.076  2.9220 -4.2509  0.8926
  142OSM   H14G15629   3.005   0.620   7.970  0.4666  1.2324  0.2530
  142OSM   C15F15630   3.127   0.588   8.139  0.5268  0.5687  0.1201
  142OSM   H15F15631   3.072   0.676   8.179  0.8305  1.1577 -0.7150
  142OSM   H15G15632   3.226   0.627   8.105  1.6139 -1.9111  0.2831
  142OSM   C16F15633   3.145   0.477   8.241 -0.6212  0.2902 -0.0630
  142OSM   H16F15634   3.208   0.399   8.194  0.6238  0.2090  1.6532
  142OSM   H16G15635   3.054   0.424   8.276  1.1635 -1.8582  1.6098
  142OSM   C17F15636   3.216   0.522   8.372 -0.1065  0.7798  1.3957
  142OSM   H17F15637   3.293   0.599   8.349  1.6111 -0.7251  1.8634
  142OSM   H17G15638   3.278   0.437   8.407  1.1440  1.4866  0.9546
  142OSM   C18F15639   3.118   0.574   8.470 -0.4537 -0.6147 -1.0816
  142OSM   H18F15640   3.078   0.672   8.437 -0.2270 -0.8665 -2.1786
  142OSM   H18G15641   3.172   0.589   8.565 -2.8394  0.5598  0.1735
  142OSM   H18H15642   3.025   0.515   8.485 -1.5032  0.8023 -1.7626
  143OSM      N15643   3.469   6.557   6.052 -0.2499 -0.2733  0.0946
  143OSM    C1515644   3.469   6.676   5.963 -0.1286  0.1717  0.0125
  143OSM   H15A15645   3.531   6.668   5.875 -1.4715  3.1286 -1.3424
  143OSM   H15B15646   3.483   6.765   6.022  0.0611 -0.3582  0.7812
  143OSM   H15C15647   3.369   6.690   5.925 -0.8440  0.5465  1.9453
  143OSM    C1415648   3.395   6.441   5.987 -0.3193 -0.0689 -0.2965
  143OSM   H14A15649   3.429   6.428   5.886 -3.1421 -1.2108 -1.1972
  143OSM   H14B15650   3.291   6.471   5.983 -0.7323 -0.7336  2.7036
  143OSM   H14C15651   3.406   6.349   6.043 -0.0545  0.2424  0.1695
  143OSM    C1315652   3.612   6.521   6.071 -0.6956 -0.0733  0.2464
  143OSM   H13A15653   3.676   6.607   6.080 -0.8183  0.1562 -0.9412
  143OSM   H13B15654   3.653   6.463   5.990  1.5364  1.9303 -0.1589
  143OSM   H13C15655   3.625   6.451   6.153  1.5317 -1.0927 -0.8803
  143OSM    C1215656   3.396   6.597   6.179 -0.1171 -0.4281 -0.9410
  143OSM   H12A15657   3.404   6.519   6.253 -1.5524  1.5694  1.4550
  143OSM   H12B15658   3.291   6.601   6.153 -0.3541 -1.1759 -0.1727
  143OSM    C1115659   3.443   6.726   6.265  0.7630 -0.7758  0.4452
  143OSM   H11A15660   3.548   6.702   6.293 -0.3917 -2.0207  4.4058
  143OSM   H11B15661   3.365   6.725   6.345 -1.6540  0.2010 -1.7514
  143OSM      P15662   3.448   6.977   6.261  0.0842 -0.6877  0.6675
  143OSM    O1315663   3.552   7.060   6.182  0.1753  0.2071  0.4185
  143OSM    O1415664   3.326   7.055   6.299  0.3303 -0.0061  0.0148
  143OSM    O1115665   3.514   6.923   6.396  0.5240 -0.4162  0.6792
  143OSM    O1215666   3.414   6.844   6.176 -0.4531  0.2986  0.1465
  143OSM    C1S15667   3.563   7.012   6.490  0.1585 -0.5112  0.3998
  143OSM    H1S15668   3.494   7.097   6.509  0.4721  0.2718 -1.6686
  143OSM    H1T15669   3.661   7.056   6.460 -0.8579  0.6762 -1.3128
  143OSM     NF15670   3.601   7.022   6.734 -0.9375  0.1920  0.3518
  143OSM    HNF15671   3.693   7.038   6.771 -0.7917 -1.7259  0.9241
  143OSM    C2S15672   3.593   6.934   6.623 -0.2049  0.1426  1.0082
  143OSM    H2S15673   3.501   6.872   6.635  1.2157 -1.9470  1.8867
  143OSM    C3S15674   3.716   6.847   6.601  0.3371 -0.5757  0.3958
  143OSM    H3S15675   3.798   6.912   6.563  0.1840  0.2793  1.4837
  143OSM     O315676   3.702   6.763   6.491 -0.0122  0.1346 -0.0200
  143OSM    HO315677   3.620   6.791   6.449 -0.8001  0.8201  1.8633
  143OSM    C4S15678   3.764   6.767   6.722  0.4452  0.2097 -0.2087
  143OSM    H4S15679   3.686   6.691   6.739  0.7072 -0.0280 -0.0584
  143OSM    C5S15680   3.884   6.773   6.778  0.2572  0.4800  0.5913
  143OSM    H5S15681   3.959   6.847   6.747 -0.1906  1.0386  0.8144
  143OSM    C6S15682   3.920   6.697   6.902 -0.3473  0.0171 -0.0398
  143OSM    H6S15683   4.027   6.714   6.926 -0.4875 -0.8960  1.3370
  143OSM    H6T15684   3.916   6.587   6.887  0.7394  0.4278 -5.5628
  143OSM    C7S15685   3.849   6.747   7.031 -0.2218  0.0599  0.3851
  143OSM    H7S15686   3.740   6.726   7.029  0.1866 -2.3713  0.2366
  143OSM    H7T15687   3.861   6.857   7.033  1.7150 -0.0226 -2.0400
  143OSM    C8S15688   3.920   6.698   7.160 -0.4163  0.5033  0.1755
  143OSM    H8S15689   4.019   6.742   7.136  0.5217 -1.9493 -0.7697
  143OSM    H8T15690   3.941   6.590   7.146  1.7863  0.8178  0.7550
  143OSM    C9S15691   3.846   6.739   7.294 -0.7846  0.3322  0.6419
  143OSM    H9S15692   3.745   6.694   7.286 -0.2964 -0.7675  0.4617
  143OSM    H9T15693   3.839   6.850   7.292  0.2213  0.3833 -1.0608
  143OSM   C10S15694   3.923   6.687   7.409  0.7533  0.5212 -0.2277
  143OSM   H10S15695   4.031   6.707   7.391  0.1720  2.0899 -2.3416
  143OSM   H10T15696   3.916   6.576   7.413  0.9854  0.5475  1.6134
  143OSM   C11S15697   3.872   6.742   7.549  0.0124  0.6011  0.0476
  143OSM   H11S15698   3.767   6.710   7.565  0.5674 -1.1968  0.2604
  143OSM   H11T15699   3.862   6.853   7.550 -2.8962  0.4172  1.5214
  143OSM   C12S15700   3.957   6.688   7.663  0.5640  0.0044 -0.0396
  143OSM   H12S15701   4.062   6.721   7.651  0.0343  1.2052 -1.5500
  143OSM   H12T15702   3.964   6.577   7.675  2.5925  0.2180  1.2645
  143OSM   C13S15703   3.904   6.754   7.793  0.2107  1.2354  0.1345
  143OSM   H13S15704   3.794   6.742   7.803 -0.0167  3.0006  0.0943
  143OSM   H13T15705   3.915   6.865   7.790  2.3323  1.1565  2.2567
  143OSM   C14S15706   3.980   6.689   7.910 -0.4053 -0.7450  0.9131
  143OSM   H14S15707   4.089   6.688   7.890 -0.5333  1.0621 -0.1276
  143OSM   H14T15708   3.957   6.581   7.919 -0.3726 -0.7825  0.5632
  143OSM   C15S15709   3.947   6.747   8.048 -0.3193 -0.0583 -0.8363
  143OSM   H15S15710   3.843   6.717   8.072 -0.4121 -0.6151 -1.8935
  143OSM   H15T15711   3.950   6.858   8.043  0.9760 -0.0082  0.3763
  143OSM   C16S15712   4.037   6.676   8.158 -0.1772 -0.1860  0.0332
  143OSM   H16S15713   4.146   6.673   8.134 -0.1657  1.6806 -0.3526
  143OSM   H16T15714   4.013   6.568   8.152 -2.3416  0.2095  0.8922
  143OSM   C17S15715   4.021   6.733   8.301 -0.0168 -0.0543 -0.0955
  143OSM   H17S15716   3.912   6.732   8.322 -0.0903 -0.9366 -0.4732
  143OSM   H17T15717   4.045   6.841   8.294 -0.8965  0.1398 -0.2118
  143OSM   C18S15718   4.090   6.651   8.412 -0.3032  0.0908 -0.8279
  143OSM   H18S15719   4.080   6.694   8.514 -1.6427 -0.4239 -0.7175
  143OSM   H18T15720   4.201   6.644   8.408 -0.3194  0.2624 -1.7150
  143OSM   H18U15721   4.050   6.547   8.415  0.8522 -0.4106  2.9635
  143OSM    C1F15722   3.502   7.098   6.780 -0.3093  0.5692  0.2890
  143OSM     OF15723   3.391   7.094   6.731  0.5777  0.3229 -0.3816
  143OSM    C2F15724   3.524   7.192   6.894 -0.6307  0.2288 -0.9671
  143OSM    H2F15725   3.439   7.264   6.898  0.5740  1.6419  0.9215
  143OSM    H2G15726   3.612   7.258   6.875 -1.3458  1.0718 -1.4417
  143OSM    C3F15727   3.528   7.126   7.040  0.0669 -0.5247 -0.5218
  143OSM    H3F15728   3.604   7.045   7.039 -0.0840 -0.6838  0.2986
  143OSM    H3G15729   3.438   7.062   7.057  0.0311  0.1526  2.3688
  143OSM    C4F15730   3.557   7.218   7.163 -0.1579 -0.4042  0.3613
  143OSM    H4F15731   3.468   7.284   7.173  0.2727  0.6685 -2.1098
  143OSM    H4G15732   3.644   7.278   7.130 -0.3980 -0.7030 -0.8747
  143OSM    C5F15733   3.591   7.149   7.289 -0.2179  0.6788 -0.4627
  143OSM    H5F15734   3.684   7.091   7.267 -1.2167 -0.1335 -2.8242
  143OSM    H5G15735   3.510   7.079   7.320  0.9937  0.0799  1.5875
  143OSM    C6F15736   3.620   7.233   7.417  0.2144 -0.3707 -0.4954
  143OSM    H6F15737   3.529   7.295   7.435  0.8545 -0.1725  2.6718
  143OSM    H6G15738   3.702   7.306   7.404 -0.9071  0.8988 -0.7014
  143OSM    C7F15739   3.647   7.150   7.540  0.0734  0.2000 -0.0715
  143OSM    H7F15740   3.730   7.077   7.523 -0.9667 -1.9454  3.0819
  143OSM    H7G15741   3.563   7.087   7.577 -1.1510  1.5312 -0.4906
  143OSM    C8F15742   3.685   7.230   7.670  0.3549  0.2499  0.2084
  143OSM    H8F15743   3.596   7.289   7.701 -0.5063 -0.8679 -0.0599
  143OSM    H8G15744   3.763   7.306   7.647  1.1860  0.6931  3.9043
  143OSM    C9F15745   3.721   7.141   7.789 -0.4601 -0.0493  0.4836
  143OSM    H9F15746   3.800   7.070   7.760 -0.1844  0.6164 -0.4642
  143OSM   C10F15747   3.685   7.151   7.919 -0.1952 -0.1050  0.1206
  143OSM   H10F15748   3.721   7.077   7.992  0.7563 -1.2699 -1.4576
  143OSM   C11F15749   3.590   7.263   7.966 -0.1032  0.1944  0.3264
  143OSM   H11F15750   3.495   7.217   7.999 -0.2450 -2.0754 -2.8200
  143OSM   H11G15751   3.571   7.340   7.887  1.2166 -0.3736 -0.5749
  143OSM   C12F15752   3.651   7.333   8.091  0.1967  0.2794  0.1718
  143OSM   H12F15753   3.740   7.394   8.065 -0.2972  0.4648 -1.1384
  143OSM   H12G15754   3.669   7.264   8.176  2.5209 -0.7730 -1.0943
  143OSM   C13F15755   3.547   7.428   8.153  0.1984 -0.4621  0.5012
  143OSM   H13F15756   3.451   7.374   8.167 -0.3379  0.3218 -0.0431
  143OSM   H13G15757   3.525   7.505   8.076  2.4083 -1.2797 -1.0288
  143OSM   C14F15758   3.590   7.482   8.290  0.3697 -0.0276 -0.7098
  143OSM   H14F15759   3.642   7.393   8.330  0.2134  0.5725  0.9176
  143OSM   H14G15760   3.505   7.518   8.353 -0.2643 -0.1860 -1.4606
  143OSM   C15F15761   3.702   7.594   8.286  0.4366 -0.2400 -0.3234
  143OSM   H15F15762   3.677   7.691   8.238 -0.9185 -1.7423 -2.8545
  143OSM   H15G15763   3.786   7.551   8.227  0.5108 -0.3356 -0.1488
  143OSM   C16F15764   3.765   7.635   8.427  0.0499 -0.0607  0.4045
  143OSM   H16F15765   3.841   7.714   8.407 -1.5920  1.2744 -0.9186
  143OSM   H16G15766   3.820   7.548   8.466 -0.4932  0.2859  2.0068
  143OSM   C17F15767   3.670   7.697   8.524  0.2839  0.0960  0.3042
  143OSM   H17F15768   3.597   7.620   8.556  1.3183 -0.8371  0.5013
  143OSM   H17G15769   3.617   7.785   8.481 -0.2118 -0.2469  0.2107
  143OSM   C18F15770   3.727   7.741   8.656  1.1753  0.4848  0.4223
  143OSM   H18F15771   3.637   7.765   8.717 -0.9399  2.7244 -3.2364
  143OSM   H18G15772   3.792   7.826   8.627  0.5996  0.4781 -0.9622
  143OSM   H18H15773   3.785   7.654   8.695 -0.3268 -1.0855 -0.6721
  144OSM      N15774   4.478   3.232   6.265  0.0519  0.2114 -0.0751
  144OSM    C1515775   4.390   3.343   6.323 -0.1544  0.1949 -0.2067
  144OSM   H15A15776   4.288   3.308   6.315 -0.5125  0.0316  3.4974
  144OSM   H15B15777   4.412   3.438   6.277 -0.0910  1.4261  2.2138
  144OSM   H15C15778   4.417   3.348   6.427  1.4323 -0.2901 -0.5656
  144OSM    C1415779   4.480   3.252   6.112 -0.3657 -0.5499  0.2742
  144OSM   H14A15780   4.524   3.349   6.096  0.7297 -0.9443  0.8202
  144OSM   H14B15781   4.378   3.260   6.077 -0.3521 -0.9508  0.1287
  144OSM   H14C15782   4.528   3.170   6.060 -0.0183  0.5968 -1.2575
  144OSM    C1315783   4.621   3.250   6.306  0.9776 -0.7664  1.1833
  144OSM   H13A15784   4.682   3.175   6.258 -1.3149 -2.3014  0.4787
  144OSM   H13B15785   4.633   3.248   6.413 -1.7499 -0.0226  1.5989
  144OSM   H13C15786   4.656   3.349   6.283 -0.5500 -0.4874 -0.1641
  144OSM    C1215787   4.429   3.094   6.303  0.0092  0.2176 -0.0634
  144OSM   H12A15788   4.431   3.079   6.410 -1.4929 -0.9359 -0.1571
  144OSM   H12B15789   4.503   3.026   6.264  0.1892  1.2358 -1.5721
  144OSM    C1115790   4.292   3.044   6.243 -0.2144 -0.2818  0.0618
  144OSM   H11A15791   4.267   2.938   6.265 -0.0715 -0.8119 -2.1541
  144OSM   H11B15792   4.311   3.051   6.134  0.2333  0.8532  0.1974
  144OSM      P15793   4.085   3.117   6.392 -0.0574  0.1161 -0.4220
  144OSM    O1315794   4.009   3.244   6.392  0.2406  0.1330  0.3068
  144OSM    O1415795   4.013   2.984   6.380 -0.4088  0.1155 -0.3736
  144OSM    O1115796   4.188   3.118   6.517 -0.6183  1.0322  0.6632
  144OSM    O1215797   4.182   3.128   6.274  0.0166 -0.0107  0.5034
  144OSM    C1S15798   4.133   3.162   6.644  0.3043  0.4580  0.1807
  144OSM    H1S15799   4.033   3.116   6.663  0.3807  0.3906  0.4151
  144OSM    H1T15800   4.122   3.272   6.658 -4.0304  0.2569 -0.1470
  144OSM     NF15801   4.161   3.148   6.888 -0.1834  0.6408  0.1982
  144OSM    HNF15802   4.183   3.228   6.944  1.7206  0.1540  0.2008
  144OSM    C2S15803   4.226   3.123   6.759 -0.0544 -0.1472  0.6743
  144OSM    H2S15804   4.250   3.015   6.752  2.1285  0.3551 -0.9244
  144OSM    C3S15805   4.363   3.191   6.746  0.5908  0.3333 -0.5020
  144OSM    H3S15806   4.344   3.299   6.763  1.1973  0.3347  0.1956
  144OSM     O315807   4.422   3.190   6.612 -0.0409 -0.4031  0.3147
  144OSM    HO315808   4.349   3.162   6.556  0.1121 -1.0331  0.4237
  144OSM    C4S15809   4.468   3.144   6.846  0.5315  0.5035  0.7036
  144OSM    H4S15810   4.463   3.041   6.885  1.0407  0.3166  0.2929
  144OSM    C5S15811   4.546   3.228   6.912 -0.3020  0.8894 -0.4720
  144OSM    H5S15812   4.548   3.334   6.885 -2.9936  1.2515  0.3716
  144OSM    C6S15813   4.646   3.192   7.026 -0.0519 -0.3440  0.4795
  144OSM    H6S15814   4.609   3.217   7.128 -0.2727 -2.0243  0.8432
  144OSM    H6T15815   4.743   3.245   7.017  0.9908 -2.4885 -2.0494
  144OSM    C7S15816   4.693   3.046   7.030 -0.3224 -0.4677  0.1429
  144OSM    H7S15817   4.746   3.014   6.938  0.6512 -1.1722  0.9266
  144OSM    H7T15818   4.607   2.978   7.050  1.8227 -3.0134  1.2820
  144OSM    C8S15819   4.805   3.040   7.141 -0.5148  0.1751  0.2674
  144OSM    H8S15820   4.853   3.140   7.154  1.2977 -0.4964 -0.9019
  144OSM    H8T15821   4.883   2.973   7.099 -0.0952  1.1143 -0.5019
  144OSM    C9S15822   4.749   2.980   7.271 -0.1066  0.3641 -0.2052
  144OSM    H9S15823   4.709   2.878   7.250 -0.9581  1.3031 -3.8658
  144OSM    H9T15824   4.651   3.028   7.293 -1.2672 -0.5045 -2.9364
  144OSM   C10S15825   4.842   2.981   7.389 -0.4042  1.1341  0.5325
  144OSM   H10S15826   4.879   3.084   7.410 -2.5492  1.9795  0.4596
  144OSM   H10T15827   4.921   2.906   7.371 -1.5147 -0.0772  0.5514
  144OSM   C11S15828   4.768   2.940   7.522  0.0951 -0.1464 -0.1681
  144OSM   H11S15829   4.692   2.863   7.498  0.4069 -0.6869  0.5489
  144OSM   H11T15830   4.714   3.032   7.555 -0.7489  0.2695 -2.5210
  144OSM   C12S15831   4.865   2.909   7.633 -0.2679 -0.2862 -0.7720
  144OSM   H12S15832   4.950   2.980   7.627  0.3318 -0.8740  0.3839
  144OSM   H12T15833   4.910   2.808   7.625 -0.4872 -0.6631  1.8930
  144OSM   C13S15834   4.812   2.933   7.777 -0.3107  0.2090  0.4003
  144OSM   H13S15835   4.743   2.856   7.820  0.6883 -0.9910 -0.0712
  144OSM   H13T15836   4.751   3.026   7.772  1.6500  1.7933  3.2283
  144OSM   C14S15837   4.920   2.962   7.875 -0.2956 -0.3361  0.0262
  144OSM   H14S15838   4.981   3.052   7.852 -0.0760 -0.9347 -1.9283
  144OSM   H14T15839   4.998   2.884   7.869 -0.1570 -0.1256 -1.2233
  144OSM   C15S15840   4.860   2.964   8.016 -0.2362  0.1295  0.2965
  144OSM   H15S15841   4.752   2.989   8.013 -0.1349  0.5949 -1.8412
  144OSM   H15T15842   4.900   3.057   8.062  0.6249 -0.3087  0.4505
  144OSM   C16S15843   4.905   2.844   8.105 -0.0294 -0.8909 -0.0902
  144OSM   H16S15844   5.016   2.842   8.106  0.0077  0.0730 -0.7465
  144OSM   H16T15845   4.871   2.754   8.050 -0.6156 -1.9050  1.8338
  144OSM   C17S15846   4.840   2.852   8.245 -0.2927  0.3592  0.6555
  144OSM   H17S15847   4.730   2.866   8.233 -0.2875 -0.5002 -0.6114
  144OSM   H17T15848   4.877   2.941   8.300  1.7860  0.1523 -0.3332
  144OSM   C18S15849   4.871   2.727   8.332 -0.7571  0.0718 -0.3312
  144OSM   H18S15850   4.979   2.706   8.347 -0.5419  0.5156 -1.1771
  144OSM   H18T15851   4.820   2.640   8.286 -1.9905  0.9951 -0.7904
  144OSM   H18U15852   4.831   2.730   8.435  0.3702 -0.4396  0.1337
  144OSM    C1F15853   4.043   3.078   6.920 -0.8883 -0.1452  0.6227
  144OSM     OF15854   4.022   2.980   6.855 -0.0193 -0.2576 -0.0498
  144OSM    C2F15855   3.955   3.128   7.032  0.6082 -0.1302  0.5919
  144OSM    H2F15856   3.851   3.154   7.001 -0.0746 -1.3567  1.7590
  144OSM    H2G15857   4.004   3.220   7.070 -1.7566  1.2816  0.4639
  144OSM    C3F15858   3.949   3.031   7.148  0.6256  0.0286 -0.0567
  144OSM    H3F15859   4.053   3.027   7.186 -0.4631 -0.5433  3.2016
  144OSM    H3G15860   3.926   2.928   7.115 -1.0078  0.0247  0.9767
  144OSM    C4F15861   3.860   3.063   7.263 -0.2112  0.8369  0.3061
  144OSM    H4F15862   3.756   3.033   7.238  0.0707 -0.0501  0.1642
  144OSM    H4G15863   3.868   3.169   7.295  0.9817  1.4064 -1.7493
  144OSM    C5F15864   3.900   2.975   7.384  0.4965 -0.2270  0.4512
  144OSM    H5F15865   3.996   2.924   7.364  0.2708 -0.6668  0.4720
  144OSM    H5G15866   3.824   2.895   7.372 -0.1550  0.6177 -1.4774
  144OSM    C6F15867   3.911   3.030   7.526 -0.7954 -0.0279 -0.5782
  144OSM    H6F15868   3.827   3.098   7.554 -0.5750  0.3348 -0.7828
  144OSM    H6G15869   3.993   3.105   7.515 -0.3620  0.1139  2.7301
  144OSM    C7F15870   3.938   2.920   7.625 -0.0600 -0.1428  0.3304
  144OSM    H7F15871   4.027   2.859   7.595  0.0092  0.1553 -0.0813
  144OSM    H7G15872   3.851   2.851   7.626 -1.3042  1.3606 -0.4711
  144OSM    C8F15873   3.960   2.974   7.769 -0.0055  0.4114 -0.4876
  144OSM    H8F15874   4.038   3.053   7.761  0.6428 -0.3634 -2.4277
  144OSM    H8G15875   3.987   2.885   7.829 -1.7949  0.3338  0.2606
  144OSM    C9F15876   3.845   3.043   7.834  0.4418  0.0782  0.8393
  144OSM    H9F15877   3.773   3.079   7.759  1.5136  0.7223  0.0851
  144OSM   C10F15878   3.828   3.094   7.956  0.6024  0.2664  0.0153
  144OSM   H10F15879   3.726   3.131   7.976  0.2405  0.2135 -1.6118
  144OSM   C11F15880   3.927   3.075   8.061 -0.3104  0.1794 -0.4272
  144OSM   H11F15881   4.025   3.103   8.016 -1.6223  2.6923 -1.9815
  144OSM   H11G15882   3.946   2.970   8.092 -0.2309  0.6294  1.0913
  144OSM   C12F15883   3.900   3.160   8.186 -0.1121 -0.2445 -0.1072
  144OSM   H12F15884   3.988   3.133   8.248 -0.1950 -0.8684 -0.2543
  144OSM   H12G15885   3.814   3.117   8.240  2.5565 -1.2702  3.7411
  144OSM   C13F15886   3.883   3.307   8.165 -0.4507 -0.2561 -0.3635
  144OSM   H13F15887   3.802   3.343   8.098  0.1459  0.7560 -0.5735
  144OSM   H13G15888   3.973   3.344   8.111  0.5228 -0.0057  1.3424
  144OSM   C14F15889   3.866   3.380   8.301  0.4737  0.0044  0.1699
  144OSM   H14F15890   3.897   3.485   8.286  0.8854  0.4547  3.4551
  144OSM   H14G15891   3.936   3.332   8.371  0.5357  3.2217  2.5110
  144OSM   C15F15892   3.721   3.373   8.362 -0.0457 -0.1313 -0.5839
  144OSM   H15F15893   3.687   3.268   8.372  1.2051 -0.4431  0.5960
  144OSM   H15G15894   3.648   3.431   8.300  1.2840  2.2263 -0.0838
  144OSM   C16F15895   3.718   3.419   8.505 -0.7037  0.4053 -0.0367
  144OSM   H16F15896   3.762   3.522   8.505 -0.3313  0.2610 -1.4305
  144OSM   H16G15897   3.790   3.366   8.571  0.3326 -0.9385 -2.1282
  144OSM   C17F15898   3.583   3.423   8.568 -0.2261  0.2058 -0.1184
  144OSM   H17F15899   3.514   3.344   8.532 -4.3518  2.5878  1.8825
  144OSM   H17G15900   3.537   3.518   8.536  0.3805  1.2024  1.7923
  144OSM   C18F15901   3.585   3.431   8.720 -0.4631 -0.4097 -1.0712
  144OSM   H18F15902   3.655   3.350   8.752  0.8916  0.8528 -0.7533
  144OSM   H18G15903   3.486   3.427   8.771  0.4679 -0.5481  0.8211
  144OSM   H18H15904   3.641   3.520   8.754  1.3213 -2.0367  0.4995
  145SAPE     N15905   3.609   0.275  10.708  1.0070 -0.5545 -0.5530
  145SAPE   HN115906   3.525   0.303  10.763  3.1155  3.3595  1.0985
  145SAPE   HN215907   3.599   0.174  10.682  0.5491 -0.7946  0.5001
  145SAPE   HN315908   3.691   0.281  10.772 -0.8819 -1.4345  2.1354
  145SAPE   C1215909   3.609   0.348  10.579  0.2053  0.6699 -0.1767
  145SAPE  H12A15910   3.583   0.455  10.595  1.4860  0.8612  0.8210
  145SAPE  H12B15911   3.532   0.302  10.515 -0.3260  0.7569  0.3930
  145SAPE   C1115912   3.741   0.326  10.505 -0.5683  0.2769  0.7513
  145SAPE  H11A15913   3.740   0.394  10.418 -0.9337  1.9809  2.0349
  145SAPE  H11B15914   3.761   0.224  10.466  0.4842  0.4967  0.6640
  145SAPE     P15915   3.930   0.490  10.580 -0.1942 -0.0715  0.0550
  145SAPE   O1315916   4.002   0.503  10.707  0.3598 -0.0225 -0.2868
  145SAPE   O1415917   4.004   0.469  10.454  0.1336 -0.3859 -0.1654
  145SAPE   O1215918   3.851   0.359  10.593 -0.0327 -0.5452 -0.1276
  145SAPE   O1115919   3.823   0.604  10.566 -0.3559 -0.2206 -0.7552
  145SAPE    C115920   3.865   0.740  10.552  0.2627 -0.0089  0.2268
  145SAPE    HA15921   3.824   0.809  10.630  0.8565  2.0321 -1.1735
  145SAPE    HB15922   3.975   0.760  10.556 -0.0526  2.0762 -0.1084
  145SAPE    C215923   3.827   0.795  10.411 -0.0159  0.1062 -0.6958
  145SAPE    HS15924   3.717   0.805  10.400 -0.3168 -0.2743  1.3840
  145SAPE   O2115925   3.890   0.724  10.304  0.9360  0.3518  0.7555
  145SAPE   C2115926   3.816   0.628  10.247 -0.3528 -0.0827  0.4590
  145SAPE   O2215927   3.707   0.581  10.282  0.4991  0.1992 -0.0217
  145SAPE   C2215928   3.883   0.581  10.121  0.1350 -0.4470 -0.2247
  145SAPE   H2R15929   3.938   0.660  10.066 -0.1731 -1.0955 -1.5005
  145SAPE   H2S15930   3.957   0.501  10.143 -0.4517 -1.3206 -1.3069
  145SAPE    C315931   3.887   0.938  10.404 -0.3324  0.0875 -0.2736
  145SAPE    HX15932   3.994   0.933  10.434 -0.7229  0.5201  1.2599
  145SAPE    HY15933   3.846   1.015  10.473 -0.7089  0.0646 -0.4684
  145SAPE   O3115934   3.888   0.997  10.269  0.2246 -0.1226 -0.0144
  145SAPE   C3115935   3.766   1.048  10.230 -0.5293  0.0271  0.4039
  145SAPE   O3215936   3.662   1.027  10.291 -0.4114  0.3680 -0.3283
  145SAPE   C3215937   3.791   1.126  10.101 -0.0087  0.0065 -0.0717
  145SAPE   H2X15938   3.877   1.074  10.054  0.2788 -1.3427  1.8227
  145SAPE   H2Y15939   3.816   1.228  10.137 -0.4779 -0.2981  1.1868
  145SAPE   C2315940   3.775   0.514  10.021 -0.7611 -0.1969  0.3069
  145SAPE   H3R15941   3.696   0.588   9.992  0.0496  0.4513 -0.2886
  145SAPE   H3S15942   3.728   0.432  10.080 -0.8786 -1.0230 -0.8905
  145SAPE   C2415943   3.838   0.469   9.886 -0.2727  0.5868 -0.0815
  145SAPE   H4R15944   3.758   0.421   9.825  1.4418 -1.9580 -0.5176
  145SAPE   H4S15945   3.898   0.379   9.911  0.6797  1.0112 -0.7748
  145SAPE   C2515946   3.928   0.555   9.802  0.0769 -0.7576  0.3348
  145SAPE   H5R15947   4.010   0.599   9.862  0.2062 -1.1329  0.4409
  145SAPE   C2615948   3.919   0.577   9.671 -0.2029  0.0639  0.6092
  145SAPE   H6R15949   3.996   0.640   9.625  1.1539 -2.2028 -0.3876
  145SAPE   C2715950   3.829   0.513   9.571 -0.4814  0.3768 -1.2009
  145SAPE   H7R15951   3.840   0.565   9.474 -0.1301  1.0373 -0.8121
  145SAPE   H7S15952   3.722   0.511   9.601  0.0562 -3.1955  1.0837
  145SAPE   C2815953   3.881   0.367   9.550 -0.3985 -0.6232 -0.2142
  145SAPE   H8R15954   3.958   0.328   9.619 -0.9500 -1.8970 -0.2934
  145SAPE   C2915955   3.857   0.291   9.439 -0.3630 -0.5199 -0.0676
  145SAPE   H9R15956   3.894   0.188   9.431  2.4939  0.3171  1.2164
  145SAPE  C21015957   3.781   0.326   9.309 -0.4856  0.3881  0.4262
  145SAPE  H10R15958   3.719   0.416   9.330 -0.5106  0.1021  1.6056
  145SAPE  H10S15959   3.719   0.240   9.278  0.1720 -0.1692  0.6156
  145SAPE  C21115960   3.878   0.372   9.200 -0.1195  0.0092 -0.4742
  145SAPE  H11R15961   3.980   0.396   9.234 -0.3322  1.0187 -0.5017
  145SAPE  C21215962   3.849   0.394   9.070  0.1096  0.3434 -0.3277
  145SAPE  H12R15963   3.928   0.410   8.995 -0.4255 -0.4198 -1.0764
  145SAPE  C21315964   3.716   0.380   8.995 -0.3901  0.4685  0.2312
  145SAPE  H13R15965   3.635   0.366   9.070 -2.0680  3.4622 -0.8818
  145SAPE  H13S15966   3.735   0.295   8.926  2.2164 -0.0885  1.5130
  145SAPE  C21415967   3.680   0.512   8.916  0.4923  0.0059  0.6155
  145SAPE  H14R15968   3.709   0.608   8.961 -1.1925  1.4868 -1.2592
  145SAPE  C21515969   3.615   0.510   8.796  0.1242 -0.2743 -0.0501
  145SAPE  H15R15970   3.590   0.598   8.734 -1.0141 -0.2313  0.4471
  145SAPE  C21615971   3.567   0.389   8.723 -0.2837 -0.2166 -0.1143
  145SAPE  H16R15972   3.459   0.412   8.721  0.3781  3.5244  0.0390
  145SAPE  H16S15973   3.580   0.306   8.796 -1.1528  1.2309  1.7484
  145SAPE  C21715974   3.608   0.367   8.582  0.0582  0.2866  0.2185
  145SAPE  H17R15975   3.606   0.456   8.516  1.0027  0.9704  1.0686
  145SAPE  H17S15976   3.548   0.286   8.537 -0.4025  0.3116  0.7790
  145SAPE  C21815977   3.754   0.331   8.568 -0.4322  0.9677  0.8244
  145SAPE  H18R15978   3.761   0.228   8.608 -2.3829 -0.7275 -2.6988
  145SAPE  H18S15979   3.824   0.393   8.628  0.3485  0.6675  0.2461
  145SAPE  C21915980   3.804   0.338   8.421 -0.0187  0.9034 -0.2633
  145SAPE  H19R15981   3.909   0.307   8.400  0.4594  1.4690  1.1661
  145SAPE  H19S15982   3.807   0.447   8.401  1.5016  1.2780  1.7280
  145SAPE  C22015983   3.715   0.273   8.319  0.4289  0.2789 -0.6605
  145SAPE  H20R15984   3.755   0.276   8.216  0.7864 -0.8485 -0.5747
  145SAPE  H20S15985   3.610   0.308   8.311 -1.4502 -4.2059  1.1438
  145SAPE  H20T15986   3.698   0.164   8.336 -2.0233  0.6357 -0.4995
  145SAPE   C3315987   3.671   1.141  10.011 -0.5395  0.1718 -0.0284
  145SAPE   H3X15988   3.700   1.222   9.941 -1.5496  0.4642 -0.1242
  145SAPE   H3Y15989   3.587   1.184  10.069 -0.5199  0.4635 -0.2132
  145SAPE   C3415990   3.637   1.014   9.938  0.1636 -0.1293 -0.0574
  145SAPE   H4X15991   3.552   1.042   9.872 -2.1859 -0.9949  2.4096
  145SAPE   H4Y15992   3.606   0.934  10.008  0.9040 -0.6050 -0.2658
  145SAPE   C3515993   3.748   0.951   9.847  0.5181  0.0524 -0.1877
  145SAPE   H5X15994   3.701   0.872   9.786  0.4152 -1.6748  2.0042
  145SAPE   H5Y15995   3.830   0.912   9.911  1.6830  1.2946 -0.8702
  145SAPE   C3615996   3.807   1.059   9.751  0.0142 -0.5966 -0.0565
  145SAPE   H6X15997   3.879   1.124   9.805 -0.4439  1.2891 -1.5935
  145SAPE   H6Y15998   3.723   1.126   9.724 -0.4422  0.1394  2.8807
  145SAPE   C3715999   3.867   1.008   9.620 -0.3983  0.1432 -0.0412
  145SAPE   H7X16000   3.780   0.978   9.559  1.0945 -0.2721 -2.0636
  145SAPE   H7Y16001   3.927   0.916   9.637 -0.7511 -0.3717 -1.4566
  145SAPE   C3816002   3.952   1.116   9.547  0.3194  0.5653  0.1021
  145SAPE   H8X16003   3.998   1.054   9.467 -0.0937 -0.4700  0.6551
  145SAPE   H8Y16004   4.037   1.136   9.615 -0.7257  0.8084  1.3646
  145SAPE   C3916005   3.861   1.227   9.502  0.0672 -0.3933  0.1902
  145SAPE   H9X16006   3.838   1.305   9.577 -3.2578  0.5123 -1.5472
  145SAPE   H9Y16007   3.764   1.178   9.480  0.0134 -0.2947  0.2068
  145SAPE  C31016008   3.903   1.300   9.367 -0.4511 -0.1448 -0.2694
  145SAPE  H10X16009   4.010   1.318   9.389 -0.1003 -1.8823 -0.4271
  145SAPE  H10Y16010   3.851   1.398   9.370 -1.1893 -0.4570 -1.7236
  145SAPE  C31116011   3.887   1.208   9.245  0.3404  0.6346 -0.2095
  145SAPE  H11X16012   3.785   1.199   9.201  0.4055  1.3669 -0.5269
  145SAPE  H11Y16013   3.929   1.107   9.263  0.4796  0.9597  1.4208
  145SAPE  C31216014   3.970   1.284   9.138  0.0680  0.4576 -0.5212
  145SAPE  H12X16015   4.074   1.295   9.176 -0.1295  1.0548 -0.1375
  145SAPE  H12Y16016   3.923   1.384   9.120 -1.3422 -0.2076 -0.6249
  145SAPE  C31316017   3.969   1.211   9.001  0.3878 -0.2508 -0.7362
  145SAPE  H13X16018   3.859   1.199   8.989  0.4189 -2.5478  0.6258
  145SAPE  H13Y16019   4.020   1.112   9.008  0.2826 -0.3370 -1.1549
  145SAPE  C31416020   4.017   1.297   8.888  0.1980  0.4882  0.5223
  145SAPE  H14X16021   4.126   1.316   8.896  0.2390  0.0055  1.2308
  145SAPE  H14Y16022   3.960   1.392   8.901 -0.1417  0.2936  0.4435
  145SAPE  C31516023   3.998   1.244   8.740  0.1455 -0.6516 -0.7226
  145SAPE  H15X16024   4.034   1.309   8.658 -2.7493 -0.2187 -1.7848
  145SAPE  H15Y16025   3.888   1.230   8.727 -0.7420  4.1423 -0.2982
  145SAPE  C31616026   4.072   1.109   8.724  0.2954 -0.4384 -0.8362
  145SAPE  H16X16027   4.022   1.029   8.782  0.7514  0.7802  1.3843
  145SAPE  H16Y16028   4.169   1.120   8.778 -0.7790 -0.0246  1.0960
  145SAPE  C31716029   4.107   1.063   8.574 -0.6489 -0.0604 -0.3533
  145SAPE  H17X16030   4.141   1.142   8.503 -0.7838  0.8232  0.5380
  145SAPE  H17Y16031   4.007   1.025   8.545 -1.0407  0.7826 -0.1262
  145SAPE  C31816032   4.205   0.951   8.567 -0.2589  0.2202 -0.4751
  145SAPE  H18X16033   4.311   0.980   8.576  0.3184 -2.1770  1.3544
  145SAPE  H18Y16034   4.192   0.892   8.473 -0.3129 -0.3741 -0.1032
  145SAPE  H18Z16035   4.199   0.875   8.648  1.3805  1.2501  0.6574
  146SAPE     N16036   4.733   4.214  10.976 -0.8791  1.0561  0.4124
  146SAPE   HN116037   4.720   4.317  10.970  1.7170  1.7944  4.0295
  146SAPE   HN216038   4.729   4.200  11.078  0.9253 -0.1931  0.3586
  146SAPE   HN316039   4.832   4.210  10.943 -0.6960  3.7420  0.3883
  146SAPE   C1216040   4.629   4.141  10.907  0.3467  0.3036  0.6933
  146SAPE  H12A16041   4.638   4.032  10.926  2.1441  0.1411 -0.7751
  146SAPE  H12B16042   4.648   4.159  10.799  0.7959  1.0604  0.8898
  146SAPE   C1116043   4.492   4.200  10.942 -0.5577 -0.4971 -0.1108
  146SAPE  H11A16044   4.480   4.215  11.051 -2.2633  4.2044 -0.7521
  146SAPE  H11B16045   4.399   4.143  10.918 -2.4992  2.5579 -0.2892
  146SAPE     P16046   4.368   4.365  10.779  0.1787  0.2519 -0.1989
  146SAPE   O1316047   4.249   4.399  10.859 -0.3450  0.9626 -0.3577
  146SAPE   O1416048   4.417   4.471  10.692  0.1318  0.4609  0.2703
  146SAPE   O1216049   4.484   4.328  10.882  0.3023 -0.2084 -0.4139
  146SAPE   O1116050   4.342   4.237  10.697 -0.4732  0.0417  0.4358
  146SAPE    C116051   4.389   4.214  10.567 -0.3268  0.1085  0.7959
  146SAPE    HA16052   4.312   4.255  10.499 -0.0336 -0.0538  0.3621
  146SAPE    HB16053   4.486   4.266  10.554 -1.3498  1.5825 -1.4886
  146SAPE    C216054   4.427   4.069  10.531  0.3688 -1.0177  0.2135
  146SAPE    HS16055   4.345   4.000  10.558 -2.4237  1.4148 -1.4396
  146SAPE   O2116056   4.547   4.030  10.601 -0.1528  0.2123  0.2620
  146SAPE   C2116057   4.566   3.899  10.612 -0.0801  0.3065  0.2512
  146SAPE   O2216058   4.485   3.818  10.575  0.1880  0.1231 -0.1091
  146SAPE   C2216059   4.701   3.870  10.674 -0.3374 -0.0555  0.6258
  146SAPE   H2R16060   4.722   3.946  10.752 -0.0042 -0.1441  0.6236
  146SAPE   H2S16061   4.696   3.766  10.712 -1.9354 -0.3580 -0.3271
  146SAPE    C316062   4.449   4.053  10.373  0.1706  0.0943 -0.4007
  146SAPE    HX16063   4.475   3.948  10.350  0.5644 -0.2711  1.5167
  146SAPE    HY16064   4.538   4.114  10.347 -0.1083  0.0601 -1.4925
  146SAPE   O3116065   4.333   4.101  10.294 -0.4123 -0.4277  0.2749
  146SAPE   C3116066   4.228   4.023  10.295  0.1961  0.2610  0.4210
  146SAPE   O3216067   4.206   3.921  10.361  0.0453  0.2697  0.0756
  146SAPE   C3216068   4.129   4.077  10.197 -0.3543  0.2506 -0.0573
  146SAPE   H2X16069   4.185   4.097  10.103  2.7166 -0.5396  1.4602
  146SAPE   H2Y16070   4.085   4.162  10.253 -1.0242 -0.7495  0.9819
  146SAPE   C2316071   4.817   3.896  10.572  0.5439  0.1014  0.6439
  146SAPE   H3R16072   4.910   3.913  10.631 -0.6025  0.8319  2.3347
  146SAPE   H3S16073   4.792   3.990  10.518 -0.4650 -2.0668 -3.0287
  146SAPE   C2416074   4.821   3.786  10.461  0.5391 -0.1867  0.5267
  146SAPE   H4R16075   4.721   3.786  10.414 -1.2494 -3.3268  3.8177
  146SAPE   H4S16076   4.834   3.685  10.506  0.4366  0.2493  1.5467
  146SAPE   C2516077   4.926   3.816  10.357 -0.3759  0.4291  0.5478
  146SAPE   H5R16078   5.027   3.792  10.393 -0.3465  1.8501  1.4581
  146SAPE   C2616079   4.905   3.873  10.236  0.0938 -0.1646 -1.0446
  146SAPE   H6R16080   4.991   3.873  10.168  1.6100 -1.2715  0.7832
  146SAPE   C2716081   4.769   3.922  10.176 -0.3818 -0.5233  0.1279
  146SAPE   H7R16082   4.690   3.873  10.237  1.9893 -0.7623  3.2861
  146SAPE   H7S16083   4.754   3.882  10.074  0.7919 -1.4541  0.3092
  146SAPE   C2816084   4.733   4.070  10.185 -0.8129 -0.2162  0.0343
  146SAPE   H8R16085   4.779   4.119  10.272 -2.8404  1.0002  0.4915
  146SAPE   C2916086   4.648   4.139  10.108 -0.7427  0.4122 -0.8305
  146SAPE   H9R16087   4.626   4.242  10.141  0.1755 -0.4082  2.8067
  146SAPE  C21016088   4.562   4.094   9.995  0.0854 -0.2045  0.0824
  146SAPE  H10R16089   4.454   4.079  10.018  0.3355 -1.4981  0.5322
  146SAPE  H10S16090   4.583   3.988   9.968  1.9905  0.4397 -1.1634
  146SAPE  C21116091   4.586   4.171   9.870  0.4316  0.5150 -0.2639
  146SAPE  H11R16092   4.688   4.197   9.842  0.8910 -0.4934  0.4103
  146SAPE  C21216093   4.488   4.221   9.785  0.2283 -0.0882  0.0913
  146SAPE  H12R16094   4.516   4.286   9.702 -1.0491  1.1057  0.5537
  146SAPE  C21316095   4.334   4.210   9.809  0.2879 -0.0284 -0.2239
  146SAPE  H13R16096   4.275   4.303   9.795  1.1165  0.7369  1.1634
  146SAPE  H13S16097   4.313   4.194   9.917 -0.4390  1.8624 -0.0383
  146SAPE  C21416098   4.292   4.089   9.730  0.6825  0.1290  0.1275
  146SAPE  H14R16099   4.360   4.003   9.727  0.1896 -0.2477 -2.3186
  146SAPE  C21516100   4.189   4.075   9.644 -0.6468 -0.4372 -0.0970
  146SAPE  H15R16101   4.181   3.977   9.593  1.6419 -0.5777 -0.2703
  146SAPE  C21616102   4.069   4.172   9.616 -0.4115  0.2666  0.1370
  146SAPE  H16R16103   4.062   4.239   9.704 -1.2239 -0.4084  0.5980
  146SAPE  H16S16104   3.976   4.111   9.614  1.9237 -3.6566 -0.0775
  146SAPE  C21716105   4.056   4.253   9.480  0.1016  0.3211 -0.1424
  146SAPE  H17R16106   4.152   4.303   9.455 -0.5042  0.1504 -3.2325
  146SAPE  H17S16107   3.976   4.328   9.497  3.3438  3.7366  1.6340
  146SAPE  C21816108   4.023   4.167   9.361 -0.0681  0.8968  0.8568
  146SAPE  H18R16109   3.926   4.115   9.374  0.0292  0.4050 -0.3333
  146SAPE  H18S16110   4.105   4.092   9.351  0.8647  2.0343 -0.2591
  146SAPE  C21916111   4.021   4.239   9.230 -0.1975 -0.4301 -0.2900
  146SAPE  H19R16112   3.941   4.315   9.238 -0.7410 -1.0256  0.0704
  146SAPE  H19S16113   3.994   4.173   9.144 -0.8789 -2.7090  1.5550
  146SAPE  C22016114   4.144   4.316   9.197  0.0405  0.1031  0.6865
  146SAPE  H20R16115   4.144   4.397   9.273  0.6436  0.1272  0.6637
  146SAPE  H20S16116   4.136   4.353   9.092  1.6373 -0.9346  0.1507
  146SAPE  H20T16117   4.235   4.255   9.214  0.5642  0.0664 -1.8160
  146SAPE   C3316118   4.011   3.981  10.171 -0.6974 -0.3568 -0.2861
  146SAPE   H3X16119   3.933   4.048  10.129 -0.8922  0.8197  1.8220
  146SAPE   H3Y16120   3.982   3.924  10.261 -0.3301 -1.7785 -1.0289
  146SAPE   C3416121   4.043   3.867  10.066  0.6302 -0.8912 -0.3627
  146SAPE   H4X16122   4.123   3.800  10.102  0.9050 -1.3520 -1.7700
  146SAPE   H4Y16123   4.088   3.920   9.979 -2.0588 -0.8018 -1.8196
  146SAPE   C3516124   3.929   3.777  10.020 -0.6360  0.2981 -0.9035
  146SAPE   H5X16125   3.840   3.839   9.998 -1.6624 -0.1845  1.5038
  146SAPE   H5Y16126   3.889   3.716  10.104 -2.2576  4.0249  1.2700
  146SAPE   C3616127   3.964   3.696   9.898  0.8775  0.5828  0.2266
  146SAPE   H6X16128   3.879   3.625   9.889  1.1552 -0.1615  2.6457
  146SAPE   H6Y16129   4.053   3.630   9.913 -1.1159 -1.8177  2.3554
  146SAPE   C3716130   3.963   3.774   9.770 -0.1217  0.7251  0.3709
  146SAPE   H7X16131   4.060   3.827   9.770 -0.4658  1.3782 -0.5895
  146SAPE   H7Y16132   3.875   3.842   9.770 -0.5851  0.1357  0.4449
  146SAPE   C3816133   3.955   3.686   9.636 -0.1479  0.2952  0.5202
  146SAPE   H8X16134   3.862   3.626   9.635  0.3712 -0.5258 -1.0108
  146SAPE   H8Y16135   4.049   3.627   9.637 -0.1019  0.3710  0.8943
  146SAPE   C3916136   3.944   3.781   9.513 -0.1107 -0.4667  0.5973
  146SAPE   H9X16137   4.043   3.826   9.491 -0.6654  0.8391  0.6682
  146SAPE   H9Y16138   3.867   3.859   9.532  0.6383  0.7900 -1.3018
  146SAPE  C31016139   3.909   3.702   9.383  0.1398 -0.4817  0.4406
  146SAPE  H10X16140   3.810   3.650   9.378 -0.2356  0.3168 -1.4592
  146SAPE  H10Y16141   3.980   3.617   9.369 -2.5952 -2.6321 -1.7177
  146SAPE  C31116142   3.895   3.779   9.249  0.3860  0.2590  0.0651
  146SAPE  H11X16143   3.983   3.845   9.238  1.3475 -0.8945  0.6256
  146SAPE  H11Y16144   3.802   3.839   9.253 -0.5574 -1.0985 -0.4617
  146SAPE  C31216145   3.893   3.680   9.136 -0.2519  0.0934  0.3958
  146SAPE  H12X16146   3.789   3.644   9.125 -0.0758 -0.2549 -0.2419
  146SAPE  H12Y16147   3.955   3.591   9.160 -1.7131 -1.0701 -0.0023
  146SAPE  C31316148   3.937   3.735   9.000  0.2618  0.3874  0.5348
  146SAPE  H13X16149   4.043   3.769   9.005  0.9178 -1.6288  1.6136
  146SAPE  H13Y16150   3.876   3.824   8.973  0.2741  0.7571  1.6595
  146SAPE  C31416151   3.927   3.625   8.887  0.2510 -0.2180 -0.9061
  146SAPE  H14X16152   3.817   3.609   8.877 -0.0351  0.9921  0.0374
  146SAPE  H14Y16153   3.969   3.524   8.906 -3.1397 -1.5136  0.4919
  146SAPE  C31516154   3.978   3.652   8.748  0.2570 -0.0307  0.6570
  146SAPE  H15X16155   3.970   3.557   8.692 -2.1806 -0.3685  1.4541
  146SAPE  H15Y16156   4.084   3.686   8.741 -0.4291  2.0158 -1.0348
  146SAPE  C31616157   3.899   3.758   8.660  0.3195  0.0039  0.5524
  146SAPE  H16X16158   3.906   3.856   8.713  2.4853 -0.4347  1.1834
  146SAPE  H16Y16159   3.790   3.739   8.661  0.2674  0.3176  0.8546
  146SAPE  C31716160   3.959   3.769   8.516 -0.2726 -0.1146  0.5231
  146SAPE  H17X16161   3.911   3.859   8.472 -2.4342 -1.8398 -0.8647
  146SAPE  H17Y16162   3.919   3.682   8.461 -0.3320 -1.0061  1.9121
  146SAPE  C31816163   4.114   3.790   8.497 -0.1044 -0.1408  0.3152
  146SAPE  H18X16164   4.158   3.687   8.503  0.9153  0.3020  0.7778
  146SAPE  H18Y16165   4.160   3.862   8.568  0.4178 -0.9084  0.7742
  146SAPE  H18Z16166   4.139   3.825   8.394  1.2834 -2.0965 -0.0797
  147SAPE     N16167   5.105   5.249  10.908 -1.0889 -0.0124  0.0038
  147SAPE   HN116168   5.012   5.293  10.928 -0.3236  1.0748  1.3450
  147SAPE   HN216169   5.168   5.255  10.990 -1.3322 -0.1825  0.2051
  147SAPE   HN316170   5.151   5.293  10.825 -0.0731 -0.5007  0.3063
  147SAPE   C1216171   5.103   5.101  10.897  0.2584 -0.6113  0.7128
  147SAPE  H12A16172   5.041   5.068  10.810  0.2956  1.6145 -0.2228
  147SAPE  H12B16173   5.064   5.068  10.996  0.8734 -1.1755  0.7749
  147SAPE   C1116174   5.252   5.061  10.881  0.5200 -0.3029  0.3554
  147SAPE  H11A16175   5.279   5.106  10.784  0.4050  0.2886  0.5921
  147SAPE  H11B16176   5.257   4.951  10.875 -0.0194 -0.2621 -1.4519
  147SAPE     P16177   5.490   5.089  10.987  0.3435 -0.3988 -1.0597
  147SAPE   O1316178   5.548   5.175  10.880  0.4066 -0.3355  0.1982
  147SAPE   O1416179   5.545   5.109  11.126  0.2448  0.2219 -0.2479
  147SAPE   O1216180   5.337   5.110  10.988  0.2405  0.3517  0.7606
  147SAPE   O1116181   5.518   4.939  10.951 -0.4800  0.0691 -0.0942
  147SAPE    C116182   5.636   4.908  10.871  0.1260  0.1691 -0.1881
  147SAPE    HA16183   5.727   4.961  10.906 -1.3075  3.1107 -0.5991
  147SAPE    HB16184   5.656   4.799  10.877  0.4993  0.2204 -0.4514
  147SAPE    C216185   5.614   4.913  10.719 -0.4400  0.4038 -0.4845
  147SAPE    HS16186   5.581   5.018  10.703 -0.0361  0.7646  0.9515
  147SAPE   O2116187   5.503   4.820  10.696 -0.2392  0.0099  0.1659
  147SAPE   C2116188   5.391   4.857  10.625 -1.1240 -0.3775  1.1557
  147SAPE   O2216189   5.379   4.972  10.581  0.0969 -0.0485 -0.3823
  147SAPE   C2216190   5.278   4.751  10.614 -0.0877  0.0470  0.1819
  147SAPE   H2R16191   5.324   4.652  10.639 -0.8662 -0.8304 -1.6427
  147SAPE   H2S16192   5.204   4.780  10.692 -0.0182  1.6451 -0.3175
  147SAPE    C316193   5.737   4.879  10.630 -0.1237  0.0629  0.1269
  147SAPE    HX16194   5.756   4.773  10.658 -0.2137  0.7435  3.1166
  147SAPE    HY16195   5.825   4.943  10.656  0.2954 -0.7840  0.8311
  147SAPE   O3116196   5.701   4.886  10.491  0.0667  1.0333 -0.1418
  147SAPE   C3116197   5.675   4.996  10.442  0.2177  0.0901  0.9386
  147SAPE   O3216198   5.682   5.106  10.494 -0.0215  0.1083 -0.3945
  147SAPE   C3216199   5.613   4.979  10.300 -0.2507 -0.0892  0.5279
  147SAPE   H2X16200   5.578   4.874  10.292 -0.4063  0.0092 -0.1495
  147SAPE   H2Y16201   5.700   4.996  10.234  1.9458 -0.9915  3.0123
  147SAPE   C2316202   5.213   4.738  10.473 -0.7955 -0.0659  0.3500
  147SAPE   H3R16203   5.174   4.837  10.440  0.1682 -0.3125 -1.7475
  147SAPE   H3S16204   5.118   4.681  10.488  0.5144 -1.7304  3.0809
  147SAPE   C2416205   5.299   4.690  10.357  0.3777  1.2547 -0.2999
  147SAPE   H4R16206   5.398   4.739  10.360  2.3138 -2.3521  1.1553
  147SAPE   H4S16207   5.268   4.722  10.255  3.5264 -0.6728 -2.0235
  147SAPE   C2516208   5.315   4.532  10.349  0.8422 -0.5406  0.8832
  147SAPE   H5R16209   5.258   4.476  10.425 -2.0055 -0.5404 -1.0863
  147SAPE   C2616210   5.362   4.466  10.237 -0.5447 -0.2236 -0.1646
  147SAPE   H6R16211   5.350   4.357  10.231 -0.3316 -0.1974 -1.5001
  147SAPE   C2716212   5.407   4.542  10.112  0.0660 -0.5660  0.1746
  147SAPE   H7R16213   5.444   4.645  10.130  0.6825 -0.8419  0.5603
  147SAPE   H7S16214   5.314   4.547  10.053  0.9658  1.3294 -1.1657
  147SAPE   C2816215   5.513   4.469  10.035  0.0592 -0.0537 -0.4045
  147SAPE   H8R16216   5.573   4.403  10.099 -1.7048 -1.9606 -0.6319
  147SAPE   C2916217   5.549   4.486   9.906  0.4939  0.2534 -0.1385
  147SAPE   H9R16218   5.625   4.415   9.870 -0.2027 -1.2393  1.1841
  147SAPE  C21016219   5.486   4.585   9.811 -0.2128  0.5049  0.1344
  147SAPE  H10R16220   5.509   4.686   9.849 -1.0111  1.1818 -1.1205
  147SAPE  H10S16221   5.378   4.564   9.824  0.2505 -3.3426 -0.9211
  147SAPE  C21116222   5.535   4.580   9.671 -0.1140 -0.2726  0.1702
  147SAPE  H11R16223   5.639   4.548   9.649 -0.7774 -2.3235 -0.2527
  147SAPE  C21216224   5.464   4.616   9.568 -0.4750 -0.1867 -0.3195
  147SAPE  H12R16225   5.518   4.639   9.475  0.4189  0.7161  0.3936
  147SAPE  C21316226   5.322   4.661   9.574  0.4638 -0.2723  0.6211
  147SAPE  H13R16227   5.319   4.741   9.651 -2.8168  0.1568  0.1873
  147SAPE  H13S16228   5.265   4.567   9.591 -1.7336  0.9392  0.2861
  147SAPE  C21416229   5.277   4.710   9.437 -0.2987  0.7678 -0.0275
  147SAPE  H14R16230   5.244   4.814   9.427 -0.2334  0.6722 -1.4293
  147SAPE  C21516231   5.261   4.634   9.322  0.3583  0.6574  0.5941
  147SAPE  H15R16232   5.213   4.674   9.231  0.0747  0.8202  0.8137
  147SAPE  C21616233   5.291   4.484   9.310  0.8870 -0.0101  0.0590
  147SAPE  H16R16234   5.320   4.443   9.409 -0.9869  1.1231  1.1364
  147SAPE  H16S16235   5.373   4.458   9.240 -0.9297 -1.0240 -1.8190
  147SAPE  C21716236   5.170   4.397   9.265  0.2517 -0.1434  1.3421
  147SAPE  H17R16237   5.089   4.407   9.340 -1.5876 -0.1988 -0.5489
  147SAPE  H17S16238   5.198   4.290   9.264  0.9322 -0.0478 -2.5219
  147SAPE  C21816239   5.113   4.425   9.126 -0.2194  0.3138 -0.1503
  147SAPE  H18R16240   5.202   4.428   9.060 -0.4373 -1.2423 -0.5511
  147SAPE  H18S16241   5.070   4.528   9.128 -2.4156 -0.5527  0.5511
  147SAPE  C21916242   5.010   4.320   9.081 -0.1346 -0.2865  0.0002
  147SAPE  H19R16243   5.065   4.224   9.087  0.9726  0.0744 -2.9244
  147SAPE  H19S16244   4.993   4.332   8.972 -2.2791 -2.2604  0.0386
  147SAPE  C22016245   4.889   4.321   9.159 -0.0693 -0.1019  0.7278
  147SAPE  H20R16246   4.828   4.238   9.117  0.8103  0.3942 -1.7050
  147SAPE  H20S16247   4.833   4.414   9.134  1.7448  0.5835 -1.1238
  147SAPE  H20T16248   4.898   4.302   9.268 -1.3145 -0.6311  0.7551
  147SAPE   C3316249   5.493   5.070  10.268 -0.1744  0.2133  0.0329
  147SAPE   H3X16250   5.537   5.171  10.259 -2.0677  1.0856  0.2200
  147SAPE   H3Y16251   5.431   5.067  10.361  0.2438 -0.6664  0.3005
  147SAPE   C3416252   5.399   5.031  10.152  0.0397  0.3280 -0.5826
  147SAPE   H4X16253   5.320   5.107  10.140 -0.3433 -0.0763 -0.6326
  147SAPE   H4Y16254   5.348   4.940  10.190  0.6013  0.7968  1.4317
  147SAPE   C3516255   5.472   5.006  10.025  0.0328 -0.7115  0.0799
  147SAPE   H5X16256   5.525   4.909  10.035  0.7134 -0.5026 -1.2460
  147SAPE   H5Y16257   5.539   5.093  10.007 -2.4197  1.1012 -0.8790
  147SAPE   C3616258   5.380   4.979   9.904  0.2330  0.7092  0.5188
  147SAPE   H6X16259   5.289   5.042   9.900  1.2312  2.2127  0.6868
  147SAPE   H6Y16260   5.338   4.876   9.901 -1.1404  1.2538  0.4627
  147SAPE   C3716261   5.452   5.008   9.769  0.1690 -0.1330 -0.2065
  147SAPE   H7X16262   5.511   4.917   9.744 -0.2255 -1.1188  2.1670
  147SAPE   H7Y16263   5.524   5.090   9.789  0.4606  0.1099 -2.1206
  147SAPE   C3816264   5.356   5.037   9.658 -0.2261 -0.6248 -0.1301
  147SAPE   H8X16265   5.310   5.134   9.685 -1.7177 -1.3215 -0.0225
  147SAPE   H8Y16266   5.271   4.966   9.668 -0.3892 -0.4260 -0.1070
  147SAPE   C3916267   5.411   5.031   9.517  0.4225 -0.2006 -0.1500
  147SAPE   H9X16268   5.440   4.928   9.488  1.9563 -0.3488  1.7349
  147SAPE   H9Y16269   5.498   5.099   9.526 -0.4790  1.2890 -2.0256
  147SAPE  C31016270   5.318   5.094   9.409  0.1634  0.7372 -0.7421
  147SAPE  H10X16271   5.271   5.183   9.454  1.6241 -0.3474  3.4570
  147SAPE  H10Y16272   5.234   5.030   9.374 -1.1561  2.7357 -1.3629
  147SAPE  C31116273   5.403   5.138   9.289  0.0723  0.1368 -0.4319
  147SAPE  H11X16274   5.509   5.133   9.321  0.3169  1.5196 -0.9673
  147SAPE  H11Y16275   5.385   5.246   9.270  0.4715  0.4707  0.9798
  147SAPE  C31216276   5.370   5.067   9.160  0.8267 -0.0038  0.1762
  147SAPE  H12X16277   5.260   5.069   9.145  1.1466  1.4061 -2.8093
  147SAPE  H12Y16278   5.392   4.958   9.166 -1.3713 -0.5019 -0.0900
  147SAPE  C31316279   5.433   5.123   9.030 -0.3691 -0.2610  0.2127
  147SAPE  H13X16280   5.394   5.224   9.008  1.3623  0.7516  1.5003
  147SAPE  H13Y16281   5.408   5.052   8.948 -1.0995 -0.7534  0.8513
  147SAPE  C31416282   5.588   5.122   9.041 -0.6241 -0.6434  1.1429
  147SAPE  H14X16283   5.623   5.037   9.104  0.7026 -0.1246  1.1412
  147SAPE  H14Y16284   5.618   5.217   9.090 -3.4809  0.2111  1.3964
  147SAPE  C31516285   5.654   5.122   8.900 -0.4207 -0.7634  0.3913
  147SAPE  H15X16286   5.619   5.032   8.844  0.2133 -0.1001 -1.1297
  147SAPE  H15Y16287   5.764   5.115   8.916 -0.4698 -1.0792  0.6163
  147SAPE  C31616288   5.628   5.245   8.811 -1.0638 -0.0372  0.1167
  147SAPE  H16X16289   5.672   5.322   8.877 -0.1560  0.1322 -0.6694
  147SAPE  H16Y16290   5.522   5.267   8.787 -0.3438  3.0594 -0.5727
  147SAPE  C31716291   5.708   5.250   8.678  0.1956 -0.0943  0.3470
  147SAPE  H17X16292   5.692   5.346   8.624  1.4910 -1.4493 -2.6266
  147SAPE  H17Y16293   5.680   5.169   8.608  1.2792 -0.9237  0.8428
  147SAPE  C31816294   5.854   5.245   8.709  0.6625 -0.8574 -0.1922
  147SAPE  H18X16295   5.879   5.304   8.800 -2.4257  0.2790  0.0318
  147SAPE  H18Y16296   5.913   5.288   8.626  1.4363  1.4945  1.4438
  147SAPE  H18Z16297   5.884   5.141   8.732  3.3976  0.1436  1.2285
  148SAPE     N16298   6.153   0.197  10.724 -0.0493  0.4954 -0.6481
  148SAPE   HN116299   6.233   0.161  10.669 -0.2336 -0.7326 -0.1373
  148SAPE   HN216300   6.127   0.289  10.684  0.4539  1.5114  1.2176
  148SAPE   HN316301   6.179   0.206  10.825  0.7785 -3.9559 -0.2519
  148SAPE   C1216302   6.039   0.105  10.713 -0.5347 -0.6952  0.4185
  148SAPE  H12A16303   6.070   0.003  10.746 -0.1282 -0.8544 -0.4185
  148SAPE  H12B16304   6.003   0.119  10.609  0.0594 -0.0809  0.2902
  148SAPE   C1116305   5.923   0.165  10.799 -0.4793 -0.2290 -0.1304
  148SAPE  H11A16306   5.949   0.180  10.905 -0.3220  0.1506 -0.2234
  148SAPE  H11B16307   5.838   0.093  10.797 -1.7357  1.1788 -2.8027
  148SAPE     P16308   5.807   0.337  10.623  0.2928  0.0692 -0.2629
  148SAPE   O1316309   5.671   0.376  10.674 -0.2247  0.7114 -0.6158
  148SAPE   O1416310   5.890   0.438  10.550  0.7028  0.1329  0.2626
  148SAPE   O1216311   5.888   0.296  10.755  0.5226 -0.0931  0.1630
  148SAPE   O1116312   5.795   0.206  10.545 -0.0522 -0.1523  0.1912
  148SAPE    C116313   5.716   0.200  10.422 -0.1803  0.0940  0.0306
  148SAPE    HA16314   5.638   0.120  10.423 -1.3664  1.1578 -1.7526
  148SAPE    HB16315   5.658   0.289  10.389 -1.6237 -0.9656 -0.4347
  148SAPE    C216316   5.815   0.166  10.309  0.1293  0.2424  0.3667
  148SAPE    HS16317   5.857   0.068  10.340  0.6226  0.3994  0.1938
  148SAPE   O2116318   5.902   0.267  10.293 -0.7252  0.4491  0.7636
  148SAPE   C2116319   6.025   0.234  10.278 -0.6088  0.1368  1.0055
  148SAPE   O2216320   6.077   0.129  10.293 -0.2423  0.1044 -0.0300
  148SAPE   C2216321   6.101   0.356  10.232  0.4475 -0.9605  0.2832
  148SAPE   H2R16322   6.068   0.431  10.307  0.9302 -2.2340  1.8331
  148SAPE   H2S16323   6.208   0.333  10.216  0.5260 -0.4742  0.1087
  148SAPE    C316324   5.734   0.144  10.180  0.3372  0.8820  0.5363
  148SAPE    HX16325   5.644   0.209  10.173 -1.7616 -1.8210  0.7011
  148SAPE    HY16326   5.696   0.040  10.176 -0.0935  1.0748 -1.1766
  148SAPE   O3116327   5.820   0.179  10.072 -0.3471  0.0664  0.1229
  148SAPE   C3116328   5.840   0.091   9.974  0.0053  0.2995  0.5382
  148SAPE   O3216329   5.788  -0.021   9.962  0.6695 -0.8022 -0.3177
  148SAPE   C3216330   5.935   0.146   9.866  0.6951 -0.1065 -0.0300
  148SAPE   H2X16331   6.021   0.077   9.860  0.0868 -0.8213 -0.9171
  148SAPE   H2Y16332   5.975   0.248   9.879  0.0991  0.8498 -4.2858
  148SAPE   C2316333   6.045   0.409  10.098 -0.2332 -0.0354  0.3396
  148SAPE   H3R16334   5.935   0.426  10.103 -0.3083 -0.2157 -0.5253
  148SAPE   H3S16335   6.062   0.337  10.015 -2.6728  0.1960 -0.4427
  148SAPE   C2416336   6.105   0.550  10.057 -0.3885  0.0592  0.5837
  148SAPE   H4R16337   6.207   0.514  10.033 -0.1116  1.3365 -0.2913
  148SAPE   H4S16338   6.115   0.620  10.143 -1.4698 -0.3814  1.1014
  148SAPE   C2516339   6.050   0.607   9.934  0.2603 -0.2836 -0.1252
  148SAPE   H5R16340   5.961   0.672   9.947  0.8142  1.2495 -3.1310
  148SAPE   C2616341   6.092   0.584   9.805  0.1053 -0.1744  0.0745
  148SAPE   H6R16342   6.055   0.643   9.719  0.2129  1.4754  1.1247
  148SAPE   C2716343   6.206   0.498   9.756  0.4551  0.4058 -0.3616
  148SAPE   H7R16344   6.174   0.395   9.783  3.4406 -0.5852 -0.1925
  148SAPE   H7S16345   6.297   0.491   9.820 -0.7891  0.7683  1.5385
  148SAPE   C2816346   6.257   0.509   9.611  0.6871  0.3005  0.8161
  148SAPE   H8R16347   6.253   0.418   9.549 -0.8905  0.4800  0.6201
  148SAPE   C2916348   6.293   0.624   9.545 -0.4537 -0.4682 -0.1676
  148SAPE   H9R16349   6.324   0.608   9.440 -0.3815 -2.5789  0.1247
  148SAPE  C21016350   6.286   0.773   9.597 -0.4299 -0.1246  0.5896
  148SAPE  H10R16351   6.392   0.807   9.589  1.0954 -4.0329  1.7733
  148SAPE  H10S16352   6.272   0.773   9.707 -0.0362 -1.5154  0.6568
  148SAPE  C21116353   6.188   0.858   9.527 -1.0196 -0.0239 -0.5711
  148SAPE  H11R16354   6.085   0.839   9.561 -1.1206  1.2718 -0.0975
  148SAPE  C21216355   6.205   0.940   9.432 -0.1326  0.2506  0.0016
  148SAPE  H12R16356   6.112   0.991   9.403 -0.6087 -0.9614 -0.6909
  148SAPE  C21316357   6.323   0.983   9.353 -0.0709  0.4855  0.1716
  148SAPE  H13R16358   6.415   0.945   9.402  1.3987 -0.0678 -2.7773
  148SAPE  H13S16359   6.330   1.094   9.345  0.3402  0.3642 -1.8158
  148SAPE  C21416360   6.320   0.930   9.214  0.5114 -0.0868 -0.4045
  148SAPE  H14R16361   6.259   0.842   9.189  1.5234 -0.3426 -2.0845
  148SAPE  C21516362   6.399   0.987   9.118  0.3212  0.9984 -0.3414
  148SAPE  H15R16363   6.377   0.959   9.014 -3.0145  1.7092  0.0515
  148SAPE  C21616364   6.503   1.094   9.131 -0.7337 -0.8401 -0.1647
  148SAPE  H16R16365   6.594   1.072   9.071 -0.2343 -3.9470  1.5445
  148SAPE  H16S16366   6.552   1.091   9.231 -0.7823  2.1516  0.0560
  148SAPE  C21716367   6.451   1.235   9.093  0.4138  0.0402  0.6708
  148SAPE  H17R16368   6.530   1.312   9.081  0.3021 -0.1114 -1.3974
  148SAPE  H17S16369   6.391   1.266   9.181  0.4745  1.9796  0.0703
  148SAPE  C21816370   6.378   1.233   8.957 -0.4457  0.1620 -0.7025
  148SAPE  H18R16371   6.295   1.160   8.962  0.6257 -1.2672 -2.4651
  148SAPE  H18S16372   6.453   1.193   8.885  0.6737  2.2760 -0.7820
  148SAPE  C21916373   6.340   1.376   8.906  0.6697 -0.7113  0.2964
  148SAPE  H19R16374   6.278   1.425   8.985 -0.5142 -0.8241 -0.5334
  148SAPE  H19S16375   6.270   1.373   8.820  1.6436  3.2200 -0.8371
  148SAPE  C22016376   6.460   1.467   8.875  0.0269  0.2927  0.3796
  148SAPE  H20R16377   6.528   1.397   8.821  0.7687  1.5721 -0.3753
  148SAPE  H20S16378   6.518   1.502   8.962 -0.0768 -0.8183  0.9124
  148SAPE  H20T16379   6.445   1.546   8.798  5.3565 -0.5512 -1.9596
  148SAPE   C3316380   5.871   0.140   9.724 -0.1909 -0.2415 -0.5207
  148SAPE   H3X16381   5.797   0.222   9.715  1.3153  1.5664  2.2285
  148SAPE   H3Y16382   5.819   0.043   9.709 -2.0045  0.5697  0.3195
  148SAPE   C3416383   5.969   0.147   9.604  0.4211  0.3506  0.2832
  148SAPE   H4X16384   6.059   0.087   9.627  1.0697  1.0352 -0.4097
  148SAPE   H4Y16385   6.006   0.251   9.590  0.3643  0.2853 -0.3689
  148SAPE   C3516386   5.890   0.108   9.474  0.2813 -0.1753 -0.1821
  148SAPE   H5X16387   5.807   0.179   9.453 -0.3883 -1.4912 -2.3178
  148SAPE   H5Y16388   5.834   0.015   9.498 -0.9665  0.6001  0.0113
  148SAPE   C3616389   5.976   0.106   9.349 -0.1722  0.0534 -0.6810
  148SAPE   H6X16390   6.056   0.030   9.364 -0.4501 -0.2745 -0.8256
  148SAPE   H6Y16391   6.023   0.206   9.344 -1.0334  0.5419  0.5196
  148SAPE   C3716392   5.899   0.077   9.218  0.5490 -0.1891 -0.1937
  148SAPE   H7X16393   5.842   0.163   9.178  1.3688 -1.0484 -3.5003
  148SAPE   H7Y16394   5.833  -0.012   9.234  0.7909 -0.2300  0.6323
  148SAPE   C3816395   5.987   0.058   9.101 -0.0739  0.5516 -0.4189
  148SAPE   H8X16396   6.043  -0.038   9.108  1.2129  0.9428 -3.6910
  148SAPE   H8Y16397   6.064   0.138   9.095 -1.0037  1.3532 -3.0169
  148SAPE   C3916398   5.906   0.049   8.970  0.6412  0.5647  0.4731
  148SAPE   H9X16399   5.805   0.005   8.985  1.6578 -3.1055 -2.0640
  148SAPE   H9Y16400   5.969  -0.008   8.898  1.9919  3.0511 -0.4334
  148SAPE  C31016401   5.902   0.183   8.903  0.4325 -0.1178  0.4574
  148SAPE  H10X16402   5.998   0.237   8.888  1.3216 -2.4694 -3.6907
  148SAPE  H10Y16403   5.829   0.242   8.963  0.3877  1.2011 -0.8257
  148SAPE  C31116404   5.836   0.186   8.762 -0.4845  0.4792  0.0493
  148SAPE  H11X16405   5.815   0.288   8.724  0.3553  1.5970  2.3463
  148SAPE  H11Y16406   5.734   0.143   8.770  0.2622 -1.1811  1.2886
  148SAPE  C31216407   5.919   0.109   8.663  0.2770 -0.0804  0.1789
  148SAPE  H12X16408   5.872   0.008   8.665 -1.9208  0.8342 -1.3081
  148SAPE  H12Y16409   6.020   0.105   8.708 -0.0322  0.2963  0.9180
  148SAPE  C31316410   5.918   0.168   8.521  0.0386  0.6597  0.0811
  148SAPE  H13X16411   5.989   0.099   8.470  1.1937  1.1450  0.9673
  148SAPE  H13Y16412   5.970   0.266   8.511  0.9578  0.1945  0.1032
  148SAPE  C31416413   5.780   0.178   8.454 -0.1520  0.2482  0.6157
  148SAPE  H14X16414   5.718   0.250   8.511 -1.5117 -0.2109 -0.2432
  148SAPE  H14Y16415   5.730   0.079   8.455  0.5034 -0.1038 -0.0505
  148SAPE  C31516416   5.803   0.227   8.302  0.3820  0.2187  0.1633
  148SAPE  H15X16417   5.863   0.154   8.243 -0.3286 -0.5011  0.3085
  148SAPE  H15Y16418   5.848   0.328   8.299  0.7418  0.0410 -1.1447
  148SAPE  C31616419   5.677   0.241   8.220  0.6303  0.3780  0.9268
  148SAPE  H16X16420   5.592   0.295   8.269 -1.1735 -0.7891 -0.7923
  148SAPE  H16Y16421   5.643   0.138   8.195 -0.2875  0.8925 -0.0318
  148SAPE  C31716422   5.697   0.302   8.077 -0.5250 -0.3742 -0.2398
  148SAPE  H17X16423   5.759   0.232   8.017 -0.9225 -0.9148 -0.0376
  148SAPE  H17Y16424   5.739   0.404   8.081 -0.0776 -0.5859  1.6602
  148SAPE  C31816425   5.564   0.301   8.007 -0.0013 -0.0214 -0.0271
  148SAPE  H18X16426   5.560   0.345   7.905  0.5326  0.3768  0.1216
  148SAPE  H18Y16427   5.497   0.363   8.070  0.6852 -0.5172  1.2152
  148SAPE  H18Z16428   5.530   0.195   8.007 -2.2720  0.6669  0.1376
  149SAPE     N16429   1.425   4.554  11.197  0.1702 -0.8253  0.3936
  149SAPE   HN116430   1.376   4.533  11.286 -1.5473 -0.4748 -0.4311
  149SAPE   HN216431   1.529   4.554  11.203  0.1884 -1.0248  0.0833
  149SAPE   HN316432   1.399   4.653  11.178  0.7935 -0.7377 -0.0269
  149SAPE   C1216433   1.380   4.468  11.080  0.1509  0.3067 -0.2425
  149SAPE  H12A16434   1.398   4.524  10.986 -2.4964  2.3367  0.3296
  149SAPE  H12B16435   1.269   4.463  11.080  0.1503  0.2737  0.2942
  149SAPE   C1116436   1.458   4.337  11.077  1.0492  0.4462 -0.0772
  149SAPE  H11A16437   1.422   4.278  10.990 -0.4250  2.1098 -0.6640
  149SAPE  H11B16438   1.425   4.273  11.162  0.1464 -0.0921 -0.8229
  149SAPE     P16439   1.684   4.416  10.966 -0.1702  0.1672 -0.0289
  149SAPE   O1316440   1.624   4.545  10.920  0.1252  0.2705 -0.7221
  149SAPE   O1416441   1.826   4.419  11.014  0.1649 -0.3833 -0.8176
  149SAPE   O1216442   1.596   4.356  11.083  0.3340 -0.5271 -0.1987
  149SAPE   O1116443   1.671   4.307  10.854 -0.2125 -0.3253 -0.3368
  149SAPE    C116444   1.740   4.187  10.852  0.7885  0.5006 -0.2341
  149SAPE    HA16445   1.783   4.161  10.951 -1.2982 -0.3705  0.5067
  149SAPE    HB16446   1.662   4.112  10.828  0.4934  0.5405  0.5457
  149SAPE    C216447   1.836   4.185  10.738 -0.0215  0.4494 -0.1540
  149SAPE    HS16448   1.922   4.250  10.765  1.0716 -0.0627 -2.1940
  149SAPE   O2116449   1.766   4.210  10.615  0.1949  0.2150 -0.2149
  149SAPE   C2116450   1.784   4.333  10.573  0.9150  0.4955  0.2405
  149SAPE   O2216451   1.859   4.411  10.624  0.0084  0.6339 -0.5841
  149SAPE   C2216452   1.693   4.370  10.455  1.1476 -0.1417 -0.4677
  149SAPE   H2R16453   1.589   4.356  10.493  0.2506  1.4163 -2.1560
  149SAPE   H2S16454   1.709   4.477  10.428  0.7620  0.8389  2.7761
  149SAPE    C316455   1.895   4.041  10.726  0.0339  0.3790  0.2610
  149SAPE    HX16456   1.811   3.969  10.735 -1.4017  1.8112 -1.1284
  149SAPE    HY16457   1.960   4.020  10.813 -2.2662 -1.4456  1.6654
  149SAPE   O3116458   1.948   4.019  10.597 -0.3271 -0.0055  0.1709
  149SAPE   C3116459   2.075   4.071  10.590 -0.1702  0.1159  0.0851
  149SAPE   O3216460   2.130   4.138  10.676  0.4599 -0.0644  0.2171
  149SAPE   C3216461   2.152   4.009  10.474  0.0938 -0.1013 -0.0315
  149SAPE   H2X16462   2.095   3.922  10.434 -0.8139  0.1618  0.6496
  149SAPE   H2Y16463   2.240   3.960  10.521  1.5591  1.8333 -0.6511
  149SAPE   C2316464   1.718   4.290  10.326  0.3082 -0.8113 -0.6785
  149SAPE   H3R16465   1.716   4.181  10.348 -0.0480 -0.4153  1.5455
  149SAPE   H3S16466   1.820   4.307  10.285  0.4755 -2.9383 -1.2299
  149SAPE   C2416467   1.615   4.319  10.216 -0.3917  0.1530 -0.4992
  149SAPE   H4R16468   1.593   4.426  10.234  1.7314  0.7819 -1.3600
  149SAPE   H4S16469   1.519   4.263  10.224 -2.0313  2.3173 -3.0730
  149SAPE   C2516470   1.657   4.298  10.070 -0.5006 -0.7406  0.0244
  149SAPE   H5R16471   1.698   4.198  10.048 -3.1458 -1.5266 -1.9476
  149SAPE   C2616472   1.645   4.392   9.969 -0.3847  0.4925 -0.5577
  149SAPE   H6R16473   1.679   4.360   9.870 -2.2468 -1.7568 -0.5548
  149SAPE   C2716474   1.586   4.528   9.988  0.0801  0.0023 -0.7047
  149SAPE   H7R16475   1.595   4.563  10.094 -1.0859 -1.7385  0.0147
  149SAPE   H7S16476   1.476   4.524   9.979 -0.0519  0.0973  0.5700
  149SAPE   C2816477   1.649   4.626   9.895 -0.0293 -0.4424 -0.7058
  149SAPE   H8R16478   1.724   4.695   9.938 -0.1383 -1.4258  1.1239
  149SAPE   C2916479   1.644   4.637   9.761 -0.2325  0.2177  0.5788
  149SAPE   H9R16480   1.709   4.709   9.708  0.7194 -0.0272  1.3653
  149SAPE  C21016481   1.557   4.558   9.668  1.2084 -0.2509  0.1880
  149SAPE  H10R16482   1.500   4.631   9.607 -0.5601 -1.9727 -0.3167
  149SAPE  H10S16483   1.479   4.498   9.719  0.7373 -0.7777 -1.1088
  149SAPE  C21116484   1.648   4.465   9.596 -0.9077  0.6106  0.3532
  149SAPE  H11R16485   1.703   4.395   9.661  0.5104  1.6162  0.2818
  149SAPE  C21216486   1.679   4.455   9.464  0.2389 -0.0134  0.8384
  149SAPE  H12R16487   1.745   4.375   9.429  0.5158  0.7236 -0.3863
  149SAPE  C21316488   1.607   4.531   9.351  0.4663 -0.0369 -0.2083
  149SAPE  H13R16489   1.506   4.549   9.391 -0.2915  0.0301 -2.0653
  149SAPE  H13S16490   1.579   4.468   9.263 -2.7628  1.8083 -0.6480
  149SAPE  C21416491   1.671   4.658   9.300 -0.0036  0.5713  0.1664
  149SAPE  H14R16492   1.696   4.730   9.380 -2.5349  0.7490  0.8666
  149SAPE  C21516493   1.710   4.681   9.173  0.9751  0.5562 -0.5862
  149SAPE  H15R16494   1.754   4.778   9.145 -2.0368  1.3916 -2.9629
  149SAPE  C21616495   1.699   4.586   9.051 -0.0038  0.5940  0.5571
  149SAPE  H16R16496   1.637   4.637   8.974  0.9647  1.1021  0.1100
  149SAPE  H16S16497   1.647   4.490   9.074  1.6631 -0.8647 -1.4073
  149SAPE  C21716498   1.839   4.562   8.989 -0.2975 -0.3698 -0.3671
  149SAPE  H17R16499   1.895   4.490   9.052 -2.8519 -0.0670  2.4815
  149SAPE  H17S16500   1.891   4.660   8.992 -2.1177  0.6235  1.0245
  149SAPE  C21816501   1.829   4.516   8.845 -0.3258 -0.2727  0.0176
  149SAPE  H18R16502   1.932   4.507   8.804 -0.4657 -1.2383 -0.1500
  149SAPE  H18S16503   1.775   4.600   8.796  1.8174  1.2487  0.1455
  149SAPE  C21916504   1.762   4.378   8.831  0.1316 -0.9100 -0.2649
  149SAPE  H19R16505   1.745   4.359   8.723 -0.8521  0.1231 -0.3216
  149SAPE  H19S16506   1.656   4.388   8.863  0.3836  1.1887  0.0885
  149SAPE  C22016507   1.830   4.259   8.906 -0.1560  0.3837 -0.1490
  149SAPE  H20R16508   1.932   4.257   8.862  0.1799  1.0915  0.5708
  149SAPE  H20S16509   1.780   4.166   8.873  2.3150 -0.3441 -2.1371
  149SAPE  H20T16510   1.822   4.266   9.017 -1.0394 -1.2991 -0.0671
  149SAPE   C3316511   2.198   4.109  10.374 -0.9291  0.2036  0.8941
  149SAPE   H3X16512   2.263   4.057  10.300 -2.5522  0.2495 -0.6340
  149SAPE   H3Y16513   2.257   4.186  10.428 -1.7975 -1.7404  5.0150
  149SAPE   C3416514   2.090   4.171  10.276 -0.2906  0.0728 -0.1460
  149SAPE   H4X16515   2.034   4.245  10.336  0.5394  0.5002  0.1236
  149SAPE   H4Y16516   2.019   4.095  10.238  0.0019  0.6642 -1.9990
  149SAPE   C3516517   2.147   4.238  10.155 -0.2818 -0.6656 -0.0187
  149SAPE   H5X16518   2.218   4.174  10.099  1.9094 -0.0358  1.8889
  149SAPE   H5Y16519   2.208   4.329  10.177 -0.8421  0.0009 -1.1091
  149SAPE   C3616520   2.044   4.271  10.048  0.0244 -0.2117 -0.0843
  149SAPE   H6X16521   1.978   4.353  10.084  2.1476  0.3466  2.9698
  149SAPE   H6Y16522   1.989   4.181  10.014  0.0840  0.0330 -0.8480
  149SAPE   C3716523   2.114   4.320   9.917 -0.5170  0.2185  0.1943
  149SAPE   H7X16524   2.200   4.252   9.902  0.8531  1.9093  0.0954
  149SAPE   H7Y16525   2.163   4.415   9.947 -0.7927  0.1295  0.9687
  149SAPE   C3816526   2.029   4.337   9.792 -0.1211 -0.1434 -0.5990
  149SAPE   H8X16527   1.939   4.397   9.818  0.7785  0.8757  0.2957
  149SAPE   H8Y16528   1.986   4.239   9.761 -1.0519  0.9348 -2.9520
  149SAPE   C3916529   2.113   4.395   9.674  0.2897 -0.4747  0.3526
  149SAPE   H9X16530   2.200   4.326   9.665  1.2727  0.9787 -2.6061
  149SAPE   H9Y16531   2.154   4.491   9.711 -2.0062  0.4311  0.7336
  149SAPE  C31016532   2.041   4.407   9.542  0.3438 -0.3043 -0.1094
  149SAPE  H10X16533   1.971   4.493   9.544  1.6622  0.7968  0.7547
  149SAPE  H10Y16534   1.973   4.324   9.517 -1.3469  0.4931  1.5590
  149SAPE  C31116535   2.142   4.429   9.436  0.7990  0.0326  1.1315
  149SAPE  H11X16536   2.213   4.343   9.435  1.5088  0.6104  1.3736
  149SAPE  H11Y16537   2.201   4.520   9.456 -1.4110  1.9852 -0.6103
  149SAPE  C31216538   2.082   4.426   9.288 -0.2521  0.2591  0.3424
  149SAPE  H12X16539   2.007   4.505   9.267 -0.2700  0.5138  1.3368
  149SAPE  H12Y16540   2.041   4.323   9.277  1.0742 -0.5538  2.4033
  149SAPE  C31316541   2.197   4.430   9.190  0.2530 -0.6683  0.5508
  149SAPE  H13X16542   2.264   4.344   9.213 -0.6527 -1.2645  0.9781
  149SAPE  H13Y16543   2.254   4.526   9.191 -0.2661 -0.3189 -0.6957
  149SAPE  C31416544   2.160   4.405   9.043 -0.2519 -0.3172  0.0545
  149SAPE  H14X16545   2.118   4.497   8.999 -0.4466 -0.9301 -1.0890
  149SAPE  H14Y16546   2.075   4.333   9.043  0.6978 -1.4816 -0.2851
  149SAPE  C31516547   2.280   4.365   8.956  0.3321 -0.1494 -0.2535
  149SAPE  H15X16548   2.340   4.279   8.993  0.5289 -0.8813 -2.1908
  149SAPE  H15Y16549   2.342   4.457   8.948 -1.7524  1.3127 -0.1575
  149SAPE  C31616550   2.237   4.308   8.820  0.3652 -0.5125 -0.5419
  149SAPE  H16X16551   2.159   4.374   8.776 -0.8214 -2.3830 -1.3668
  149SAPE  H16Y16552   2.185   4.210   8.829  0.3754 -0.4448  0.3578
  149SAPE  C31716553   2.366   4.298   8.730  0.5497  0.3402 -0.2351
  149SAPE  H17X16554   2.431   4.217   8.768  0.5810 -0.3226 -1.6603
  149SAPE  H17Y16555   2.425   4.388   8.758  0.2780 -0.1948  2.2767
  149SAPE  C31816556   2.347   4.279   8.579  0.1292  0.4004  0.2385
  149SAPE  H18X16557   2.326   4.172   8.557 -2.9639  1.0106 -0.3551
  149SAPE  H18Y16558   2.436   4.315   8.523  0.4166 -1.5329 -0.6266
  149SAPE  H18Z16559   2.261   4.343   8.549  0.3673  1.9225  2.5950
  150SAPE     N16560   3.307   2.702  10.890  0.2642 -0.1375  0.1245
  150SAPE   HN116561   3.338   2.641  10.969  1.9003  1.7518  1.0632
  150SAPE   HN216562   3.326   2.797  10.930 -1.1778  0.0107  0.4948
  150SAPE   HN316563   3.205   2.692  10.877  0.0639 -1.6766  2.3289
  150SAPE   C1216564   3.392   2.686  10.761  0.5257  0.0143 -0.0827
  150SAPE  H12A16565   3.314   2.651  10.690 -1.6535 -0.6497  2.4689
  150SAPE  H12B16566   3.466   2.604  10.780  2.5815  1.4945 -1.2820
  150SAPE   C1116567   3.459   2.817  10.720 -0.1164  0.0975  0.1702
  150SAPE  H11A16568   3.532   2.801  10.638  2.5795  2.9827  1.7433
  150SAPE  H11B16569   3.512   2.866  10.806 -2.1612  0.2882  1.3849
  150SAPE     P16570   3.402   3.043  10.612  0.1472  0.0920 -0.0135
  150SAPE   O1316571   3.301   3.143  10.657 -0.2119 -0.2622 -0.0778
  150SAPE   O1416572   3.544   3.065  10.640 -0.2646 -0.2163 -0.2896
  150SAPE   O1216573   3.360   2.913  10.675 -0.6600  0.5557 -0.6323
  150SAPE   O1116574   3.389   3.019  10.453 -0.1647 -1.1319 -0.3254
  150SAPE    C116575   3.285   2.948  10.387 -0.5687 -0.3106 -0.4627
  150SAPE    HA16576   3.288   2.844  10.427  3.2136  0.5873  2.1286
  150SAPE    HB16577   3.185   2.995  10.387 -1.1553 -1.4605 -2.4860
  150SAPE    C216578   3.324   2.935  10.239 -0.5713  0.2148 -0.6535
  150SAPE    HS16579   3.318   3.031  10.183  0.3247  0.5046 -0.2670
  150SAPE   O2116580   3.258   2.826  10.166  0.1882  0.2172  0.2816
  150SAPE   C2116581   3.132   2.855  10.132 -0.1791 -0.3601  0.2343
  150SAPE   O2216582   3.070   2.956  10.167 -0.3779  0.0036  0.0517
  150SAPE   C2216583   3.076   2.735  10.057  0.2827 -0.6130 -0.3169
  150SAPE   H2R16584   3.159   2.667  10.028  2.3607  0.9263  1.6578
  150SAPE   H2S16585   3.002   2.691  10.127  0.7792  1.1152  1.3846
  150SAPE    C316586   3.477   2.903  10.226  0.0913 -0.5268  0.3122
  150SAPE    HX16587   3.510   2.815  10.285  1.5201  0.3595  0.8912
  150SAPE    HY16588   3.527   2.992  10.271 -1.2571  2.9893 -4.2995
  150SAPE   O3116589   3.522   2.904  10.089 -0.2942  0.0599 -0.4502
  150SAPE   C3116590   3.599   2.805  10.056 -0.6645 -0.1854  0.4486
  150SAPE   O3216591   3.651   2.726  10.134 -0.6029  0.6832  1.0450
  150SAPE   C3216592   3.608   2.797   9.906  0.8824  0.4366  0.6101
  150SAPE   H2X16593   3.682   2.875   9.878  0.7816 -0.0916 -1.3124
  150SAPE   H2Y16594   3.509   2.816   9.860  1.0870  0.2747  0.0896
  150SAPE   C2316595   3.018   2.783   9.919 -0.3465  0.4586 -0.9851
  150SAPE   H3R16596   2.937   2.857   9.935  1.3140  1.7967  1.9591
  150SAPE   H3S16597   2.973   2.688   9.882  1.1803 -0.3162 -0.9347
  150SAPE   C2416598   3.115   2.829   9.811  0.3313  0.5483 -0.4886
  150SAPE   H4R16599   3.199   2.883   9.861 -1.5362  2.5832  0.6596
  150SAPE   H4S16600   3.067   2.910   9.751  0.6022  0.8122 -0.3554
  150SAPE   C2516601   3.179   2.718   9.730 -0.0706 -0.6237  0.3284
  150SAPE   H5R16602   3.205   2.625   9.782 -1.5793 -1.2514  0.0191
  150SAPE   C2616603   3.225   2.729   9.603 -0.5936 -0.1171 -0.5886
  150SAPE   H6R16604   3.283   2.641   9.573 -0.5354 -0.1852 -0.2747
  150SAPE   C2716605   3.211   2.856   9.521 -0.2264 -0.9423 -0.4373
  150SAPE   H7R16606   3.299   2.867   9.454 -0.5918  1.5024 -0.6115
  150SAPE   H7S16607   3.200   2.955   9.571 -0.2677 -0.5346 -1.2339
  150SAPE   C2816608   3.080   2.838   9.446  0.0142  0.7350  0.0249
  150SAPE   H8R16609   2.996   2.798   9.506  1.2049 -2.5539 -0.3079
  150SAPE   C2916610   3.052   2.863   9.314  0.3422 -0.5966  0.6761
  150SAPE   H9R16611   2.948   2.891   9.292  0.4443  1.2989  2.2434
  150SAPE  C21016612   3.144   2.910   9.207 -0.4796  0.7916  0.3971
  150SAPE  H10R16613   3.246   2.893   9.246 -0.1925  1.5445 -0.0111
  150SAPE  H10S16614   3.130   3.020   9.192  1.3289  0.9304 -0.4690
  150SAPE  C21116615   3.138   2.835   9.073  0.0613 -0.3441  0.1308
  150SAPE  H11R16616   3.205   2.751   9.050 -1.3811 -1.0926 -1.5304
  150SAPE  C21216617   3.050   2.868   8.975  0.1011 -0.0841 -1.1538
  150SAPE  H12R16618   3.037   2.807   8.884  0.5208  0.2739 -1.4551
  150SAPE  C21316619   2.948   2.979   8.976 -0.3064  0.3276 -0.5872
  150SAPE  H13R16620   2.967   3.037   8.883  2.9776  0.2354 -0.1193
  150SAPE  H13S16621   2.964   3.048   9.061 -0.4039  0.3392 -0.5788
  150SAPE  C21416622   2.800   2.950   8.974  0.3656 -0.4099 -0.1864
  150SAPE  H14R16623   2.762   2.902   9.065  0.6304 -0.4023 -0.0713
  150SAPE  C21516624   2.718   2.964   8.865 -0.4573  0.6770  0.0836
  150SAPE  H15R16625   2.609   2.961   8.883 -0.2871  1.6183  1.3915
  150SAPE  C21616626   2.761   3.017   8.728  0.1481 -0.0204 -0.5822
  150SAPE  H16R16627   2.711   2.954   8.651 -0.7814 -2.2382  1.7095
  150SAPE  H16S16628   2.870   3.006   8.707  0.0216 -1.1400 -0.7547
  150SAPE  C21716629   2.735   3.169   8.693 -1.1101 -0.2367 -0.7917
  150SAPE  H17R16630   2.819   3.219   8.748 -2.0158  0.9936 -0.4872
  150SAPE  H17S16631   2.641   3.197   8.745  1.0260 -0.1424  3.4968
  150SAPE  C21816632   2.734   3.215   8.544 -0.3982  0.3339  0.2199
  150SAPE  H18R16633   2.810   3.161   8.485  1.1963  2.2122  0.4470
  150SAPE  H18S16634   2.745   3.326   8.546  1.5745  0.1833 -0.7140
  150SAPE  C21916635   2.605   3.180   8.469  0.0890  0.6307  0.4781
  150SAPE  H19R16636   2.576   3.074   8.485  0.6889  0.4928  0.6819
  150SAPE  H19S16637   2.623   3.186   8.359 -1.7282 -0.5968  0.0754
  150SAPE  C22016638   2.489   3.276   8.504 -0.0118 -0.1359  0.4341
  150SAPE  H20R16639   2.398   3.230   8.460  2.4147 -4.7846 -0.3977
  150SAPE  H20S16640   2.508   3.375   8.457  1.6127 -1.7419 -2.6009
  150SAPE  H20T16641   2.471   3.281   8.613  1.6602 -1.0133  0.7834
  150SAPE   C3316642   3.666   2.655   9.867  0.0579  0.2501 -0.5063
  150SAPE   H3X16643   3.591   2.574   9.865  1.7491 -1.5669  2.2077
  150SAPE   H3Y16644   3.752   2.629   9.934  1.3355 -1.0339 -2.5323
  150SAPE   C3416645   3.733   2.666   9.730 -0.1147 -0.2451 -0.3464
  150SAPE   H4X16646   3.788   2.573   9.705 -0.6066 -0.6493  0.0400
  150SAPE   H4Y16647   3.818   2.738   9.727  0.4777 -0.4026  4.3070
  150SAPE   C3516648   3.629   2.698   9.627 -0.0503 -0.2803 -0.0457
  150SAPE   H5X16649   3.576   2.790   9.660 -0.4136 -1.4585  2.8939
  150SAPE   H5Y16650   3.553   2.618   9.635  0.5371 -0.7204  1.4109
  150SAPE   C3616651   3.692   2.688   9.488 -0.0590  0.1699 -0.1097
  150SAPE   H6X16652   3.758   2.599   9.484 -1.2630 -0.7187 -0.5947
  150SAPE   H6Y16653   3.763   2.773   9.473 -0.0269  0.0382 -0.7255
  150SAPE   C3716654   3.602   2.695   9.367 -0.2051 -0.2843  0.6555
  150SAPE   H7X16655   3.548   2.792   9.377 -0.9250 -0.6464  0.3240
  150SAPE   H7Y16656   3.536   2.607   9.357 -1.0976  0.4182  0.2238
  150SAPE   C3816657   3.674   2.709   9.231 -0.3176 -0.0111  0.0157
  150SAPE   H8X16658   3.710   2.609   9.201  4.2996  1.5059 -0.2567
  150SAPE   H8Y16659   3.766   2.771   9.240  0.4962 -1.4302  2.0039
  150SAPE   C3916660   3.577   2.753   9.118 -0.5783  0.6235  0.1798
  150SAPE   H9X16661   3.563   2.863   9.131 -0.2790  0.8061 -0.9708
  150SAPE   H9Y16662   3.486   2.689   9.123  1.1829 -1.9971  0.7931
  150SAPE  C31016663   3.650   2.725   8.985 -0.0641  0.5951  0.2378
  150SAPE  H10X16664   3.637   2.616   8.967 -2.1649  0.2821  3.0391
  150SAPE  H10Y16665   3.758   2.753   8.987 -0.4233  2.0174  0.5345
  150SAPE  C31116666   3.587   2.803   8.867  1.0737  0.0930 -0.0739
  150SAPE  H11X16667   3.590   2.913   8.876 -1.3606  0.1529  0.5829
  150SAPE  H11Y16668   3.481   2.773   8.879  1.5076 -0.7176  2.2672
  150SAPE  C31216669   3.643   2.762   8.734 -0.4965  1.1898  0.1381
  150SAPE  H12X16670   3.647   2.651   8.745  0.5173  1.3277  1.3712
  150SAPE  H12Y16671   3.751   2.783   8.722 -0.3572  0.2201 -0.4434
  150SAPE  C31316672   3.573   2.799   8.612 -0.0075  0.4205 -0.4431
  150SAPE  H13X16673   3.632   2.751   8.531 -0.7910 -2.4631  0.5824
  150SAPE  H13Y16674   3.576   2.907   8.586  0.0483  0.9244  1.4655
  150SAPE  C31416675   3.428   2.757   8.599  0.4383  0.9295 -0.1615
  150SAPE  H14X16676   3.375   2.798   8.511 -0.4093 -1.9800 -1.1290
  150SAPE  H14Y16677   3.374   2.787   8.691 -0.1805  1.4781 -0.6976
  150SAPE  C31516678   3.403   2.595   8.591 -0.1805  0.4035 -0.0895
  150SAPE  H15X16679   3.296   2.569   8.601  0.3461 -2.6388 -1.2725
  150SAPE  H15Y16680   3.451   2.547   8.680  0.3488 -1.1502 -1.1782
  150SAPE  C31616681   3.452   2.531   8.461  0.4207  0.2668 -0.7351
  150SAPE  H16X16682   3.561   2.551   8.454  0.4256  0.0728 -1.2942
  150SAPE  H16Y16683   3.414   2.588   8.373  2.7393  2.5067 -0.4056
  150SAPE  C31716684   3.445   2.380   8.442  1.3336  0.1976  0.4282
  150SAPE  H17X16685   3.517   2.351   8.361  0.9312  0.6664 -0.1054
  150SAPE  H17Y16686   3.343   2.356   8.406  0.6227  1.2822  1.6398
  150SAPE  C31816687   3.466   2.298   8.566 -0.1596 -0.1013  0.1507
  150SAPE  H18X16688   3.401   2.336   8.648 -3.7182 -1.6985 -1.6982
  150SAPE  H18Y16689   3.571   2.307   8.600 -0.2524  1.6799  0.0467
  150SAPE  H18Z16690   3.435   2.195   8.541 -4.0691  1.5595 -2.9535
  151SAPE     N16691   4.615   0.333  10.484 -0.2381  0.3491 -0.3416
  151SAPE   HN116692   4.616   0.229  10.486  2.3950  0.2780 -0.9655
  151SAPE   HN216693   4.552   0.362  10.562  0.1488  0.0089  0.1083
  151SAPE   HN316694   4.570   0.359  10.394 -2.0776  0.3791  0.5384
  151SAPE   C1216695   4.750   0.398  10.507  0.0492  0.5082  0.2127
  151SAPE  H12A16696   4.748   0.509  10.502  1.8316  0.7953  3.2875
  151SAPE  H12B16697   4.814   0.350  10.430 -2.2111  0.2280 -1.5922
  151SAPE   C1116698   4.807   0.352  10.641  0.0019  1.0666 -0.5405
  151SAPE  H11A16699   4.737   0.382  10.722 -0.8670  0.4743 -1.0641
  151SAPE  H11B16700   4.904   0.405  10.660  0.2216  0.5273 -0.1407
  151SAPE     P16701   4.944   0.132  10.602 -0.2513  0.1709 -0.1537
  151SAPE   O1316702   5.055   0.223  10.592 -0.2832  0.2819 -0.4991
  151SAPE   O1416703   4.966   0.003  10.673  0.6547  0.0388  0.0512
  151SAPE   O1216704   4.816   0.206  10.651  0.6501  0.0409 -0.3633
  151SAPE   O1116705   4.904   0.079  10.451  0.5699 -0.0172 -0.4290
  151SAPE    C116706   5.015   0.073  10.358  0.7710  0.3403 -0.2164
  151SAPE    HA16707   5.104   0.136  10.377  1.0393  1.0022 -3.1516
  151SAPE    HB16708   5.040  -0.033  10.337  0.5624  0.3653 -0.6119
  151SAPE    C216709   4.946   0.127  10.221 -0.5348 -0.3006  0.6260
  151SAPE    HS16710   5.018   0.109  10.138 -2.2022  2.8679 -1.7527
  151SAPE   O2116711   4.915   0.267  10.231 -0.0204  0.0559 -0.3079
  151SAPE   C2116712   4.928   0.346  10.122 -0.2758  0.0802  0.0487
  151SAPE   O2216713   4.977   0.304  10.017  0.3363 -0.3118 -0.5583
  151SAPE   C2216714   4.878   0.483  10.143 -0.3400 -0.1769 -0.0197
  151SAPE   H2R16715   4.796   0.488  10.218 -0.5667 -0.6504 -0.2302
  151SAPE   H2S16716   4.963   0.530  10.196  0.1769 -1.5294  0.4073
  151SAPE    C316717   4.812   0.051  10.182 -0.3997 -0.5177  0.1672
  151SAPE    HX16718   4.739   0.104  10.247 -1.1971 -2.3897  0.8729
  151SAPE    HY16719   4.810  -0.053  10.222 -0.0396  0.5196  3.1734
  151SAPE   O3116720   4.772   0.071  10.046 -0.0871  0.1980 -0.8401
  151SAPE   C3116721   4.830  -0.009   9.956 -0.3568 -0.2354  0.0009
  151SAPE   O3216722   4.899  -0.107   9.982 -0.3129 -0.1345  0.7364
  151SAPE   C3216723   4.800   0.043   9.817 -0.3955 -0.4424 -0.0603
  151SAPE   H2X16724   4.899   0.047   9.766 -0.0593  0.4764  0.6356
  151SAPE   H2Y16725   4.758   0.146   9.824  0.7325  0.0274  0.1882
  151SAPE   C2316726   4.840   0.548  10.015 -0.0319 -0.0264  0.7781
  151SAPE   H3R16727   4.925   0.530   9.946  1.1345 -0.6140  2.3192
  151SAPE   H3S16728   4.847   0.658  10.028 -1.5019  0.1020  0.6620
  151SAPE   C2416729   4.710   0.513   9.941  0.3246 -0.2765  0.5058
  151SAPE   H4R16730   4.711   0.403   9.925 -1.8527 -0.2254 -0.3380
  151SAPE   H4S16731   4.710   0.556   9.838  1.0406 -0.2206  0.5254
  151SAPE   C2516732   4.590   0.555  10.022  0.5521 -0.4385  0.0388
  151SAPE   H5R16733   4.602   0.548  10.131  0.0914 -2.6165 -0.0034
  151SAPE   C2616734   4.483   0.619   9.962  0.2683  0.0892  0.2975
  151SAPE   H6R16735   4.404   0.661  10.025  1.5414 -0.5225  2.4008
  151SAPE   C2716736   4.446   0.631   9.813  0.5395  0.1507  0.3577
  151SAPE   H7R16737   4.459   0.537   9.754  0.6656  0.6589 -0.4405
  151SAPE   H7S16738   4.526   0.696   9.771 -0.3387 -0.4596 -2.5448
  151SAPE   C2816739   4.314   0.688   9.771  0.3382 -0.1244 -0.8759
  151SAPE   H8R16740   4.242   0.701   9.852 -0.3989  0.0825 -1.5521
  151SAPE   C2916741   4.261   0.700   9.649  0.1121  0.3838  0.2492
  151SAPE   H9R16742   4.170   0.757   9.629  0.2665  0.0474 -1.6378
  151SAPE  C21016743   4.335   0.648   9.523  0.3986 -0.3121  0.6107
  151SAPE  H10R16744   4.417   0.574   9.531 -0.2576 -1.4641 -2.0372
  151SAPE  H10S16745   4.371   0.745   9.482 -0.3171 -0.0694  0.5286
  151SAPE  C21116746   4.239   0.600   9.414 -0.8040 -0.2348  0.4549
  151SAPE  H11R16747   4.254   0.491   9.424  2.0639  0.2811  3.7236
  151SAPE  C21216748   4.150   0.660   9.334 -0.0883 -0.7291  0.9875
  151SAPE  H12R16749   4.109   0.597   9.254 -0.7485 -2.0700  2.3426
  151SAPE  C21316750   4.118   0.804   9.329  0.6657  0.0800  0.2941
  151SAPE  H13R16751   4.208   0.863   9.301 -0.1492  1.0728 -0.3145
  151SAPE  H13S16752   4.093   0.847   9.427  0.7628 -0.2838  0.4820
  151SAPE  C21416753   4.015   0.838   9.214 -0.5638 -0.1831  0.0188
  151SAPE  H14R16754   3.909   0.848   9.243 -1.3780 -0.9652 -2.4361
  151SAPE  C21516755   4.053   0.861   9.086 -0.4593  0.3983  0.0983
  151SAPE  H15R16756   3.977   0.874   9.008  1.4648 -1.3523 -2.2155
  151SAPE  C21616757   4.195   0.848   9.029  0.0729 -0.2074  0.4146
  151SAPE  H16R16758   4.279   0.807   9.089  2.3185  1.5617 -1.3355
  151SAPE  H16S16759   4.228   0.954   9.017 -2.6978  0.7176  0.2177
  151SAPE  C21716760   4.193   0.770   8.896 -0.4554 -0.3965  0.5889
  151SAPE  H17R16761   4.288   0.770   8.838 -1.1301 -2.3119 -0.6207
  151SAPE  H17S16762   4.119   0.827   8.836  0.5397 -0.5129 -0.8074
  151SAPE  C21816763   4.135   0.627   8.894 -0.2478 -0.1446 -0.6410
  151SAPE  H18R16764   4.036   0.632   8.943 -0.2942 -1.0100 -0.6362
  151SAPE  H18S16765   4.199   0.569   8.964 -1.0833 -2.6024 -1.8198
  151SAPE  C21916766   4.120   0.564   8.753 -0.5190  0.6426 -0.1019
  151SAPE  H19R16767   4.105   0.454   8.762  3.5130 -0.2978 -2.5290
  151SAPE  H19S16768   4.219   0.581   8.704 -0.3531 -2.8450 -1.2637
  151SAPE  C22016769   4.009   0.628   8.663  0.1270  0.0475  0.3392
  151SAPE  H20R16770   3.907   0.611   8.703 -0.9496 -1.8164 -2.9277
  151SAPE  H20S16771   4.002   0.570   8.569  1.4127 -0.1356  0.3381
  151SAPE  H20T16772   4.025   0.733   8.631  2.3766 -0.2536  0.3082
  151SAPE   C3316773   4.703  -0.043   9.737 -0.3638 -0.6873  0.5890
  151SAPE   H3X16774   4.610  -0.047   9.797 -1.0073  1.4522 -0.1526
  151SAPE   H3Y16775   4.750  -0.143   9.732 -0.8557 -0.9651  1.4170
  151SAPE   C3416776   4.671   0.003   9.597 -0.2939 -0.8194 -0.0695
  151SAPE   H4X16777   4.661   0.114   9.593  0.0340 -0.6986  1.5810
  151SAPE   H4Y16778   4.573  -0.046   9.580 -0.9375  0.5387 -0.3769
  151SAPE   C3516779   4.768  -0.061   9.499  0.2514  0.2608  0.0287
  151SAPE   H5X16780   4.749  -0.171   9.501 -1.1350  0.4862  0.0777
  151SAPE   H5Y16781   4.875  -0.045   9.526  1.0711  1.7047 -3.4822
  151SAPE   C3616782   4.749  -0.005   9.356 -0.4944 -0.3186  0.2039
  151SAPE   H6X16783   4.750   0.106   9.366  1.1191 -0.1369 -1.3063
  151SAPE   H6Y16784   4.651  -0.051   9.329  0.4762 -2.9127  0.8127
  151SAPE   C3716785   4.858  -0.049   9.253 -0.1282 -0.2977  0.8787
  151SAPE   H7X16786   4.842  -0.150   9.210 -1.4287  1.1648 -2.4123
  151SAPE   H7Y16787   4.961  -0.042   9.294 -0.2930  2.4077  1.0053
  151SAPE   C3816788   4.854   0.049   9.133 -0.1361  0.1332 -0.1056
  151SAPE   H8X16789   4.909  -0.011   9.058 -2.1461  0.6883 -2.1474
  151SAPE   H8Y16790   4.913   0.142   9.153  0.1755 -0.1284  0.1979
  151SAPE   C3916791   4.706   0.074   9.084  0.0640  0.0197  1.0650
  151SAPE   H9X16792   4.655   0.133   9.163 -0.8100 -0.9365  1.2288
  151SAPE   H9Y16793   4.656  -0.025   9.090  0.1278 -0.3390 -2.4485
  151SAPE  C31016794   4.683   0.139   8.950 -0.0735 -0.6418 -0.1315
  151SAPE  H10X16795   4.712   0.247   8.949 -1.2083 -0.2886  0.9606
  151SAPE  H10Y16796   4.575   0.142   8.925 -1.4348 -2.9915  4.4237
  151SAPE  C31116797   4.758   0.069   8.832  0.2866 -0.3002 -0.2935
  151SAPE  H11X16798   4.862   0.054   8.867 -0.5034 -0.2255  2.3142
  151SAPE  H11Y16799   4.759   0.129   8.738 -0.5845  0.0990 -0.0614
  151SAPE  C31216800   4.709  -0.071   8.800  0.0869  0.4477  0.3991
  151SAPE  H12X16801   4.747  -0.139   8.879  1.8569 -0.0446 -0.8135
  151SAPE  H12Y16802   4.771  -0.107   8.715  0.8001 -0.4236  1.2594
  151SAPE  C31316803   4.560  -0.083   8.775 -0.2751 -0.5504 -0.3710
  151SAPE  H13X16804   4.527  -0.005   8.703  1.0751  0.6457  0.2733
  151SAPE  H13Y16805   4.503  -0.071   8.870 -0.8060 -1.2791 -0.5884
  151SAPE  C31416806   4.522  -0.213   8.701 -1.1020  0.7217  0.3881
  151SAPE  H14X16807   4.411  -0.214   8.713 -1.0861 -2.2749  1.0118
  151SAPE  H14Y16808   4.554  -0.297   8.766 -0.7659 -0.4016 -1.1691
  151SAPE  C31516809   4.566  -0.229   8.552 -0.3354  0.6156  0.6061
  151SAPE  H15X16810   4.672  -0.261   8.545 -0.6720 -0.3319 -0.5279
  151SAPE  H15Y16811   4.552  -0.143   8.483  0.8938 -0.9306 -1.6915
  151SAPE  C31616812   4.492  -0.343   8.480  0.3259 -0.3812 -0.2980
  151SAPE  H16X16813   4.385  -0.322   8.502  0.3324 -0.9489  0.3126
  151SAPE  H16Y16814   4.523  -0.438   8.528 -0.0534 -1.0118 -1.2604
  151SAPE  C31716815   4.502  -0.348   8.331  0.3355 -0.5404  0.3767
  151SAPE  H17X16816   4.443  -0.257   8.305  1.0465 -0.0639  0.4204
  151SAPE  H17Y16817   4.445  -0.431   8.283  0.5829 -1.2711  1.3311
  151SAPE  C31816818   4.640  -0.336   8.270 -0.4018  0.4047  0.0930
  151SAPE  H18X16819   4.648  -0.348   8.159 -1.3408 -1.0259  0.1533
  151SAPE  H18Y16820   4.692  -0.422   8.317 -1.1687  0.5066  1.1411
  151SAPE  H18Z16821   4.682  -0.238   8.300  0.2629  0.7060 -1.6649
  152SAPE     N16822   3.543   4.280  11.123  0.6533 -0.1019 -0.3275
  152SAPE   HN116823   3.553   4.199  11.059  0.5801 -2.1683  2.1247
  152SAPE   HN216824   3.540   4.241  11.219 -0.1532  1.5323  0.3610
  152SAPE   HN316825   3.449   4.323  11.105 -0.0573 -0.4488  2.1479
  152SAPE   C1216826   3.650   4.387  11.111  1.0700 -0.1994 -0.9197
  152SAPE  H12A16827   3.742   4.360  11.167  0.0889  0.4317  1.0614
  152SAPE  H12B16828   3.609   4.473  11.167  2.9368 -0.2538  0.6462
  152SAPE   C1116829   3.684   4.435  10.969  0.2664  0.8102  0.7034
  152SAPE  H11A16830   3.747   4.354  10.926  0.2437  0.2758  1.6429
  152SAPE  H11B16831   3.733   4.533  10.988  1.3790  0.1748  1.2214
  152SAPE     P16832   3.568   4.464  10.731 -0.1179  0.1815  0.4077
  152SAPE   O1316833   3.539   4.325  10.688  0.2328  0.0476  0.2251
  152SAPE   O1416834   3.469   4.562  10.673 -0.2758 -0.3408  0.3736
  152SAPE   O1216835   3.566   4.453  10.887 -0.0186  0.8028 -0.0591
  152SAPE   O1116836   3.718   4.504  10.689 -0.5834 -1.0319 -0.2199
  152SAPE    C116837   3.822   4.403  10.677 -0.7133 -0.0577  0.4440
  152SAPE    HA16838   3.898   4.419  10.755 -0.1619 -1.4998  0.2233
  152SAPE    HB16839   3.783   4.300  10.688 -0.0748 -0.3120  0.3662
  152SAPE    C216840   3.903   4.399  10.544  0.1391 -0.6680  0.3957
  152SAPE    HS16841   3.903   4.504  10.508  2.2972 -0.5224  0.6491
  152SAPE   O2116842   3.834   4.306  10.456  1.0125 -0.3550  0.1489
  152SAPE   C2116843   3.736   4.356  10.377 -0.3414  0.0390  0.4522
  152SAPE   O2216844   3.707   4.475  10.364  0.1064 -0.1797  0.3021
  152SAPE   C2216845   3.672   4.248  10.289 -0.2940 -0.0873  0.1077
  152SAPE   H2R16846   3.754   4.177  10.265 -0.9237 -1.1384  0.9686
  152SAPE   H2S16847   3.592   4.194  10.344  0.2511  0.9836  2.0588
  152SAPE    C316848   4.051   4.361  10.549 -0.5039 -0.4780  0.2068
  152SAPE    HX16849   4.054   4.266  10.607 -0.6844 -1.0047 -0.6275
  152SAPE    HY16850   4.105   4.431  10.616 -1.2859 -0.3836  0.7476
  152SAPE   O3116851   4.123   4.351  10.419  0.3126  0.2175  0.0634
  152SAPE   C3116852   4.148   4.473  10.359 -0.0891  0.0242  0.6935
  152SAPE   O3216853   4.119   4.579  10.403  0.1751  0.1225  0.6039
  152SAPE   C3216854   4.195   4.439  10.218 -0.3606  0.7275 -0.3702
  152SAPE   H2X16855   4.112   4.431  10.145  0.4346 -3.2520 -1.0887
  152SAPE   H2Y16856   4.239   4.337  10.214  2.8911  1.9805  0.2002
  152SAPE   C2316857   3.601   4.306  10.161 -0.1104  0.3247 -0.3774
  152SAPE   H3R16858   3.541   4.396  10.187 -2.2551 -1.3407  0.6947
  152SAPE   H3S16859   3.527   4.236  10.118 -2.6408  1.5549  1.6783
  152SAPE   C2416860   3.700   4.351  10.049 -1.2461  0.0502  0.6044
  152SAPE   H4R16861   3.776   4.421  10.089  1.3669  0.5034 -4.2821
  152SAPE   H4S16862   3.646   4.405   9.969  0.2092 -1.4928 -1.5548
  152SAPE   C2516863   3.775   4.233   9.993  0.7861 -0.9286  0.0936
  152SAPE   H5R16864   3.871   4.206  10.039  1.6775  0.3364 -0.9566
  152SAPE   C2616865   3.743   4.159   9.880 -0.2540  0.2458 -0.4712
  152SAPE   H6R16866   3.807   4.075   9.851 -1.5137 -0.7972 -0.2976
  152SAPE   C2716867   3.622   4.177   9.793  0.3598  0.3420  0.4747
  152SAPE   H7R16868   3.538   4.219   9.854  0.2158 -0.0963  0.5827
  152SAPE   H7S16869   3.589   4.080   9.749  3.5690 -0.2859 -0.8625
  152SAPE   C2816870   3.641   4.270   9.667 -0.2060 -0.4585 -0.1183
  152SAPE   H8R16871   3.690   4.368   9.682 -0.4709 -0.5301  1.3546
  152SAPE   C2916872   3.618   4.245   9.536  0.6169  0.3710 -0.1435
  152SAPE   H9R16873   3.630   4.317   9.454  3.3722 -0.9785 -1.0562
  152SAPE  C21016874   3.571   4.113   9.472  0.2737  0.3245 -0.2032
  152SAPE  H10R16875   3.472   4.129   9.425 -1.6884 -0.7730  3.1796
  152SAPE  H10S16876   3.555   4.037   9.552  2.8215 -0.1181 -0.0281
  152SAPE  C21116877   3.670   4.060   9.373 -0.0852  0.2317 -0.4266
  152SAPE  H11R16878   3.736   3.978   9.403 -0.5432  0.7892  2.3084
  152SAPE  C21216879   3.678   4.097   9.243 -0.2907  0.5295  0.7865
  152SAPE  H12R16880   3.752   4.048   9.178 -3.6068 -0.6897 -2.4935
  152SAPE  C21316881   3.586   4.194   9.166  0.0306 -0.4489  0.0164
  152SAPE  H13R16882   3.495   4.222   9.223 -2.1814 -0.5841 -3.2255
  152SAPE  H13S16883   3.561   4.153   9.066  2.3602  0.4161 -0.9923
  152SAPE  C21416884   3.650   4.327   9.151  0.6748  0.5052 -0.3307
  152SAPE  H14R16885   3.668   4.382   9.245  0.1988 -0.0273  0.0752
  152SAPE  C21516886   3.695   4.372   9.031  0.3259 -0.0280  0.6188
  152SAPE  H15R16887   3.739   4.473   9.026  1.8673 -0.7229 -0.7550
  152SAPE  C21616888   3.695   4.311   8.892  0.8692 -0.8903 -0.0056
  152SAPE  H16R16889   3.622   4.373   8.835  0.3354 -2.1890 -0.7892
  152SAPE  H16S16890   3.646   4.212   8.885 -1.5146 -0.0800  2.9581
  152SAPE  C21716891   3.832   4.303   8.829  0.0311  0.7686  0.5654
  152SAPE  H17R16892   3.898   4.251   8.902 -1.5173  2.5586  3.4174
  152SAPE  H17S16893   3.877   4.403   8.814  1.5390 -0.0743 -0.8482
  152SAPE  C21816894   3.844   4.226   8.699 -0.4307  0.3481  0.5357
  152SAPE  H18R16895   3.764   4.272   8.635  2.0114  3.3570 -0.6269
  152SAPE  H18S16896   3.814   4.121   8.717 -2.6901  0.3075 -2.5342
  152SAPE  C21916897   3.984   4.227   8.631  0.2930 -0.5521  0.2853
  152SAPE  H19R16898   4.058   4.202   8.711 -1.7209  0.8067  2.7071
  152SAPE  H19S16899   4.002   4.333   8.604 -3.6560  0.3745  0.8217
  152SAPE  C22016900   4.006   4.136   8.511  0.5672 -0.5700 -0.5483
  152SAPE  H20R16901   4.103   4.156   8.461  0.8579  1.0547  0.6030
  152SAPE  H20S16902   3.924   4.149   8.437 -0.8640 -0.4926  1.0039
  152SAPE  H20T16903   4.006   4.032   8.549 -1.0322 -0.1657  0.6875
  152SAPE   C3316904   4.312   4.523  10.174 -0.4642 -0.9539  0.2597
  152SAPE   H3X16905   4.391   4.531  10.251  0.9905 -0.6783 -1.1871
  152SAPE   H3Y16906   4.285   4.627  10.146 -1.6131 -1.1747  0.4969
  152SAPE   C3416907   4.387   4.452  10.057 -0.3650 -0.2133  0.3641
  152SAPE   H4X16908   4.337   4.463   9.959  0.1993  0.1224  0.1063
  152SAPE   H4Y16909   4.405   4.344  10.074 -2.8573 -1.1665 -2.3556
  152SAPE   C3516910   4.532   4.513  10.039 -0.4974 -0.1234  0.4483
  152SAPE   H5X16911   4.591   4.458   9.963  0.0899 -0.7872  1.3555
  152SAPE   H5Y16912   4.577   4.484  10.137 -3.4935  0.6287  2.1803
  152SAPE   C3616913   4.565   4.656  10.001  0.6820 -0.3872 -0.2695
  152SAPE   H6X16914   4.672   4.672   9.978  0.5233  0.9725 -0.1968
  152SAPE   H6Y16915   4.537   4.705  10.097 -0.3753 -1.2159 -0.1353
  152SAPE   C3716916   4.490   4.711   9.883  0.2109 -0.9923 -0.0781
  152SAPE   H7X16917   4.503   4.821   9.876  0.4021 -0.9977  0.1731
  152SAPE   H7Y16918   4.381   4.702   9.902  0.2462 -2.4106 -0.4273
  152SAPE   C3816919   4.515   4.651   9.746 -0.0258  0.6335 -0.5151
  152SAPE   H8X16920   4.503   4.542   9.762 -1.7403  0.7055 -1.0918
  152SAPE   H8Y16921   4.623   4.663   9.726 -0.0527 -0.3241 -1.3185
  152SAPE   C3916922   4.433   4.704   9.628  0.2270 -0.3944 -0.6271
  152SAPE   H9X16923   4.484   4.800   9.604 -0.3230 -0.1273 -0.7595
  152SAPE   H9Y16924   4.328   4.708   9.666 -0.2826 -1.2642 -1.8778
  152SAPE  C31016925   4.446   4.610   9.504  0.0944  0.4919  0.0337
  152SAPE  H10X16926   4.391   4.514   9.521  2.0278 -0.5172  0.8871
  152SAPE  H10Y16927   4.552   4.583   9.487 -0.5572 -0.9229 -2.1174
  152SAPE  C31116928   4.405   4.670   9.370 -0.0841 -0.4723  0.5017
  152SAPE  H11X16929   4.446   4.772   9.357 -2.2928  0.2467 -1.4362
  152SAPE  H11Y16930   4.295   4.680   9.356  0.1885  0.8327 -0.9955
  152SAPE  C31216931   4.450   4.573   9.260 -0.4876  0.3379  0.8817
  152SAPE  H12X16932   4.400   4.475   9.274  0.6738 -0.6644 -1.4331
  152SAPE  H12Y16933   4.559   4.554   9.269  0.2149  1.9911 -2.5920
  152SAPE  C31316934   4.425   4.612   9.113 -0.3122 -0.0971  0.1822
  152SAPE  H13X16935   4.471   4.713   9.109  1.0805 -0.6911  0.5991
  152SAPE  H13Y16936   4.315   4.618   9.095 -0.5955  0.1727  1.8777
  152SAPE  C31416937   4.488   4.512   9.010  0.1693 -0.4830 -0.2482
  152SAPE  H14X16938   4.429   4.419   9.004 -2.2754  1.0357 -1.3495
  152SAPE  H14Y16939   4.586   4.489   9.056  0.9795  1.3516 -0.9238
  152SAPE  C31516940   4.517   4.571   8.869 -0.1023  0.1412 -0.8112
  152SAPE  H15X16941   4.579   4.495   8.815 -0.6197 -1.3726  0.6313
  152SAPE  H15Y16942   4.589   4.654   8.883  0.8045 -0.8857  0.9725
  152SAPE  C31616943   4.400   4.626   8.795 -0.3248  0.2147  0.3273
  152SAPE  H16X16944   4.453   4.679   8.713  0.4094  2.1733  1.9761
  152SAPE  H16Y16945   4.346   4.701   8.857  0.3338  0.1867  0.9532
  152SAPE  C31716946   4.302   4.529   8.738  1.0253  0.0546 -0.4067
  152SAPE  H17X16947   4.273   4.443   8.803 -1.6409  1.1502 -0.0009
  152SAPE  H17Y16948   4.339   4.480   8.646  1.6314  0.1686 -0.2227
  152SAPE  C31816949   4.157   4.592   8.705 -0.5081 -0.5487  0.2788
  152SAPE  H18X16950   4.103   4.618   8.798  1.6234  1.8449  0.9756
  152SAPE  H18Y16951   4.098   4.516   8.650 -0.2474 -1.0415  0.6726
  152SAPE  H18Z16952   4.165   4.690   8.652 -0.7898 -1.4406 -1.4762
  153SAPE     N16953   6.265   6.029  10.526 -0.3019  0.5447 -0.2266
  153SAPE   HN116954   6.369   6.030  10.522 -0.3197  1.8750 -1.2235
  153SAPE   HN216955   6.249   5.929  10.551  0.6078  0.3228 -0.4914
  153SAPE   HN316956   6.228   6.052  10.431  1.4061 -0.7630 -1.2651
  153SAPE   C1216957   6.208   6.119  10.631  0.3179 -0.5546 -0.2706
  153SAPE  H12A16958   6.262   6.091  10.724  0.3747 -0.0667 -0.1514
  153SAPE  H12B16959   6.101   6.094  10.648 -0.3239  0.6399 -2.2538
  153SAPE   C1116960   6.218   6.268  10.584 -0.3858 -0.5981  0.2424
  153SAPE  H11A16961   6.144   6.315  10.653  0.3246  0.5215  0.2719
  153SAPE  H11B16962   6.183   6.278  10.479  2.3095 -1.7967 -0.8773
  153SAPE     P16963   6.379   6.473  10.588  0.3908 -0.6474 -0.1494
  153SAPE   O1316964   6.264   6.529  10.517 -0.8030 -1.0640 -0.1213
  153SAPE   O1416965   6.420   6.547  10.709 -0.2980  0.1362 -0.2469
  153SAPE   O1216966   6.348   6.322  10.616  0.1049  0.0762  0.5934
  153SAPE   O1116967   6.501   6.468  10.487  0.4875 -0.4509 -0.0762
  153SAPE    C116968   6.498   6.379  10.376 -0.4278  0.2540 -0.2605
  153SAPE    HA16969   6.601   6.342  10.358  0.0552  1.7392 -0.6803
  153SAPE    HB16970   6.430   6.291  10.378  0.0177 -0.0965 -0.3401
  153SAPE    C216971   6.453   6.455  10.251  0.3823  0.1545  0.0707
  153SAPE    HS16972   6.346   6.431  10.233  0.1571 -0.2289  1.8072
  153SAPE   O2116973   6.527   6.405  10.137  0.3237  0.0775  0.3506
  153SAPE   C2116974   6.476   6.292  10.091  0.1524 -0.0685  0.0502
  153SAPE   O2216975   6.394   6.225  10.147  0.0162  0.1933  0.3063
  153SAPE   C2216976   6.554   6.247   9.964 -0.6507  0.4029 -0.3264
  153SAPE   H2R16977   6.549   6.330   9.891  2.0734  0.9432  0.0011
  153SAPE   H2S16978   6.660   6.247   9.997 -0.8407  1.6233  0.3280
  153SAPE    C316979   6.465   6.610  10.267  0.1063 -0.1703  0.4489
  153SAPE    HX16980   6.568   6.639  10.296 -0.1636  0.5426  0.6997
  153SAPE    HY16981   6.405   6.647  10.353  1.1422 -0.0670  1.1530
  153SAPE   O3116982   6.404   6.677  10.152 -0.2601 -0.6291 -0.1679
  153SAPE   C3116983   6.478   6.714  10.051 -0.0979 -0.1092  0.4290
  153SAPE   O3216984   6.599   6.702  10.047 -0.3355 -0.3422 -0.0866
  153SAPE   C3216985   6.384   6.781   9.949  0.1330  0.6460  0.9182
  153SAPE   H2X16986   6.305   6.830  10.011  0.7557 -1.0572  3.1771
  153SAPE   H2Y16987   6.343   6.694   9.892 -0.2418  1.7092 -0.5033
  153SAPE   C2316988   6.496   6.118   9.909 -0.5045  0.0301 -0.3576
  153SAPE   H3R16989   6.398   6.132   9.857 -1.0598  1.6779  1.0437
  153SAPE   H3S16990   6.477   6.043   9.989  1.2499  0.4169  0.4630
  153SAPE   C2416991   6.589   6.063   9.800 -0.6365 -0.6712 -0.3779
  153SAPE   H4R16992   6.692   6.068   9.841 -0.7330  0.6433 -0.2328
  153SAPE   H4S16993   6.588   6.136   9.717  1.4540  0.4137  0.4836
  153SAPE   C2516994   6.558   5.915   9.758 -0.2221 -0.4315  0.0484
  153SAPE   H5R16995   6.562   5.841   9.839  0.2963 -1.1797 -0.6549
  153SAPE   C2616996   6.516   5.876   9.640 -0.7105 -0.6354 -0.7019
  153SAPE   H6R16997   6.522   5.767   9.622 -1.5260 -1.0774  1.4706
  153SAPE   C2716998   6.499   5.962   9.513 -0.2071 -0.2785  0.3191
  153SAPE   H7R16999   6.589   6.024   9.490  0.1295 -0.5579  0.8667
  153SAPE   H7S17000   6.435   6.048   9.540 -0.9391  0.0686 -2.2116
  153SAPE   C2817001   6.451   5.891   9.382 -0.2124 -0.1499 -1.1570
  153SAPE   H8R17002   6.445   5.781   9.388 -1.6613 -0.0169  2.6020
  153SAPE   C2917003   6.421   5.954   9.265  0.5474  0.7295 -0.2814
  153SAPE   H9R17004   6.391   5.890   9.181  2.1956 -0.4580 -0.0239
  153SAPE  C21017005   6.418   6.098   9.245 -0.6037  0.8903 -0.0375
  153SAPE  H10R17006   6.381   6.144   9.339  0.7943 -0.5378  1.2605
  153SAPE  H10S17007   6.347   6.129   9.165 -2.9581 -0.6793  1.3436
  153SAPE  C21117008   6.557   6.165   9.220  0.7534  0.4303 -0.3687
  153SAPE  H11R17009   6.628   6.180   9.303  0.4227  1.4518 -0.2569
  153SAPE  C21217010   6.598   6.187   9.090  0.4972  0.3317 -0.2737
  153SAPE  H12R17011   6.704   6.212   9.075  0.9421 -0.3170  1.4997
  153SAPE  C21317012   6.524   6.164   8.957 -0.4965 -0.0043 -0.8603
  153SAPE  H13R17013   6.558   6.244   8.887 -1.2675  2.0342  0.9695
  153SAPE  H13S17014   6.416   6.184   8.977 -0.3303 -0.1287  0.2003
  153SAPE  C21417015   6.540   6.025   8.904  0.2141 -0.3810 -0.5965
  153SAPE  H14R17016   6.585   5.957   8.978  1.7721  1.8949  0.7057
  153SAPE  C21517017   6.503   5.997   8.773 -0.0467 -0.6170 -0.2694
  153SAPE  H15R17018   6.498   5.894   8.735  2.2310 -2.6010  4.0228
  153SAPE  C21617019   6.439   6.091   8.671 -0.3689 -0.1548  0.5314
  153SAPE  H16R17020   6.411   6.185   8.725  0.7591  0.5938 -0.1529
  153SAPE  H16S17021   6.342   6.043   8.645  0.0457  0.5017 -2.6190
  153SAPE  C21717022   6.527   6.129   8.554  0.4203  0.1565  0.9649
  153SAPE  H17R17023   6.452   6.164   8.479 -0.2234 -1.3190  0.8867
  153SAPE  H17S17024   6.578   6.042   8.509  0.4423  0.3352  0.6391
  153SAPE  C21817025   6.624   6.246   8.592  0.1430 -0.0071  0.0464
  153SAPE  H18R17026   6.712   6.209   8.649  0.2869  0.2087 -0.0347
  153SAPE  H18S17027   6.571   6.324   8.650  2.7730  2.0445 -0.1004
  153SAPE  C21917028   6.665   6.326   8.460  0.3003  0.1445  0.4693
  153SAPE  H19R17029   6.573   6.386   8.445  0.7001  0.4632 -0.7513
  153SAPE  H19S17030   6.682   6.249   8.382  1.3446  0.3214  0.5001
  153SAPE  C22017031   6.787   6.421   8.467 -0.3019 -0.6575  0.2528
  153SAPE  H20R17032   6.794   6.494   8.384  2.7952 -0.5013  0.5249
  153SAPE  H20S17033   6.883   6.369   8.486  0.5168 -0.1087 -2.0747
  153SAPE  H20T17034   6.768   6.485   8.556 -0.9469  1.4928 -1.3405
  153SAPE   C3317035   6.438   6.879   9.839  0.2761 -0.5014 -0.6658
  153SAPE   H3X17036   6.547   6.866   9.826  0.5382  0.6816  0.1635
  153SAPE   H3Y17037   6.417   6.985   9.865 -2.7273 -0.6885 -1.8856
  153SAPE   C3417038   6.376   6.844   9.701  0.3090 -0.1120  0.6285
  153SAPE   H4X17039   6.267   6.822   9.695  0.6072 -1.3015 -1.3265
  153SAPE   H4Y17040   6.431   6.752   9.671  2.2819  0.7767  1.3602
  153SAPE   C3517041   6.398   6.955   9.588 -0.0159  0.3978 -0.1213
  153SAPE   H5X17042   6.439   7.047   9.635 -1.6429  0.7610  0.6395
  153SAPE   H5Y17043   6.309   6.984   9.528  0.7405  0.5842 -1.1982
  153SAPE   C3617044   6.503   6.916   9.478  0.2303  0.1329  0.4310
  153SAPE   H6X17045   6.455   6.849   9.403 -2.7728  0.4849  1.8699
  153SAPE   H6Y17046   6.584   6.863   9.533 -0.2967 -0.2451  0.8577
  153SAPE   C3717047   6.534   7.045   9.391 -0.0846 -0.8608 -0.0871
  153SAPE   H7X17048   6.628   7.058   9.333 -0.2712 -0.9132 -0.4044
  153SAPE   H7Y17049   6.534   7.123   9.470  1.1955  0.1363 -1.0405
  153SAPE   C3817050   6.425   7.073   9.284  0.2958  0.1080  0.3510
  153SAPE   H8X17051   6.327   7.057   9.335  0.4613  2.3855  1.5325
  153SAPE   H8Y17052   6.430   7.003   9.199 -2.1534  1.6688 -1.2171
  153SAPE   C3917053   6.442   7.210   9.213 -0.1914  0.3405  0.1303
  153SAPE   H9X17054   6.548   7.226   9.182 -0.6815 -0.2028 -1.9369
  153SAPE   H9Y17055   6.428   7.273   9.304 -2.8058 -0.0551  0.0773
  153SAPE  C31017056   6.334   7.228   9.107  0.1408  0.4364  0.5176
  153SAPE  H10X17057   6.237   7.214   9.159 -1.0548  1.7512 -1.2738
  153SAPE  H10Y17058   6.331   7.156   9.023  0.0499  3.4744 -2.3121
  153SAPE  C31117059   6.342   7.366   9.042  0.3705  0.1990  0.0101
  153SAPE  H11X17060   6.444   7.384   9.001  0.3028  2.4620  0.7049
  153SAPE  H11Y17061   6.305   7.430   9.124 -0.1946 -1.1935  0.8775
  153SAPE  C31217062   6.241   7.379   8.929 -0.4983  0.2286 -0.0339
  153SAPE  H12X17063   6.142   7.349   8.968 -0.2052 -1.1700 -0.3344
  153SAPE  H12Y17064   6.262   7.307   8.847 -1.5150  2.8724 -2.8257
  153SAPE  C31317065   6.233   7.526   8.886  0.2538  0.2910  0.1346
  153SAPE  H13X17066   6.242   7.587   8.979 -0.0048 -1.2030  1.1686
  153SAPE  H13Y17067   6.138   7.533   8.828  0.2120 -1.0537  0.0216
  153SAPE  C31417068   6.351   7.578   8.788  0.0358  0.5545 -0.3794
  153SAPE  H14X17069   6.431   7.599   8.862 -0.9225  1.3051  0.4830
  153SAPE  H14Y17070   6.333   7.685   8.764  0.6489  0.9443  0.8146
  153SAPE  C31517071   6.400   7.489   8.676 -0.3265  0.2363  0.2529
  153SAPE  H15X17072   6.309   7.427   8.661 -1.1516  0.3203  3.9683
  153SAPE  H15Y17073   6.470   7.420   8.729  1.8199  1.0607 -1.3951
  153SAPE  C31617074   6.468   7.552   8.560  0.5559  0.0801  0.5048
  153SAPE  H16X17075   6.409   7.624   8.498  1.5257 -0.9415 -1.7157
  153SAPE  H16Y17076   6.495   7.465   8.497 -0.2384 -0.4153  0.8327
  153SAPE  C31717077   6.603   7.617   8.599  0.0091  0.5607 -0.0347
  153SAPE  H17X17078   6.564   7.703   8.658 -0.8116  0.4599 -0.4175
  153SAPE  H17Y17079   6.650   7.662   8.509 -2.7973  0.7281 -1.4973
  153SAPE  C31817080   6.705   7.525   8.676 -0.3375 -0.5943  0.2908
  153SAPE  H18X17081   6.658   7.507   8.775 -1.6261  2.0980  0.2710
  153SAPE  H18Y17082   6.802   7.574   8.697 -0.6024 -0.1332  0.4709
  153SAPE  H18Z17083   6.729   7.435   8.617 -0.8316  0.1366 -1.0741
  154SAPE     N17084   2.541   4.961  10.711 -0.1846 -0.0178  0.1593
  154SAPE   HN117085   2.612   4.898  10.668 -1.2755  0.3902 -2.4295
  154SAPE   HN217086   2.476   4.912  10.776 -0.5087  2.1642  1.5960
  154SAPE   HN317087   2.489   4.991  10.627 -0.2354  0.2268  0.2791
  154SAPE   C1217088   2.600   5.079  10.773 -1.0094  0.2234 -0.6794
  154SAPE  H12A17089   2.625   5.154  10.694 -0.8273  1.5550  0.5915
  154SAPE  H12B17090   2.700   5.066  10.821 -1.5394  0.2299  0.4588
  154SAPE   C1117091   2.502   5.145  10.875 -0.0872 -0.1261 -0.1806
  154SAPE  H11A17092   2.551   5.225  10.935 -0.6229 -0.2323  0.4081
  154SAPE  H11B17093   2.470   5.068  10.949  0.4296 -1.2517 -1.1055
  154SAPE     P17094   2.355   5.342  10.766 -0.3923 -0.0275 -0.6124
  154SAPE   O1317095   2.233   5.331  10.684 -0.2414 -0.5507 -0.2506
  154SAPE   O1417096   2.348   5.428  10.887  0.5189 -0.2577  0.5909
  154SAPE   O1217097   2.380   5.191  10.804  0.7437  0.1773  0.1508
  154SAPE   O1117098   2.474   5.375  10.677 -0.1353 -0.0738  0.0633
  154SAPE    C117099   2.441   5.406  10.542  0.1230 -0.0095 -0.0663
  154SAPE    HA17100   2.405   5.314  10.491  0.6227  0.9112 -2.1903
  154SAPE    HB17101   2.366   5.486  10.526 -0.8001 -0.5218  1.5255
  154SAPE    C217102   2.572   5.445  10.466  0.2525 -0.0161 -0.2955
  154SAPE    HS17103   2.636   5.355  10.474 -0.5903 -0.5886  0.2095
  154SAPE   O2117104   2.623   5.570  10.510 -0.5042 -0.1931  0.3656
  154SAPE   C2117105   2.755   5.578  10.497  0.2275 -0.3922 -0.8152
  154SAPE   O2217106   2.825   5.502  10.439 -0.6110  0.8017 -1.3003
  154SAPE   C2217107   2.801   5.708  10.578  0.0955  0.1778  0.2801
  154SAPE   H2R17108   2.802   5.668  10.681  1.4225 -1.2540 -0.2552
  154SAPE   H2S17109   2.909   5.720  10.559  0.4095  0.3242  1.9635
  154SAPE    C317110   2.537   5.452  10.309  0.0044  0.6337 -0.6313
  154SAPE    HX17111   2.625   5.473  10.245 -0.6254  1.4609 -1.2435
  154SAPE    HY17112   2.479   5.547  10.306 -2.0891 -0.5832 -0.9222
  154SAPE   O3117113   2.455   5.347  10.261 -0.3201 -0.3036 -0.3484
  154SAPE   C3117114   2.503   5.257  10.183 -0.2591 -0.6026  0.1078
  154SAPE   O3217115   2.614   5.238  10.140  0.4673 -0.4101 -0.1472
  154SAPE   C3217116   2.383   5.159  10.152  0.3336  0.2710 -0.3768
  154SAPE   H2X17117   2.304   5.222  10.107 -1.4072 -1.2023  0.4970
  154SAPE   H2Y17118   2.348   5.127  10.253 -0.0732 -0.1041 -0.6335
  154SAPE   C2317119   2.715   5.834  10.549 -0.8206  0.3452 -0.2807
  154SAPE   H3R17120   2.729   5.907  10.631 -0.1458 -0.1872  0.0844
  154SAPE   H3S17121   2.612   5.798  10.567  0.3918 -2.9388  0.7763
  154SAPE   C2417122   2.757   5.909  10.424  0.0044 -0.3454  0.1681
  154SAPE   H4R17123   2.857   5.955  10.428 -0.9671  1.8401  0.5587
  154SAPE   H4S17124   2.682   5.990  10.410 -0.2581 -0.7697 -1.0507
  154SAPE   C2517125   2.756   5.827  10.300 -0.6842  0.1650 -0.0028
  154SAPE   H5R17126   2.860   5.802  10.275 -0.9462  0.4983 -1.4929
  154SAPE   C2617127   2.653   5.789  10.217  0.1309  0.6325  0.7924
  154SAPE   H6R17128   2.667   5.740  10.120 -1.8220  1.1756  0.1871
  154SAPE   C2717129   2.507   5.830  10.231 -0.2265 -0.4453 -0.4500
  154SAPE   H7R17130   2.495   5.934  10.194  3.0193  1.1016  2.2164
  154SAPE   H7S17131   2.484   5.843  10.339  0.0379 -2.4738 -0.1077
  154SAPE   C2817132   2.402   5.745  10.162 -0.3265 -0.3933  1.5354
  154SAPE   H8R17133   2.328   5.692  10.223  1.1044  1.7009  5.3873
  154SAPE   C2917134   2.378   5.749  10.027 -0.0721 -0.3618 -0.6679
  154SAPE   H9R17135   2.290   5.698   9.984 -2.6790 -0.7445  4.3664
  154SAPE  C21017136   2.455   5.832   9.925 -0.1629 -0.0009  0.1250
  154SAPE  H10R17137   2.520   5.759   9.872 -0.9853 -3.0965  3.0043
  154SAPE  H10S17138   2.528   5.899   9.975 -0.2366  0.0874  0.1142
  154SAPE  C21117139   2.371   5.916   9.826  0.4934  0.5607  0.2366
  154SAPE  H11R17140   2.360   6.019   9.863  1.3408  1.0550 -0.8160
  154SAPE  C21217141   2.335   5.884   9.704  0.6865 -0.4602 -0.8370
  154SAPE  H12R17142   2.270   5.958   9.654  0.0269 -0.1781  0.4117
  154SAPE  C21317143   2.360   5.750   9.640 -0.2879  0.3494 -0.4933
  154SAPE  H13R17144   2.278   5.715   9.574 -0.0276  1.0190 -1.1727
  154SAPE  H13S17145   2.359   5.675   9.722 -1.4189 -0.7990 -1.5145
  154SAPE  C21417146   2.496   5.752   9.569 -0.2499  0.4545  0.1415
  154SAPE  H14R17147   2.585   5.771   9.630  0.3183  0.6517 -0.7171
  154SAPE  C21517148   2.514   5.743   9.437  0.2299  0.0545  0.3734
  154SAPE  H15R17149   2.617   5.761   9.402  1.0361 -2.7657  1.0029
  154SAPE  C21617150   2.414   5.729   9.324  0.5084 -0.7022 -0.3781
  154SAPE  H16R17151   2.329   5.798   9.347  1.7857  0.4798  1.0443
  154SAPE  H16S17152   2.376   5.625   9.318  1.0212 -0.8361 -1.6159
  154SAPE  C21717153   2.473   5.736   9.184  0.0147  0.4980  0.4022
  154SAPE  H17R17154   2.552   5.659   9.174  1.2062  1.7783 -0.4922
  154SAPE  H17S17155   2.529   5.831   9.170 -0.2134  0.4366 -1.2028
  154SAPE  C21817156   2.366   5.712   9.076  0.3286 -0.0898 -0.0479
  154SAPE  H18R17157   2.307   5.805   9.069 -1.4360 -1.0044  1.6371
  154SAPE  H18S17158   2.299   5.628   9.104  1.5428 -0.8084  0.8134
  154SAPE  C21917159   2.413   5.660   8.937 -0.0972  0.0437  0.4006
  154SAPE  H19R17160   2.450   5.557   8.958  0.4562 -0.2795 -1.9463
  154SAPE  H19S17161   2.491   5.731   8.905  1.8300 -1.4675  1.5382
  154SAPE  C22017162   2.301   5.654   8.826 -0.1018  0.2807 -0.4645
  154SAPE  H20R17163   2.227   5.576   8.854 -0.6663  0.8784 -0.2655
  154SAPE  H20S17164   2.352   5.637   8.729  1.2132  1.6931 -0.0635
  154SAPE  H20T17165   2.257   5.755   8.816 -0.2723  0.4991  1.9984
  154SAPE   C3317166   2.418   5.038  10.062  1.0568 -0.0531 -0.5323
  154SAPE   H3X17167   2.351   4.951  10.079 -0.3612  0.1867 -4.1147
  154SAPE   H3Y17168   2.524   5.007  10.073  0.4481 -1.7111  1.3868
  154SAPE   C3417169   2.381   5.068   9.914  0.0022 -0.5450 -0.0259
  154SAPE   H4X17170   2.274   5.097   9.900  0.6631  2.1361  0.0954
  154SAPE   H4Y17171   2.381   4.968   9.865 -0.3323 -0.4638 -0.1958
  154SAPE   C3517172   2.481   5.159   9.838 -0.1133  0.0993  0.4067
  154SAPE   H5X17173   2.580   5.121   9.871  0.2681 -0.3506 -1.1748
  154SAPE   H5Y17174   2.476   5.265   9.872 -0.4321  0.8482 -1.7811
  154SAPE   C3617175   2.480   5.160   9.686 -0.1839  0.1304  0.2602
  154SAPE   H6X17176   2.385   5.204   9.648  0.0336  2.1837  1.9222
  154SAPE   H6Y17177   2.494   5.055   9.652  1.3201  0.6298 -0.7458
  154SAPE   C3717178   2.602   5.236   9.631 -0.2503  0.5967 -0.0574
  154SAPE   H7X17179   2.691   5.215   9.694 -0.5692 -0.3789  0.0859
  154SAPE   H7Y17180   2.583   5.345   9.638  2.2647  1.1458 -0.8022
  154SAPE   C3817181   2.629   5.202   9.479  0.2068  0.1670 -0.5266
  154SAPE   H8X17182   2.539   5.191   9.415  0.8792 -3.9704 -1.0014
  154SAPE   H8Y17183   2.674   5.101   9.473 -0.7412 -0.3147  0.2226
  154SAPE   C3917184   2.726   5.314   9.430  0.4377 -0.0660 -0.2954
  154SAPE   H9X17185   2.815   5.310   9.496  0.6653 -1.5376 -0.6562
  154SAPE   H9Y17186   2.672   5.410   9.448 -0.3395 -0.7537  1.2197
  154SAPE  C31017187   2.755   5.300   9.274 -0.6612 -0.0635  0.1130
  154SAPE  H10X17188   2.792   5.196   9.261 -1.3196 -0.4022  0.8921
  154SAPE  H10Y17189   2.842   5.361   9.241 -2.1048  0.9657 -2.0257
  154SAPE  C31117190   2.637   5.333   9.187  0.1968  0.3225 -0.3653
  154SAPE  H11X17191   2.610   5.435   9.220  3.2782  1.0884  0.0427
  154SAPE  H11Y17192   2.562   5.252   9.204  1.1430 -0.2365  1.3650
  154SAPE  C31217193   2.680   5.334   9.032 -0.7879 -0.8716  0.2689
  154SAPE  H12X17194   2.595   5.382   8.979 -1.3294 -0.1465  1.7395
  154SAPE  H12Y17195   2.698   5.233   8.989  0.5450  0.1764 -1.7513
  154SAPE  C31317196   2.801   5.424   9.002 -0.0993  0.1257  0.3839
  154SAPE  H13X17197   2.891   5.375   9.044  0.2397 -0.1271 -0.6053
  154SAPE  H13Y17198   2.783   5.516   9.061  0.2081  0.2059  0.3547
  154SAPE  C31417199   2.839   5.453   8.860  0.0663  0.5910  0.5207
  154SAPE  H14X17200   2.889   5.552   8.864 -0.9857  1.1856 -0.4991
  154SAPE  H14Y17201   2.739   5.474   8.817  0.3257  2.1067  0.6049
  154SAPE  C31517202   2.910   5.335   8.794 -0.2707  0.2206  0.3225
  154SAPE  H15X17203   2.843   5.249   8.772 -0.3085  0.1462  0.7329
  154SAPE  H15Y17204   2.992   5.302   8.861 -2.1843  2.0917  3.8983
  154SAPE  C31617205   2.971   5.376   8.662  0.6592  0.0420 -0.3419
  154SAPE  H16X17206   3.039   5.462   8.682  0.2562  0.9223 -2.4711
  154SAPE  H16Y17207   2.888   5.419   8.602 -0.8295 -0.8885  0.9746
  154SAPE  C31717208   3.059   5.269   8.593 -0.7607  0.3172 -0.2755
  154SAPE  H17X17209   3.010   5.177   8.556  1.4458 -2.7444  3.7059
  154SAPE  H17Y17210   3.135   5.230   8.664 -1.0681  1.8112  0.9215
  154SAPE  C31817211   3.141   5.327   8.478  0.4399 -0.0633  0.3183
  154SAPE  H18X17212   3.082   5.381   8.401 -1.6472 -4.1717 -1.2527
  154SAPE  H18Y17213   3.194   5.253   8.414 -0.8998 -0.1006 -0.7891
  154SAPE  H18Z17214   3.220   5.395   8.517  2.2200 -1.2334 -1.0710
  155SAPE     N17215   1.115   0.336  10.816 -0.0840 -0.7580 -0.1542
  155SAPE   HN117216   1.121   0.435  10.848  3.1063 -1.4604  1.8369
  155SAPE   HN217217   1.017   0.301  10.827 -0.5124  0.6927  0.9242
  155SAPE   HN317218   1.186   0.282  10.868 -0.6027 -1.5713 -0.2760
  155SAPE   C1217219   1.143   0.326  10.667 -0.8390 -0.2154  0.1556
  155SAPE  H12A17220   1.139   0.218  10.643 -0.4827  0.0639 -1.2575
  155SAPE  H12B17221   1.248   0.361  10.652 -1.4466  0.8591 -1.9621
  155SAPE   C1117222   1.039   0.404  10.580  0.3328 -0.0423 -0.3818
  155SAPE  H11A17223   0.943   0.364  10.619  0.5549  0.4163  0.6693
  155SAPE  H11B17224   1.043   0.384  10.470 -0.1343 -0.8944 -0.2496
  155SAPE     P17225   1.136   0.652  10.562  0.1730  0.0293 -0.0727
  155SAPE   O1317226   1.053   0.777  10.557 -0.5234 -0.3782 -0.0019
  155SAPE   O1417227   1.254   0.647  10.650  0.0685  0.1636  0.1768
  155SAPE   O1217228   1.027   0.543  10.610 -0.3273  0.1643  0.6274
  155SAPE   O1117229   1.171   0.598  10.416 -0.3842 -0.7721 -0.5169
  155SAPE    C117230   1.169   0.688  10.298 -0.4273  0.3139 -0.0684
  155SAPE    HA17231   1.068   0.730  10.280 -0.1943  0.3487 -1.4266
  155SAPE    HB17232   1.231   0.780  10.313  1.0011 -0.9124  2.0482
  155SAPE    C217233   1.230   0.629  10.164 -0.0297  0.3010  0.1672
  155SAPE    HS17234   1.179   0.532  10.145 -0.9124  0.6073  0.8896
  155SAPE   O2117235   1.368   0.614  10.191  0.2084 -0.6307 -0.0795
  155SAPE   C2117236   1.442   0.529  10.116 -0.1743 -0.7064 -0.2673
  155SAPE   O2217237   1.385   0.453  10.038 -0.1943 -0.2545  0.0277
  155SAPE   C2217238   1.583   0.540  10.156 -0.7645 -0.5493  0.0280
  155SAPE   H2R17239   1.593   0.608  10.244  1.5739 -0.8750  0.0929
  155SAPE   H2S17240   1.613   0.438  10.187  0.1676 -0.2490  0.1528
  155SAPE    C317241   1.217   0.733  10.050  0.7908  0.5367  0.0365
  155SAPE    HX17242   1.286   0.816  10.081  0.0644  0.5528  1.7471
  155SAPE    HY17243   1.111   0.764  10.061  0.5449 -0.8376  2.3631
  155SAPE   O3117244   1.249   0.679   9.917  0.0376 -0.1891 -0.1935
  155SAPE   C3117245   1.154   0.594   9.868 -0.3916  0.1410  0.9113
  155SAPE   O3217246   1.042   0.576   9.914  0.2320  0.5847 -0.6479
  155SAPE   C3217247   1.199   0.537   9.732  0.2753  0.5737  0.3743
  155SAPE   H2X17248   1.248   0.441   9.758  2.0839  1.4993  0.6120
  155SAPE   H2Y17249   1.278   0.601   9.685  1.6145 -1.6589 -0.6116
  155SAPE   C2317250   1.679   0.615  10.057 -0.1996  0.9171  0.0936
  155SAPE   H3R17251   1.785   0.609  10.091 -0.3505  0.8935  0.5673
  155SAPE   H3S17252   1.664   0.725  10.050 -0.3202  0.7972 -1.9402
  155SAPE   C2417253   1.675   0.544   9.915  0.0422  0.0701 -0.0971
  155SAPE   H4R17254   1.734   0.597   9.838 -1.4509 -0.6603 -1.8153
  155SAPE   H4S17255   1.570   0.545   9.877 -0.6155  1.3620  1.6130
  155SAPE   C2517256   1.717   0.401   9.926  0.0784  0.6028  0.2272
  155SAPE   H5R17257   1.798   0.382   9.998 -0.5173  1.6102  1.2037
  155SAPE   C2617258   1.666   0.288   9.873  0.2016  0.6063  0.3083
  155SAPE   H6R17259   1.713   0.196   9.908  2.0000  1.4187  0.1353
  155SAPE   C2717260   1.557   0.286   9.772 -1.5272 -0.1941 -0.4573
  155SAPE   H7R17261   1.485   0.371   9.776  0.2964  1.4251 -0.5990
  155SAPE   H7S17262   1.492   0.198   9.790 -2.4117 -0.1434 -2.9429
  155SAPE   C2817263   1.622   0.272   9.634  0.6684  0.8676  0.1789
  155SAPE   H8R17264   1.718   0.219   9.620 -0.7026 -1.1233 -2.7487
  155SAPE   C2917265   1.561   0.298   9.520 -0.8371  0.0880  0.5378
  155SAPE   H9R17266   1.623   0.294   9.429  0.5382 -1.6519  1.5046
  155SAPE  C21017267   1.428   0.363   9.502  0.1202 -0.0424 -0.6054
  155SAPE  H10R17268   1.400   0.423   9.591 -0.1137 -0.4533 -0.3987
  155SAPE  H10S17269   1.355   0.279   9.497 -0.2757  0.3093 -0.9074
  155SAPE  C21117270   1.417   0.453   9.376 -0.1347 -0.5089  0.7524
  155SAPE  H11R17271   1.419   0.560   9.402  0.5767  0.1134 -1.6364
  155SAPE  C21217272   1.403   0.406   9.249 -1.0820 -0.0511 -0.1455
  155SAPE  H12R17273   1.394   0.475   9.164 -1.4907  0.8530  0.6180
  155SAPE  C21317274   1.393   0.260   9.211  0.7894  0.6944 -0.0019
  155SAPE  H13R17275   1.416   0.200   9.301 -3.2659 -0.4605  0.4858
  155SAPE  H13S17276   1.471   0.238   9.136 -1.6425 -1.8205 -2.0082
  155SAPE  C21417277   1.254   0.212   9.163  0.0968 -0.7919 -0.5873
  155SAPE  H14R17278   1.172   0.271   9.206  0.3348  0.6033 -1.9636
  155SAPE  C21517279   1.237   0.107   9.085  0.2095 -0.1860 -0.1660
  155SAPE  H15R17280   1.132   0.075   9.071 -0.2186  0.6126  1.0654
  155SAPE  C21617281   1.347   0.026   9.017  0.2539  0.1108  0.2459
  155SAPE  H16R17282   1.317  -0.077   8.989  0.7469  0.1147 -0.3066
  155SAPE  H16S17283   1.432   0.006   9.086  0.8011  0.8177 -0.2199
  155SAPE  C21717284   1.400   0.093   8.886  0.6030  0.0834  0.1423
  155SAPE  H17R17285   1.492   0.042   8.849  0.5051  0.5143 -0.7017
  155SAPE  H17S17286   1.436   0.196   8.904  4.1491 -0.7446 -1.4008
  155SAPE  C21817287   1.303   0.081   8.766  0.4973  0.1181  0.1904
  155SAPE  H18R17288   1.335   0.160   8.694  0.5762  1.2108  1.3847
  155SAPE  H18S17289   1.202   0.110   8.802  0.1714 -1.2940  0.4807
  155SAPE  C21917290   1.298  -0.058   8.701 -0.6918 -0.4309 -0.5693
  155SAPE  H19R17291   1.270  -0.137   8.774  0.6476 -0.3942  0.0113
  155SAPE  H19S17292   1.400  -0.091   8.673  0.0612 -0.9350  2.4484
  155SAPE  C22017293   1.198  -0.067   8.581  0.5784  0.5050 -0.1534
  155SAPE  H20R17294   1.096  -0.041   8.615 -0.3094 -0.2576 -2.1174
  155SAPE  H20S17295   1.192  -0.170   8.539  0.1867 -0.5119  2.2666
  155SAPE  H20T17296   1.227  -0.004   8.494  2.9181  0.8280  0.7990
  155SAPE   C3317297   1.081   0.526   9.627  0.1724 -0.3226 -0.4716
  155SAPE   H3X17298   0.981   0.504   9.670  0.0458  0.8779 -0.1222
  155SAPE   H3Y17299   1.089   0.435   9.563 -4.1142 -1.8523  0.8100
  155SAPE   C3417300   1.069   0.642   9.534  0.3603 -0.6329  0.6856
  155SAPE   H4X17301   1.170   0.657   9.489  1.6616 -2.9463  2.5961
  155SAPE   H4Y17302   1.054   0.738   9.589  0.3981 -0.8508  1.0805
  155SAPE   C3517303   0.959   0.611   9.422 -0.5455  0.2176  0.4213
  155SAPE   H5X17304   0.886   0.694   9.415 -1.4580 -0.3872  2.1170
  155SAPE   H5Y17305   0.888   0.531   9.453 -1.7794  1.2736  0.4012
  155SAPE   C3617306   1.024   0.576   9.281  0.0286 -0.9869 -0.2655
  155SAPE   H6X17307   1.096   0.492   9.292 -1.4897 -2.2327  0.4340
  155SAPE   H6Y17308   1.068   0.672   9.244 -0.6062 -0.6932 -0.2655
  155SAPE   C3717309   0.921   0.539   9.177 -0.3423  0.0154  0.3286
  155SAPE   H7X17310   0.869   0.630   9.138  1.5568  1.2865  0.6148
  155SAPE   H7Y17311   0.850   0.473   9.232  1.0150  0.0852  2.2609
  155SAPE   C3817312   0.967   0.440   9.065 -0.4469  0.2170  0.2223
  155SAPE   H8X17313   0.974   0.344   9.120 -0.3472  1.0431  1.7196
  155SAPE   H8Y17314   1.064   0.485   9.035  1.2720 -0.6435  3.8765
  155SAPE   C3917315   0.863   0.423   8.959 -0.0282  0.2992  0.7735
  155SAPE   H9X17316   0.854   0.522   8.911 -0.5495  1.6778  3.5486
  155SAPE   H9Y17317   0.766   0.395   9.004 -0.3312  0.8307  0.4506
  155SAPE  C31017318   0.894   0.324   8.848 -0.0200 -0.4753 -0.1535
  155SAPE  H10X17319   0.885   0.221   8.888 -0.6415 -0.2932  0.1941
  155SAPE  H10Y17320   1.000   0.342   8.820  0.9728  0.1624  3.4800
  155SAPE  C31117321   0.807   0.356   8.724  0.0104  0.8051 -0.1747
  155SAPE  H11X17322   0.824   0.459   8.687  0.6513  0.9820  0.5684
  155SAPE  H11Y17323   0.701   0.336   8.750 -0.1815  1.6843 -0.2381
  155SAPE  C31217324   0.852   0.270   8.600 -0.5224  0.4320 -0.4211
  155SAPE  H12X17325   0.820   0.165   8.613 -0.1736  0.6952  4.2931
  155SAPE  H12Y17326   0.963   0.275   8.592 -0.4420 -0.7158 -0.1939
  155SAPE  C31317327   0.812   0.334   8.466  0.1296  0.4211 -0.8667
  155SAPE  H13X17328   0.856   0.435   8.455 -1.4211  1.2050 -0.0428
  155SAPE  H13Y17329   0.702   0.347   8.474  0.2008  2.1750 -2.2087
  155SAPE  C31417330   0.845   0.236   8.350 -0.3902  0.2361 -0.5703
  155SAPE  H14X17331   0.799   0.135   8.357  0.2239 -0.0014  0.1195
  155SAPE  H14Y17332   0.953   0.210   8.347 -0.0508  1.4645  0.2564
  155SAPE  C31517333   0.808   0.302   8.213 -0.0394  0.0240 -0.3191
  155SAPE  H15X17334   0.875   0.389   8.200  0.0208 -0.3300 -2.7756
  155SAPE  H15Y17335   0.707   0.346   8.227  0.2745 -0.2199  4.3003
  155SAPE  C31617336   0.815   0.211   8.087 -0.1659 -0.1410 -0.4240
  155SAPE  H16X17337   0.739   0.132   8.104 -0.6898  0.0120 -1.9545
  155SAPE  H16Y17338   0.916   0.164   8.089 -0.6492 -1.2182  1.2830
  155SAPE  C31717339   0.801   0.298   7.959  0.5929  0.3232  0.6728
  155SAPE  H17X17340   0.830   0.220   7.886 -0.3580 -0.9830  1.6542
  155SAPE  H17Y17341   0.882   0.374   7.962  1.4885 -0.4787 -1.4589
  155SAPE  C31817342   0.662   0.356   7.932  0.4244  0.6281  0.2518
  155SAPE  H18X17343   0.665   0.430   7.849 -2.7793 -0.9524 -1.4534
  155SAPE  H18Y17344   0.621   0.420   8.013  1.6917  1.3183  0.3836
  155SAPE  H18Z17345   0.597   0.271   7.903  1.9706 -1.0091  1.3937
  156SAPE     N17346   3.145   4.109  10.896 -0.3472  0.1328  0.4572
  156SAPE   HN117347   3.147   4.011  10.863  2.6459 -0.0711  0.9646
  156SAPE   HN217348   3.199   4.167  10.827  1.1356 -1.5272  0.1497
  156SAPE   HN317349   3.204   4.106  10.982 -0.6701  1.3717  0.7437
  156SAPE   C1217350   3.010   4.169  10.925 -0.1658 -0.2250  0.1886
  156SAPE  H12A17351   3.018   4.280  10.925 -1.7298 -0.0847 -0.7868
  156SAPE  H12B17352   2.968   4.138  11.023  0.5120  0.5778  0.7513
  156SAPE   C1117353   2.910   4.115  10.818 -0.2496  0.8871  0.4847
  156SAPE  H11A17354   2.953   4.137  10.718 -0.4555  2.5556  0.7450
  156SAPE  H11B17355   2.813   4.167  10.831 -0.9660 -0.3191  0.0857
  156SAPE     P17356   2.787   3.896  10.745  0.1204  0.2099  0.3154
  156SAPE   O1317357   2.791   3.754  10.788  0.3338  0.5978 -0.1600
  156SAPE   O1417358   2.652   3.960  10.745 -0.3334 -0.8305  0.1788
  156SAPE   O1217359   2.888   3.974  10.841  0.3043 -0.0509  0.1812
  156SAPE   O1117360   2.852   3.913  10.605 -0.0332  0.1749  0.5467
  156SAPE    C117361   2.974   3.860  10.570 -0.5105  0.0647 -0.4977
  156SAPE    HA17362   3.054   3.897  10.638 -1.1403 -0.7773  0.7492
  156SAPE    HB17363   2.987   3.750  10.579 -0.5341 -0.1701 -2.7430
  156SAPE    C217364   3.008   3.882  10.423 -0.6464 -0.4633  0.6500
  156SAPE    HS17365   3.115   3.862  10.400 -0.9048 -2.6584  1.1015
  156SAPE   O2117366   2.980   4.020  10.374 -0.3295  0.8690 -0.4799
  156SAPE   C2117367   3.073   4.100  10.428  0.2719 -0.7795 -0.4798
  156SAPE   O2217368   3.161   4.069  10.510  0.8018 -0.2465 -0.6810
  156SAPE   C2217369   3.057   4.239  10.387  0.1204 -0.2956  0.3964
  156SAPE   H2R17370   2.976   4.254  10.311  1.9454  2.6438 -1.1759
  156SAPE   H2S17371   3.041   4.303  10.476 -1.5138 -0.8625  0.5461
  156SAPE    C317372   2.927   3.791  10.328 -0.2104 -0.3974 -0.4001
  156SAPE    HX17373   2.826   3.816  10.367 -0.5063  1.5896 -2.2095
  156SAPE    HY17374   2.951   3.683  10.331 -0.1277 -0.4035 -1.0700
  156SAPE   O3117375   2.935   3.830  10.190 -0.0262 -0.2076 -0.6256
  156SAPE   C3117376   3.044   3.808  10.129 -0.2781 -0.8507 -0.2967
  156SAPE   O3217377   3.150   3.776  10.190  0.2987  0.3804  1.1141
  156SAPE   C3217378   3.031   3.824   9.974 -0.2978 -0.0120 -0.5514
  156SAPE   H2X17379   2.926   3.794   9.952 -0.8508  0.5927  1.0877
  156SAPE   H2Y17380   3.101   3.744   9.943  2.5117  2.0326  0.0308
  156SAPE   C2317381   3.198   4.287  10.335  0.8152  0.8645  0.6276
  156SAPE   H3R17382   3.267   4.204  10.306  0.4897  0.4761  0.9670
  156SAPE   H3S17383   3.245   4.327  10.427  0.3769 -0.6502  1.5390
  156SAPE   C2417384   3.195   4.390  10.221  0.0929  0.3920  0.1553
  156SAPE   H4R17385   3.298   4.431  10.212  1.0266 -1.8819 -0.3299
  156SAPE   H4S17386   3.130   4.474  10.251  1.5356  1.4361  0.4929
  156SAPE   C2517387   3.148   4.336  10.088 -0.2695  0.5340  0.1151
  156SAPE   H5R17388   3.087   4.244  10.087  1.4279 -0.7864 -3.7057
  156SAPE   C2617389   3.185   4.381   9.969  0.2359 -0.1520  0.5939
  156SAPE   H6R17390   3.151   4.326   9.880 -0.5346 -0.9958  1.3835
  156SAPE   C2717391   3.264   4.503   9.932 -0.8702  0.2906  0.1548
  156SAPE   H7R17392   3.314   4.557  10.015 -0.0460  1.5860 -1.1354
  156SAPE   H7S17393   3.206   4.585   9.884  2.8659  2.2118 -1.4608
  156SAPE   C2817394   3.373   4.479   9.826 -0.3505 -0.8141  0.1560
  156SAPE   H8R17395   3.469   4.445   9.867 -0.4452 -0.7528  0.4341
  156SAPE   C2917396   3.355   4.485   9.692 -0.2186  0.4963 -0.2669
  156SAPE   H9R17397   3.443   4.467   9.628 -1.8703  2.7717 -3.4923
  156SAPE  C21017398   3.231   4.502   9.613  0.5831 -0.2371  0.2928
  156SAPE  H10R17399   3.151   4.532   9.684  0.3167 -0.0919 -0.0609
  156SAPE  H10S17400   3.193   4.401   9.586 -0.3630 -0.3124  1.7946
  156SAPE  C21117401   3.236   4.601   9.497  0.4966  1.0061 -0.7804
  156SAPE  H11R17402   3.207   4.702   9.530  1.8172  0.1334  3.6316
  156SAPE  C21217403   3.278   4.577   9.373  0.9904 -0.6022 -0.2651
  156SAPE  H12R17404   3.265   4.660   9.302 -0.9989 -1.7275 -1.2928
  156SAPE  C21317405   3.336   4.455   9.306  0.1797 -0.2568 -0.6670
  156SAPE  H13R17406   3.349   4.364   9.369  0.6004 -0.6397 -1.3032
  156SAPE  H13S17407   3.441   4.483   9.281  1.0136  0.5722  3.1056
  156SAPE  C21417408   3.258   4.407   9.184  0.2149 -0.0250  0.5653
  156SAPE  H14R17409   3.177   4.336   9.204  0.9008 -0.2341  2.9751
  156SAPE  C21517410   3.268   4.470   9.070  0.5470 -0.1750  0.7212
  156SAPE  H15R17411   3.194   4.436   8.995  1.4865  0.1733 -0.4032
  156SAPE  C21617412   3.351   4.589   9.023  0.2251 -0.2208 -0.1095
  156SAPE  H16R17413   3.447   4.554   8.980  0.8683  2.1941 -0.7750
  156SAPE  H16S17414   3.375   4.657   9.108 -2.5171  0.6779  0.0497
  156SAPE  C21717415   3.267   4.664   8.916  0.1488  0.4620  0.2156
  156SAPE  H17R17416   3.162   4.684   8.945 -0.1369  1.2027 -1.2142
  156SAPE  H17S17417   3.270   4.595   8.830  0.0163  1.2098 -0.4045
  156SAPE  C21817418   3.319   4.800   8.874 -1.0530  0.1622  0.1347
  156SAPE  H18R17419   3.429   4.786   8.863 -1.1101 -0.7034  0.6512
  156SAPE  H18S17420   3.291   4.878   8.948 -2.9227 -1.7008  1.5033
  156SAPE  C21917421   3.257   4.848   8.745  0.8809 -0.2381  0.4142
  156SAPE  H19R17422   3.147   4.830   8.751  0.3894  2.4795  1.0686
  156SAPE  H19S17423   3.315   4.803   8.662 -1.0456  0.7351 -1.5797
  156SAPE  C22017424   3.251   4.997   8.722 -0.9660 -0.3562  0.4086
  156SAPE  H20R17425   3.193   5.036   8.808  0.4252  0.5594  0.9701
  156SAPE  H20S17426   3.209   5.030   8.625  0.3014 -0.0950 -0.0782
  156SAPE  H20T17427   3.355   5.037   8.719 -1.7060  1.7329  0.6259
  156SAPE   C3317428   3.075   3.959   9.922  0.3005  0.1529  0.3639
  156SAPE   H3X17429   3.175   3.975   9.969 -0.1334  2.3378  0.6657
  156SAPE   H3Y17430   3.003   4.038   9.952  0.2925  2.4264 -4.7351
  156SAPE   C3417431   3.094   3.966   9.767  0.0366  0.8422  0.0153
  156SAPE   H4X17432   3.001   3.949   9.708  1.0469 -0.4969 -1.2736
  156SAPE   H4Y17433   3.162   3.883   9.738  0.4076  1.4373 -0.8429
  156SAPE   C3517434   3.147   4.095   9.713 -0.1099 -0.3986  0.0676
  156SAPE   H5X17435   3.239   4.119   9.770  0.4624  2.3613 -1.8558
  156SAPE   H5Y17436   3.081   4.181   9.735 -0.3710 -0.6932  0.4541
  156SAPE   C3617437   3.193   4.077   9.569  0.1936 -0.0644 -0.2059
  156SAPE   H6X17438   3.264   3.991   9.572 -0.4222 -0.6735 -1.9496
  156SAPE   H6Y17439   3.241   4.169   9.530 -1.6707  0.3283 -1.6945
  156SAPE   C3717440   3.075   4.032   9.477  0.4657  0.2443 -0.3239
  156SAPE   H7X17441   3.003   4.100   9.526  1.0230  0.8039 -0.2624
  156SAPE   H7Y17442   3.039   3.928   9.489 -0.7690  0.7281  0.3114
  156SAPE   C3817443   3.103   4.064   9.331  0.6228 -0.5357 -0.2235
  156SAPE   H8X17444   3.156   4.162   9.329  0.8623 -0.6777 -0.8786
  156SAPE   H8Y17445   3.015   4.102   9.276  1.1884  2.1610  0.5632
  156SAPE   C3917446   3.198   3.968   9.253 -0.5758 -0.3766 -0.4455
  156SAPE   H9X17447   3.155   3.865   9.249  0.5600 -0.8803 -0.1462
  156SAPE   H9Y17448   3.286   3.955   9.319 -0.1431  0.4624 -0.8486
  156SAPE  C31017449   3.232   4.022   9.107 -0.3469  0.6141 -0.3728
  156SAPE  H10X17450   3.271   4.125   9.121 -1.5341  0.8796  1.3382
  156SAPE  H10Y17451   3.137   4.026   9.049  0.8872 -0.1491 -2.5634
  156SAPE  C31117452   3.323   3.914   9.049 -0.2477 -0.0289 -0.0842
  156SAPE  H11X17453   3.261   3.823   9.036 -0.6533  0.1371  0.6268
  156SAPE  H11Y17454   3.403   3.886   9.121 -0.5749 -0.5583  0.0765
  156SAPE  C31217455   3.385   3.951   8.915  0.0932  0.2897 -0.0627
  156SAPE  H12X17456   3.447   3.870   8.871 -1.5552 -1.6619  1.0229
  156SAPE  H12Y17457   3.461   4.032   8.924  1.4174 -0.8704 -0.3907
  156SAPE  C31317458   3.285   3.992   8.801  0.0666  0.1320 -0.4653
  156SAPE  H13X17459   3.238   4.086   8.838 -0.3265 -0.3782  0.3539
  156SAPE  H13Y17460   3.204   3.917   8.813 -1.2181  1.7852  1.7182
  156SAPE  C31417461   3.346   4.017   8.666  0.6979  0.0607 -1.0169
  156SAPE  H14X17462   3.430   4.089   8.666  0.8150 -0.0226  0.9884
  156SAPE  H14Y17463   3.269   4.067   8.603 -0.2866 -0.3789 -0.1986
  156SAPE  C31517464   3.412   3.887   8.615 -0.7371 -0.1273  0.4286
  156SAPE  H15X17465   3.346   3.798   8.627 -0.5352 -0.4174 -0.4711
  156SAPE  H15Y17466   3.504   3.877   8.676  0.1957 -0.7092 -1.0004
  156SAPE  C31617467   3.447   3.893   8.463 -1.3209 -0.3620  0.2855
  156SAPE  H16X17468   3.349   3.880   8.413 -2.0126  0.1076  1.4829
  156SAPE  H16Y17469   3.505   3.801   8.438 -2.0376 -1.5592  2.6655
  156SAPE  C31717470   3.515   4.023   8.408  0.3414  0.4522 -0.3787
  156SAPE  H17X17471   3.479   4.117   8.455  1.0580 -0.1724  1.5420
  156SAPE  H17Y17472   3.487   4.025   8.301  1.9626 -1.6357 -0.9069
  156SAPE  C31817473   3.665   4.015   8.410 -0.0762  0.0237  0.0041
  156SAPE  H18X17474   3.711   3.929   8.356  1.9252  1.5864 -0.8969
  156SAPE  H18Y17475   3.702   4.017   8.515  1.0433 -0.9820 -0.3473
  156SAPE  H18Z17476   3.715   4.102   8.364 -0.8358 -0.6631 -2.2534
  157SAPE     N17477   4.218   5.806  10.806 -0.4395  0.8342  0.2655
  157SAPE   HN117478   4.138   5.768  10.859  1.2621 -1.9347  1.0568
  157SAPE   HN217479   4.227   5.730  10.735 -2.6559  1.2980 -0.5853
  157SAPE   HN317480   4.304   5.811  10.864 -1.7938 -0.2210  2.4985
  157SAPE   C1217481   4.191   5.934  10.736  0.3097 -0.9937 -0.7761
  157SAPE  H12A17482   4.280   5.964  10.676 -0.5840  1.2728 -1.0566
  157SAPE  H12B17483   4.178   6.010  10.815 -0.2852 -0.9009 -0.9633
  157SAPE   C1117484   4.059   5.926  10.658 -0.0378 -0.0069 -0.2917
  157SAPE  H11A17485   4.046   6.025  10.610 -1.8300  0.2234  0.5939
  157SAPE  H11B17486   3.974   5.930  10.729  0.8212 -1.3218  0.8490
  157SAPE     P17487   3.929   5.720  10.567 -0.0527  0.4763 -0.3841
  157SAPE   O1317488   3.953   5.600  10.488  0.4062  0.2889  0.3060
  157SAPE   O1417489   3.929   5.698  10.717  0.0837 -0.1441 -0.0450
  157SAPE   O1217490   4.047   5.822  10.557 -0.0084 -0.2695  0.4852
  157SAPE   O1117491   3.795   5.792  10.524 -0.2962  0.3259 -0.7132
  157SAPE    C117492   3.760   5.805  10.384  1.4235  0.1717  0.3260
  157SAPE    HA17493   3.792   5.720  10.320 -0.4056  0.0026 -0.4263
  157SAPE    HB17494   3.650   5.812  10.371  1.4387 -0.8342 -0.5147
  157SAPE    C217495   3.810   5.941  10.326 -0.2455  0.5802  0.4723
  157SAPE    HS17496   3.763   5.939  10.225 -1.0274 -0.3015  0.8370
  157SAPE   O2117497   3.950   5.957  10.315 -0.2836  0.1564 -0.0892
  157SAPE   C2117498   4.010   5.893  10.217 -0.1374  0.5634  0.8915
  157SAPE   O2217499   3.952   5.828  10.134 -0.0959  0.4379 -0.2653
  157SAPE   C2217500   4.153   5.915  10.202 -0.5508 -0.5960  0.6011
  157SAPE   H2R17501   4.190   6.002  10.143  1.0241 -1.8115 -0.2873
  157SAPE   H2S17502   4.193   5.915  10.306  2.0484  0.8918 -0.2829
  157SAPE    C317503   3.759   6.061  10.411  0.0652 -0.3302 -0.2101
  157SAPE    HX17504   3.823   6.054  10.501 -0.8399 -0.1280  0.4587
  157SAPE    HY17505   3.652   6.055  10.440  0.6636  0.3120  2.3148
  157SAPE   O3117506   3.791   6.188  10.349 -0.2361 -0.2885 -0.1358
  157SAPE   C3117507   3.814   6.284  10.435  0.1294  0.4966 -0.0451
  157SAPE   O3217508   3.801   6.275  10.555  0.7540 -0.0588  0.2387
  157SAPE   C3217509   3.828   6.413  10.357  0.0066  0.0950 -0.6619
  157SAPE   H2X17510   3.812   6.496  10.428  2.0568  0.1614 -0.2152
  157SAPE   H2Y17511   3.747   6.421  10.281 -0.9171 -0.3364  0.2572
  157SAPE   C2317512   4.228   5.808  10.122  0.0557  0.8641 -0.0459
  157SAPE   H3R17513   4.191   5.786  10.020  2.4317 -1.1949 -0.5646
  157SAPE   H3S17514   4.213   5.716  10.182  0.0472 -0.2789 -1.7145
  157SAPE   C2417515   4.378   5.843  10.119 -0.1344  0.6346  0.0428
  157SAPE   H4R17516   4.415   5.885  10.215  3.7372 -0.7976 -0.6649
  157SAPE   H4S17517   4.389   5.928  10.048 -0.5715  1.6814  1.1959
  157SAPE   C2517518   4.457   5.719  10.084 -0.0909 -0.3274 -0.1823
  157SAPE   H5R17519   4.502   5.677  10.174  1.8114 -0.9601 -1.3750
  157SAPE   C2617520   4.466   5.666   9.959  0.1721  0.0057 -1.0477
  157SAPE   H6R17521   4.526   5.574   9.948  2.6393  1.5070 -0.9506
  157SAPE   C2717522   4.405   5.701   9.827  0.2449 -0.6437 -1.0152
  157SAPE   H7R17523   4.296   5.720   9.838 -0.2761 -2.0252 -3.0720
  157SAPE   H7S17524   4.416   5.614   9.759  0.3397 -1.1664 -0.3481
  157SAPE   C2817525   4.472   5.822   9.773  0.1596  0.1059 -0.5431
  157SAPE   H8R17526   4.529   5.878   9.848  0.6427 -0.8559 -0.1701
  157SAPE   C2917527   4.498   5.854   9.644  0.3568 -0.0121 -0.0718
  157SAPE   H9R17528   4.541   5.951   9.614  0.7242 -0.5085 -1.1904
  157SAPE  C21017529   4.452   5.766   9.535  0.3669 -0.3150 -0.3613
  157SAPE  H10R17530   4.404   5.829   9.458  4.0622  1.4367 -1.4407
  157SAPE  H10S17531   4.385   5.688   9.578  0.8598  0.3728  1.7664
  157SAPE  C21117532   4.549   5.675   9.470  0.1131  0.3426 -0.5380
  157SAPE  H11R17533   4.593   5.599   9.536 -0.3490 -0.5547 -1.2421
  157SAPE  C21217534   4.613   5.680   9.354 -0.3903 -1.1627  0.6970
  157SAPE  H12R17535   4.682   5.598   9.328  1.3211  0.4626 -0.1609
  157SAPE  C21317536   4.598   5.783   9.249  0.4413 -0.1822 -0.0153
  157SAPE  H13R17537   4.592   5.888   9.285  5.4556  0.1922  0.3515
  157SAPE  H13S17538   4.510   5.766   9.184  2.0633 -0.9555 -2.0882
  157SAPE  C21417539   4.723   5.791   9.166 -0.2808 -0.1379 -0.2706
  157SAPE  H14R17540   4.819   5.761   9.210 -0.2409  1.4100  0.7701
  157SAPE  C21517541   4.720   5.850   9.047  0.3684 -0.7981 -0.2843
  157SAPE  H15R17542   4.810   5.853   8.984  0.5314 -1.6985 -0.1081
  157SAPE  C21617543   4.609   5.905   8.968 -0.4263  0.5836 -0.6002
  157SAPE  H16R17544   4.519   5.865   9.019  0.1152  1.3300  0.9887
  157SAPE  H16S17545   4.612   5.867   8.863  1.7310  3.2876 -1.6398
  157SAPE  C21717546   4.603   6.052   8.951 -0.5309 -0.0338 -1.0297
  157SAPE  H17R17547   4.588   6.108   9.046 -1.8188 -3.0338  0.6945
  157SAPE  H17S17548   4.509   6.064   8.892 -0.9031 -0.6048 -0.5681
  157SAPE  C21817549   4.716   6.104   8.866  0.1959  0.7701  0.2603
  157SAPE  H18R17550   4.722   6.039   8.776 -1.8334  0.8986 -0.0083
  157SAPE  H18S17551   4.815   6.107   8.916 -0.3030  1.0057  1.2702
  157SAPE  C21917552   4.681   6.246   8.810  0.3359  0.0767 -0.5314
  157SAPE  H19R17553   4.675   6.307   8.903 -0.0955 -2.5641  1.2920
  157SAPE  H19S17554   4.580   6.246   8.765  0.0994 -2.3190 -0.1333
  157SAPE  C22017555   4.789   6.304   8.724 -0.6085  0.4971 -0.0352
  157SAPE  H20R17556   4.889   6.292   8.771  0.7272 -2.7936 -3.2127
  157SAPE  H20S17557   4.790   6.414   8.711  4.2092  0.5849 -0.9211
  157SAPE  H20T17558   4.806   6.244   8.631  4.2756  3.1878 -1.2547
  157SAPE   C3317559   3.961   6.413  10.277 -0.4565  0.1179 -0.4398
  157SAPE   H3X17560   4.038   6.385  10.351 -1.4255 -0.0659  0.5252
  157SAPE   H3Y17561   3.979   6.518  10.247 -1.5558  0.1167 -1.1817
  157SAPE   C3417562   3.961   6.319  10.155  0.0588 -0.5863  0.3600
  157SAPE   H4X17563   3.873   6.350  10.094  0.0213 -0.4541  0.4815
  157SAPE   H4Y17564   3.952   6.213  10.187 -1.6402  0.1076  2.4424
  157SAPE   C3517565   4.090   6.340  10.075 -0.7587 -0.0332 -0.7543
  157SAPE   H5X17566   4.171   6.273  10.108 -1.9161 -0.6158  1.0516
  157SAPE   H5Y17567   4.122   6.447  10.079 -1.1593  0.1432 -1.8160
  157SAPE   C3617568   4.060   6.312   9.924  0.1069  0.3102  0.2738
  157SAPE   H6X17569   4.095   6.408   9.880  2.8502 -0.8471 -0.2489
  157SAPE   H6Y17570   3.954   6.296   9.894  0.9355 -2.9610 -1.3927
  157SAPE   C3717571   4.138   6.192   9.868 -0.0432  0.3054  0.5644
  157SAPE   H7X17572   4.088   6.106   9.917  1.9048 -2.3314 -1.7527
  157SAPE   H7Y17573   4.244   6.202   9.900 -0.2199 -0.1239  1.3068
  157SAPE   C3817574   4.144   6.175   9.712  0.6338  0.1594 -0.5766
  157SAPE   H8X17575   4.187   6.266   9.666 -1.0386  0.8763 -0.7885
  157SAPE   H8Y17576   4.045   6.138   9.678  0.4628 -2.9895  2.6858
  157SAPE   C3917577   4.216   6.041   9.669  0.1726  0.4037 -1.2550
  157SAPE   H9X17578   4.194   5.970   9.752 -0.7929  0.4650 -1.4471
  157SAPE   H9Y17579   4.326   6.059   9.664  0.0015  3.3261  1.6838
  157SAPE  C31017580   4.172   5.990   9.529 -0.5668  0.0633 -0.3116
  157SAPE  H10X17581   4.062   5.980   9.535 -0.5969  1.2049  1.5339
  157SAPE  H10Y17582   4.201   5.891   9.487 -2.6275  0.1326 -2.0677
  157SAPE  C31117583   4.204   6.099   9.423 -0.0609  0.7968 -1.0715
  157SAPE  H11X17584   4.315   6.094   9.421 -0.0074 -1.0601  1.9078
  157SAPE  H11Y17585   4.166   6.200   9.449  0.0077  1.2085 -2.4635
  157SAPE  C31217586   4.144   6.071   9.282 -0.7027  0.3924  0.4505
  157SAPE  H12X17587   4.175   6.154   9.214 -1.1015  0.6198  0.5437
  157SAPE  H12Y17588   4.034   6.057   9.268 -0.8608  1.8797 -0.0142
  157SAPE  C31317589   4.197   5.933   9.227 -0.2941 -0.1089  0.0313
  157SAPE  H13X17590   4.210   5.858   9.308  0.0911  1.3546  1.3880
  157SAPE  H13Y17591   4.298   5.953   9.186 -0.1528  1.4029  1.0270
  157SAPE  C31417592   4.115   5.871   9.114  0.3842 -0.6023  0.1197
  157SAPE  H14X17593   4.098   5.950   9.038 -0.8358 -1.3632 -0.4242
  157SAPE  H14Y17594   4.021   5.834   9.160 -0.0387 -0.6833 -0.7833
  157SAPE  C31517595   4.187   5.754   9.046  0.2188  0.3775  0.0931
  157SAPE  H15X17596   4.204   5.690   9.135  1.5972  0.3293 -0.1875
  157SAPE  H15Y17597   4.293   5.783   9.030  0.0145  0.4324 -1.1876
  157SAPE  C31617598   4.113   5.695   8.926 -0.0646  0.9980 -0.5230
  157SAPE  H16X17599   4.004   5.700   8.941  0.1438 -0.0693  1.7314
  157SAPE  H16Y17600   4.145   5.589   8.921 -0.5749  0.7455  0.9647
  157SAPE  C31717601   4.164   5.756   8.799 -0.4681  0.0520 -0.0553
  157SAPE  H17X17602   4.167   5.867   8.806  2.3739 -0.0324  1.5641
  157SAPE  H17Y17603   4.096   5.728   8.716 -0.2286 -1.0598  0.1108
  157SAPE  C31817604   4.312   5.719   8.767  0.6897  0.0433 -0.3142
  157SAPE  H18X17605   4.337   5.612   8.778  1.2335 -0.1729 -3.0419
  157SAPE  H18Y17606   4.384   5.783   8.822 -1.2038  0.5554  1.6946
  157SAPE  H18Z17607   4.326   5.735   8.658 -0.4594 -1.9554 -0.8004
  158SAPE     N17608   4.189   0.612  10.843 -0.7761 -0.3558 -0.1389
  158SAPE   HN117609   4.284   0.636  10.809 -0.7204  2.5148  1.7010
  158SAPE   HN217610   4.149   0.552  10.769  2.1471 -0.3647 -1.8589
  158SAPE   HN317611   4.150   0.708  10.851 -0.8562 -0.2817 -1.2742
  158SAPE   C1217612   4.184   0.542  10.978 -0.2256  0.1926  0.3457
  158SAPE  H12A17613   4.078   0.509  10.988  0.0131 -2.1828 -2.9978
  158SAPE  H12B17614   4.213   0.615  11.056  0.5586 -0.6751  0.8953
  158SAPE   C1117615   4.288   0.431  10.978 -0.5846 -0.4987 -0.1261
  158SAPE  H11A17616   4.273   0.376  11.073  1.7189 -3.1946 -1.1690
  158SAPE  H11B17617   4.379   0.493  10.994 -1.0539  0.9032 -2.3524
  158SAPE     P17618   4.419   0.297  10.790 -0.6336 -0.1713 -0.2834
  158SAPE   O1317619   4.476   0.407  10.707 -0.1520 -0.1037  0.4524
  158SAPE   O1417620   4.515   0.231  10.890  0.3288 -0.2740 -0.1515
  158SAPE   O1217621   4.289   0.343  10.864  0.2472  0.5498  0.1046
  158SAPE   O1117622   4.354   0.193  10.694  0.2466  0.7523  0.1192
  158SAPE    C117623   4.261   0.232  10.597 -0.3781  0.4895 -0.9850
  158SAPE    HA17624   4.201   0.316  10.636  1.7225  1.0078  1.4259
  158SAPE    HB17625   4.314   0.254  10.502  0.5496 -0.3910 -0.6980
  158SAPE    C217626   4.178   0.108  10.548  0.1853 -0.3859 -0.5058
  158SAPE    HS17627   4.111   0.075  10.630 -1.2244 -0.2684 -1.5718
  158SAPE   O2117628   4.265   0.002  10.513  0.9927 -0.2112  0.4260
  158SAPE   C2117629   4.205  -0.114  10.514  0.2928 -0.0862  0.3638
  158SAPE   O2217630   4.091  -0.138  10.549  0.3331  0.1086 -0.4003
  158SAPE   C2217631   4.301  -0.216  10.454 -0.2431 -0.2147  0.0544
  158SAPE   H2R17632   4.396  -0.207  10.510 -0.2355  0.0168  0.0039
  158SAPE   H2S17633   4.266  -0.315  10.491  1.9818 -0.9383  0.3692
  158SAPE    C317634   4.087   0.145  10.420  0.0423  0.6673 -0.3773
  158SAPE    HX17635   4.011   0.219  10.454 -1.1082 -0.6969  0.1535
  158SAPE    HY17636   4.030   0.055  10.387  1.0788 -0.3489  0.5406
  158SAPE   O3117637   4.171   0.197  10.322  0.4942  0.9130  0.0340
  158SAPE   C3117638   4.106   0.222  10.211 -1.2025  0.4786  1.0156
  158SAPE   O3217639   3.994   0.193  10.184  0.3384  0.0338 -0.4531
  158SAPE   C3217640   4.198   0.279  10.104 -0.7543 -0.6990  0.8561
  158SAPE   H2X17641   4.302   0.278  10.143 -0.0177 -0.1879 -1.0028
  158SAPE   H2Y17642   4.171   0.386  10.093  1.2218 -0.2825 -0.4135
  158SAPE   C2317643   4.335  -0.198  10.306 -0.5239 -0.2019 -0.0381
  158SAPE   H3R17644   4.316  -0.096  10.267  0.9150  0.0683 -0.0874
  158SAPE   H3S17645   4.265  -0.260  10.247 -1.2801 -0.2114  0.8394
  158SAPE   C2417646   4.482  -0.232  10.269  0.0331  0.3611 -0.0905
  158SAPE   H4R17647   4.560  -0.187  10.334  0.7751 -3.3530  1.8624
  158SAPE   H4S17648   4.505  -0.175  10.176  1.5478  2.1079  1.2643
  158SAPE   C2517649   4.502  -0.381  10.259  0.5711  0.1172  1.2882
  158SAPE   H5R17650   4.479  -0.442  10.347 -1.2612 -1.3041 -0.0985
  158SAPE   C2617651   4.557  -0.448  10.156  0.3243 -0.1817 -1.0050
  158SAPE   H6R17652   4.586  -0.551  10.183  2.3886  1.0347  1.9889
  158SAPE   C2717653   4.599  -0.389  10.029 -0.5142  0.1215  0.2586
  158SAPE   H7R17654   4.684  -0.452   9.993  0.1834  0.2612  1.5743
  158SAPE   H7S17655   4.666  -0.301  10.039  0.4977 -0.8622  3.1368
  158SAPE   C2817656   4.486  -0.355   9.935  0.1611 -0.9704 -0.3444
  158SAPE   H8R17657   4.405  -0.297   9.983  0.9460 -0.4226  0.3623
  158SAPE   C2917658   4.463  -0.412   9.815 -0.4142  0.9147  0.1813
  158SAPE   H9R17659   4.372  -0.387   9.760  0.9669  2.4803 -1.5314
  158SAPE  C21017660   4.564  -0.510   9.755 -0.3522 -0.1171 -0.3084
  158SAPE  H10R17661   4.508  -0.577   9.686 -1.8023 -0.5270  1.1797
  158SAPE  H10S17662   4.609  -0.572   9.836  1.3904  1.0639 -0.3212
  158SAPE  C21117663   4.687  -0.442   9.688  0.0892 -0.1357 -0.5378
  158SAPE  H11R17664   4.731  -0.364   9.751  1.9094 -0.5151 -1.2726
  158SAPE  C21217665   4.743  -0.455   9.565  0.6873 -0.0922  0.2579
  158SAPE  H12R17666   4.827  -0.390   9.534 -0.3344  0.5022 -1.3856
  158SAPE  C21317667   4.687  -0.546   9.459 -0.4868 -0.8924 -0.3491
  158SAPE  H13R17668   4.576  -0.539   9.459 -0.4316  0.7516  1.1918
  158SAPE  H13S17669   4.719  -0.650   9.481  0.8292 -0.8449 -1.8264
  158SAPE  C21417670   4.747  -0.535   9.320 -0.0304 -0.4473  0.3062
  158SAPE  H14R17671   4.831  -0.603   9.298 -1.3273 -1.2959 -2.5475
  158SAPE  C21517672   4.706  -0.444   9.229  0.3020  0.4156  0.1066
  158SAPE  H15R17673   4.761  -0.438   9.134 -0.9222  2.0439 -0.5508
  158SAPE  C21617674   4.597  -0.345   9.247 -0.6363 -0.2267 -0.4123
  158SAPE  H16R17675   4.619  -0.268   9.169 -0.6405 -0.3818 -0.5679
  158SAPE  H16S17676   4.609  -0.294   9.345  0.4692 -1.1424 -0.0533
  158SAPE  C21717677   4.451  -0.394   9.233  0.1082  0.0590 -0.2004
  158SAPE  H17R17678   4.431  -0.466   9.316 -1.5374 -2.7908 -2.8428
  158SAPE  H17S17679   4.427  -0.460   9.147 -0.3477  0.5048 -0.4190
  158SAPE  C21817680   4.344  -0.288   9.233 -0.8006 -0.0294 -0.0934
  158SAPE  H18R17681   4.250  -0.346   9.234 -0.4698 -0.5935  1.0963
  158SAPE  H18S17682   4.352  -0.224   9.143  1.5816  0.7155  0.5590
  158SAPE  C21917683   4.334  -0.191   9.359 -0.4132  0.0059 -0.2731
  158SAPE  H19R17684   4.237  -0.138   9.364 -1.0020 -1.0827  0.2499
  158SAPE  H19S17685   4.411  -0.114   9.339 -0.9147  0.0187 -2.5215
  158SAPE  C22017686   4.363  -0.244   9.497 -0.4603  0.2172  0.4344
  158SAPE  H20R17687   4.472  -0.264   9.502 -0.1716  1.7347  0.5068
  158SAPE  H20S17688   4.311  -0.340   9.518 -2.3584  0.8924 -0.9748
  158SAPE  H20T17689   4.324  -0.177   9.577  4.2819  3.1165  0.6643
  158SAPE   C3317690   4.197   0.200   9.967  0.3297  0.1251  0.0916
  158SAPE   H3X17691   4.094   0.187   9.928 -0.0148 -1.3655  1.4093
  158SAPE   H3Y17692   4.229   0.094   9.974  0.1005 -0.2761 -3.0972
  158SAPE   C3417693   4.284   0.268   9.857 -0.3286 -0.4813 -1.0735
  158SAPE   H4X17694   4.391   0.269   9.885 -0.4601  0.9608 -0.5449
  158SAPE   H4Y17695   4.243   0.371   9.857  1.1423  0.1293 -1.7459
  158SAPE   C3517696   4.255   0.205   9.722 -0.3646  0.8916  0.0487
  158SAPE   H5X17697   4.149   0.209   9.687 -0.1438  2.5060 -0.5763
  158SAPE   H5Y17698   4.283   0.098   9.725 -1.4001  0.6319  0.7988
  158SAPE   C3617699   4.335   0.267   9.616 -0.1976 -0.5543 -0.5748
  158SAPE   H6X17700   4.444   0.261   9.636 -0.5748 -1.4507  1.4463
  158SAPE   H6Y17701   4.299   0.371   9.603 -0.9751 -0.7686 -0.2080
  158SAPE   C3717702   4.308   0.186   9.483  0.7761 -0.6528 -0.4872
  158SAPE   H7X17703   4.203   0.193   9.449  0.6033 -5.5073 -1.6997
  158SAPE   H7Y17704   4.337   0.079   9.480  2.1877 -0.2844 -1.7978
  158SAPE   C3817705   4.397   0.240   9.371  0.0426  0.3127  0.1055
  158SAPE   H8X17706   4.504   0.214   9.387  0.9124  3.6877  0.7077
  158SAPE   H8Y17707   4.403   0.351   9.383  1.1410  0.3875 -0.9091
  158SAPE   C3917708   4.356   0.198   9.232  0.3942  0.6564  0.2375
  158SAPE   H9X17709   4.338   0.089   9.225  1.4306  0.4894  0.0171
  158SAPE   H9Y17710   4.442   0.215   9.163  1.0943  1.4873  1.2777
  158SAPE  C31017711   4.241   0.278   9.183 -0.0389 -0.0354  0.0717
  158SAPE  H10X17712   4.254   0.386   9.208  0.9150 -0.7385  3.0283
  158SAPE  H10Y17713   4.143   0.248   9.227 -0.3745 -0.0467 -0.6712
  158SAPE  C31117714   4.227   0.275   9.033  0.6713 -0.1022  0.4792
  158SAPE  H11X17715   4.321   0.303   8.981  1.2040 -1.5584  0.6013
  158SAPE  H11Y17716   4.152   0.353   9.008 -0.8302 -2.0164 -1.3161
  158SAPE  C31217717   4.186   0.146   8.966 -0.0542  0.2295 -0.8811
  158SAPE  H12X17718   4.125   0.095   9.044 -0.7506 -0.1665 -1.6683
  158SAPE  H12Y17719   4.270   0.077   8.946  0.1526  0.2128  0.0292
  158SAPE  C31317720   4.098   0.166   8.843 -0.3112  0.3350  0.0360
  158SAPE  H13X17721   4.152   0.211   8.756 -2.0081 -0.3803 -1.4382
  158SAPE  H13Y17722   4.011   0.231   8.868 -1.0616 -1.1849  1.5574
  158SAPE  C31417723   4.050   0.031   8.781  0.0718 -0.1111 -0.2097
  158SAPE  H14X17724   4.140  -0.033   8.771  0.3519  0.2683 -0.1443
  158SAPE  H14Y17725   4.009   0.039   8.678 -0.4878  0.5145  0.0515
  158SAPE  C31517726   3.949  -0.041   8.870 -0.0915  0.2121  0.2131
  158SAPE  H15X17727   3.966  -0.012   8.975  2.1890 -0.1951  0.0000
  158SAPE  H15Y17728   3.956  -0.151   8.851  0.1152 -0.4385  3.5068
  158SAPE  C31617729   3.811  -0.007   8.824 -0.1007  0.0989 -0.4068
  158SAPE  H16X17730   3.803   0.103   8.811 -0.8257  0.1209  0.1402
  158SAPE  H16Y17731   3.732  -0.044   8.893 -0.7629 -1.1367 -1.7714
  158SAPE  C31717732   3.770  -0.062   8.686 -0.0470 -0.6297  0.1619
  158SAPE  H17X17733   3.790  -0.171   8.675  2.0642 -0.4777  2.0640
  158SAPE  H17Y17734   3.834  -0.012   8.610 -1.0324 -2.2382 -1.8519
  158SAPE  C31817735   3.626  -0.040   8.659 -0.2329  0.5500 -0.2966
  158SAPE  H18X17736   3.585   0.058   8.692 -1.4567  0.1072 -0.4323
  158SAPE  H18Y17737   3.559  -0.116   8.704  0.1534 -0.9631 -2.1104
  158SAPE  H18Z17738   3.605  -0.047   8.550 -0.1253  1.1795 -0.3592
  159SAPE     N17739   1.335   4.550   6.048  0.3903  0.3385 -0.1560
  159SAPE   HN117740   1.360   4.531   5.949  1.1250 -0.4340  0.1755
  159SAPE   HN217741   1.241   4.506   6.055 -0.4336  1.2386 -3.4574
  159SAPE   HN317742   1.327   4.651   6.073  1.9722 -0.0464  2.1869
  159SAPE   C1217743   1.440   4.483   6.130 -0.1490 -0.0366  0.8576
  159SAPE  H12A17744   1.536   4.538   6.116  0.1790 -0.4399  1.4555
  159SAPE  H12B17745   1.450   4.382   6.086 -1.1375 -1.0814  2.8900
  159SAPE   C1117746   1.393   4.474   6.276 -0.9494  0.7167  0.0748
  159SAPE  H11A17747   1.476   4.434   6.337  0.6802  2.0948 -1.1250
  159SAPE  H11B17748   1.304   4.407   6.277  1.3777 -2.5923  0.3004
  159SAPE     P17749   1.276   4.621   6.448 -0.3081  0.2678 -0.3293
  159SAPE   O1317750   1.263   4.762   6.490  0.4667 -1.1634 -0.3311
  159SAPE   O1417751   1.153   4.547   6.422 -0.2650 -0.0633  0.4090
  159SAPE   O1217752   1.368   4.606   6.318  0.2451  0.3562  0.2056
  159SAPE   O1117753   1.357   4.546   6.562  0.4269 -0.7322 -0.1825
  159SAPE    C117754   1.475   4.615   6.617  0.1539 -0.7187  0.0694
  159SAPE    HA17755   1.567   4.553   6.616  1.7303  1.4703  0.7105
  159SAPE    HB17756   1.513   4.705   6.562  0.1014  1.2166  2.9835
  159SAPE    C217757   1.451   4.662   6.763 -0.2714  0.3423 -0.6182
  159SAPE    HS17758   1.396   4.758   6.759  0.4766  0.9070  1.3624
  159SAPE   O2117759   1.574   4.674   6.831  0.3743 -0.2702  0.1180
  159SAPE   C2117760   1.624   4.791   6.844 -0.9343  0.3516 -0.0875
  159SAPE   O2217761   1.578   4.895   6.797  0.5027  0.0752 -0.1244
  159SAPE   C2217762   1.732   4.783   6.956 -0.2948  0.6061  0.2221
  159SAPE   H2R17763   1.707   4.706   7.032  1.2935 -1.5481 -1.3415
  159SAPE   H2S17764   1.820   4.734   6.910 -1.4075  0.3405 -1.7451
  159SAPE    C317765   1.363   4.562   6.844 -0.3729 -0.2389  0.1416
  159SAPE    HX17766   1.428   4.472   6.835  0.7617  0.7085 -1.6692
  159SAPE    HY17767   1.269   4.538   6.791 -1.4327  2.8788  0.3996
  159SAPE   O3117768   1.340   4.605   6.984  0.3736 -0.2291 -0.1532
  159SAPE   C3117769   1.255   4.702   7.008  0.1227  0.5726 -0.6334
  159SAPE   O3217770   1.183   4.751   6.930  0.1612 -0.2110  0.3582
  159SAPE   C3217771   1.285   4.748   7.145 -0.7040  0.0366 -0.7213
  159SAPE   H2X17772   1.244   4.851   7.160 -1.1535 -0.1823 -0.4217
  159SAPE   H2Y17773   1.396   4.754   7.155 -0.7912  0.8032 -0.0391
  159SAPE   C2317774   1.749   4.928   7.017 -0.0927  0.4162  0.1163
  159SAPE   H3R17775   1.654   4.963   7.062  0.0646 -1.2981  1.9282
  159SAPE   H3S17776   1.777   4.998   6.936  2.0148 -1.4318 -0.8703
  159SAPE   C2417777   1.856   4.936   7.125 -0.2099  0.0137 -0.5433
  159SAPE   H4R17778   1.944   4.881   7.086 -0.7227 -0.9809 -0.3548
  159SAPE   H4S17779   1.822   4.885   7.218  2.9282 -1.5359 -0.1422
  159SAPE   C2517780   1.890   5.080   7.146 -0.6871  0.0649  0.1123
  159SAPE   H5R17781   1.899   5.146   7.058 -0.2695  1.0451  0.8713
  159SAPE   C2617782   1.921   5.140   7.263 -0.5167 -0.2442 -0.1915
  159SAPE   H6R17783   1.929   5.248   7.282 -0.1348 -0.4058  0.6127
  159SAPE   C2717784   1.923   5.076   7.398 -0.2379  0.8160 -0.6566
  159SAPE   H7R17785   1.957   4.971   7.384 -0.6337  0.4914  0.6889
  159SAPE   H7S17786   1.817   5.071   7.430  0.1760  0.3530  0.7256
  159SAPE   C2817787   2.005   5.144   7.502 -0.0824  0.2335 -0.0050
  159SAPE   H8R17788   2.071   5.226   7.470  1.5491 -1.4013 -0.9982
  159SAPE   C2917789   2.003   5.132   7.637  0.4154 -0.3072  0.1953
  159SAPE   H9R17790   2.078   5.191   7.692  0.6135 -0.3786  0.0052
  159SAPE  C21017791   1.908   5.030   7.702 -0.0504 -0.1145  0.0243
  159SAPE  H10R17792   1.877   4.954   7.627 -2.0140 -2.1352  2.6802
  159SAPE  H10S17793   1.829   5.101   7.732  0.5338  1.6994 -2.4781
  159SAPE  C21117794   1.969   4.963   7.822 -0.5306 -0.2324 -0.2666
  159SAPE  H11R17795   2.047   5.018   7.877 -1.0997  0.2537  0.0755
  159SAPE  C21217796   1.916   4.852   7.872 -0.0963 -0.5711 -0.2597
  159SAPE  H12R17797   1.977   4.800   7.947  1.8903  1.5870 -0.2817
  159SAPE  C21317798   1.781   4.790   7.822 -1.5122  0.0366 -0.6832
  159SAPE  H13R17799   1.771   4.800   7.711  0.4678  0.5098 -0.8658
  159SAPE  H13S17800   1.693   4.842   7.865 -0.1989  1.7958  0.0166
  159SAPE  C21417801   1.788   4.641   7.838  0.1882  0.3331 -0.0517
  159SAPE  H14R17802   1.881   4.585   7.822  0.0680 -0.3378  1.4674
  159SAPE  C21517803   1.677   4.573   7.874 -0.4634 -0.1740 -0.0104
  159SAPE  H15R17804   1.675   4.463   7.883  0.3981 -0.1523  0.5532
  159SAPE  C21617805   1.536   4.625   7.908 -0.5324  0.7778  0.1680
  159SAPE  H16R17806   1.465   4.632   7.823  0.3180 -1.4192 -0.8146
  159SAPE  H16S17807   1.544   4.727   7.951  3.1408  0.2105  1.1768
  159SAPE  C21717808   1.458   4.535   8.007 -0.9297 -0.1502 -0.0993
  159SAPE  H17R17809   1.442   4.436   7.958  2.0560 -1.1555  0.6837
  159SAPE  H17S17810   1.364   4.594   8.010  0.2076  1.7299  0.3299
  159SAPE  C21817811   1.515   4.514   8.148 -0.4593 -0.5364 -0.0298
  159SAPE  H18R17812   1.621   4.481   8.139 -0.3427 -0.2067  0.0869
  159SAPE  H18S17813   1.460   4.431   8.196 -2.4848  1.7965  1.9593
  159SAPE  C21917814   1.503   4.636   8.243 -0.0896  0.1147 -0.8299
  159SAPE  H19R17815   1.498   4.739   8.201 -1.9245  1.2083  1.7707
  159SAPE  H19S17816   1.598   4.622   8.298 -0.5316 -1.8865 -0.4837
  159SAPE  C22017817   1.395   4.626   8.356  0.0284  0.3628  0.1152
  159SAPE  H20R17818   1.436   4.660   8.453 -0.0322 -0.3724  0.4070
  159SAPE  H20S17819   1.363   4.520   8.365 -3.7867  1.3599 -0.0811
  159SAPE  H20T17820   1.315   4.692   8.317  0.7098  1.3158  0.2854
  159SAPE   C3317821   1.258   4.646   7.256 -0.0028 -0.0011  0.3837
  159SAPE   H3X17822   1.333   4.660   7.337 -1.4200  0.8744  1.5992
  159SAPE   H3Y17823   1.280   4.544   7.218 -1.5137 -1.4149  3.0129
  159SAPE   C3417824   1.115   4.645   7.311 -0.4186 -0.4779  0.1441
  159SAPE   H4X17825   1.046   4.605   7.234 -0.5827  0.6390 -0.3154
  159SAPE   H4Y17826   1.087   4.749   7.340 -1.3580 -0.1144 -1.9059
  159SAPE   C3517827   1.093   4.548   7.423 -0.0089 -0.0083 -0.1291
  159SAPE   H5X17828   1.109   4.442   7.393  1.3881  0.4467 -1.1146
  159SAPE   H5Y17829   0.985   4.552   7.450 -0.1159 -1.7427 -0.1749
  159SAPE   C3617830   1.182   4.583   7.545 -0.2101  0.5837 -1.2016
  159SAPE   H6X17831   1.193   4.690   7.572 -0.8206  0.0603  1.3325
  159SAPE   H6Y17832   1.282   4.548   7.510  0.4646  2.3478 -1.1479
  159SAPE   C3717833   1.163   4.498   7.671  0.0082 -0.1579 -0.1529
  159SAPE   H7X17834   1.249   4.516   7.740 -1.1929 -1.4820  1.8072
  159SAPE   H7Y17835   1.182   4.391   7.646  2.1375  0.5990 -2.1461
  159SAPE   C3817836   1.030   4.524   7.742  0.6724  0.9661 -0.2660
  159SAPE   H8X17837   1.001   4.445   7.815 -0.7612 -0.4580 -2.2508
  159SAPE   H8Y17838   0.950   4.518   7.666  1.8651 -2.2837 -1.4579
  159SAPE   C3917839   1.041   4.650   7.817  0.2364 -0.1288 -0.2325
  159SAPE   H9X17840   1.057   4.729   7.740 -2.6015 -1.1639 -2.0083
  159SAPE   H9Y17841   1.126   4.632   7.886 -0.1802 -2.4143 -0.2379
  159SAPE  C31017842   0.919   4.689   7.907 -0.8513  0.3681  0.1491
  159SAPE  H10X17843   0.890   4.609   7.978  0.0072  0.8666  1.0966
  159SAPE  H10Y17844   0.829   4.701   7.843 -0.2053 -0.2472 -0.9083
  159SAPE  C31117845   0.945   4.805   7.999  0.1614  0.0881  0.2483
  159SAPE  H11X17846   0.849   4.849   8.034 -0.1180 -1.5054  1.6542
  159SAPE  H11Y17847   1.012   4.879   7.952 -0.7283  0.7270 -0.0265
  159SAPE  C31217848   1.007   4.780   8.139 -0.3439 -0.5560 -0.0081
  159SAPE  H12X17849   1.114   4.748   8.135 -0.5013 -1.5001  2.0505
  159SAPE  H12Y17850   0.951   4.698   8.188 -0.7334 -0.3915 -0.1748
  159SAPE  C31317851   0.982   4.901   8.234 -0.0657 -0.0471  0.0020
  159SAPE  H13X17852   0.876   4.930   8.219  0.4117  1.7984  0.0026
  159SAPE  H13Y17853   1.039   4.988   8.197  1.6875 -0.8592  0.6649
  159SAPE  C31417854   1.011   4.871   8.380 -0.1893  0.7156  0.5849
  159SAPE  H14X17855   1.118   4.842   8.387  0.1387  1.0122 -2.0737
  159SAPE  H14Y17856   0.950   4.781   8.405  1.8831 -1.9090 -2.9105
  159SAPE  C31517857   0.981   4.993   8.463 -0.6634 -0.5961  0.4536
  159SAPE  H15X17858   0.875   5.025   8.462 -0.3952  0.3439  0.1475
  159SAPE  H15Y17859   1.040   5.072   8.412  1.4015 -4.2032 -3.3634
  159SAPE  C31617860   1.028   4.976   8.605 -0.0968 -0.3787  0.2271
  159SAPE  H16X17861   1.138   4.965   8.591 -0.1237  0.0464 -0.3395
  159SAPE  H16Y17862   0.985   4.882   8.647 -0.1014 -1.7502 -2.6105
  159SAPE  C31717863   0.991   5.095   8.695  0.5132  0.1040 -0.7999
  159SAPE  H17X17864   1.023   5.081   8.800 -1.3640  0.8599 -0.0839
  159SAPE  H17Y17865   0.882   5.080   8.708  0.6291 -0.7764 -0.7982
  159SAPE  C31817866   1.038   5.224   8.643 -0.4077 -0.7233 -0.5601
  159SAPE  H18X17867   0.991   5.303   8.705  0.4346 -0.7882  0.1870
  159SAPE  H18Y17868   1.013   5.240   8.536 -1.8526 -1.6198 -0.3965
  159SAPE  H18Z17869   1.148   5.231   8.655 -0.4763  0.4396 -0.5670
  160SAPE     N17870   5.328   4.184   6.297 -0.3418 -0.2724 -0.0000
  160SAPE   HN117871   5.333   4.109   6.226 -0.2302 -0.7528  0.5065
  160SAPE   HN217872   5.324   4.136   6.390  2.4564  0.2730  0.4952
  160SAPE   HN317873   5.243   4.238   6.271  0.3283  0.8933  0.1495
  160SAPE   C1217874   5.452   4.272   6.285  0.1190 -0.5580  0.1323
  160SAPE  H12A17875   5.486   4.308   6.385  4.0246 -1.3270 -0.7462
  160SAPE  H12B17876   5.420   4.360   6.226  2.2452  1.1223  1.3545
  160SAPE   C1117877   5.563   4.198   6.205  0.1083 -0.9412  0.0542
  160SAPE  H11A17878   5.634   4.275   6.167  0.6589 -1.6904 -0.4822
  160SAPE  H11B17879   5.534   4.148   6.110  2.3642 -1.8792 -0.2233
  160SAPE     P17880   5.740   4.122   6.399 -0.0786  0.4776 -0.3512
  160SAPE   O1317881   5.716   4.021   6.506 -0.3356 -0.3503  0.6443
  160SAPE   O1417882   5.878   4.122   6.337  0.2412  0.1436  0.2025
  160SAPE   O1217883   5.630   4.104   6.285  0.0714 -0.1757 -0.9835
  160SAPE   O1117884   5.721   4.267   6.449 -0.8145 -0.0706 -0.0063
  160SAPE    C117885   5.676   4.275   6.587  0.3306  0.5536  0.0197
  160SAPE    HA17886   5.630   4.375   6.602  0.5908  0.9124 -1.4415
  160SAPE    HB17887   5.589   4.209   6.605 -0.6170  1.3762 -1.3753
  160SAPE    C217888   5.787   4.251   6.691  0.3506 -0.1578  0.6865
  160SAPE    HS17889   5.817   4.144   6.701  3.0883  0.3516 -0.9208
  160SAPE   O2117890   5.755   4.321   6.809 -0.5090 -0.1143 -0.1965
  160SAPE   C2117891   5.687   4.247   6.897  0.2941 -0.2972 -0.0235
  160SAPE   O2217892   5.650   4.135   6.879 -0.0153  0.3561  0.1161
  160SAPE   C2217893   5.662   4.337   7.018 -0.3740  0.1668 -0.2003
  160SAPE   H2R17894   5.748   4.312   7.085 -0.5664 -2.4429 -0.8224
  160SAPE   H2S17895   5.665   4.443   6.986 -0.4991  0.3854  0.5029
  160SAPE    C317896   5.924   4.318   6.652  0.1847 -0.1409 -0.2872
  160SAPE    HX17897   5.913   4.428   6.639  0.8014  0.1205  1.2056
  160SAPE    HY17898   5.958   4.284   6.552  1.2692 -2.3303  0.7530
  160SAPE   O3117899   6.021   4.276   6.754 -0.1076  0.0603 -0.3658
  160SAPE   C3117900   6.146   4.319   6.746  0.0189 -0.4038 -0.4996
  160SAPE   O3217901   6.196   4.376   6.645  0.2345  0.0984 -0.3541
  160SAPE   C3217902   6.213   4.298   6.873  0.6176 -0.1776 -0.8702
  160SAPE   H2X17903   6.320   4.277   6.854  0.4330 -3.2638  0.8057
  160SAPE   H2Y17904   6.167   4.206   6.915 -1.1014  1.0615  0.0884
  160SAPE   C2317905   5.524   4.326   7.097 -0.5560 -0.2994 -0.0978
  160SAPE   H3R17906   5.498   4.221   7.122  0.8366 -1.3011 -2.4570
  160SAPE   H3S17907   5.445   4.344   7.021  0.8019  1.2342 -1.2199
  160SAPE   C2417908   5.521   4.425   7.219  0.8202 -0.1384 -0.2909
  160SAPE   H4R17909   5.572   4.520   7.193 -1.6508  1.2568 -0.2965
  160SAPE   H4S17910   5.574   4.381   7.306  0.3862  0.2048  0.1492
  160SAPE   C2517911   5.381   4.447   7.258  0.4731 -0.1758  0.4376
  160SAPE   H5R17912   5.323   4.505   7.185  2.5387  1.1312 -0.2651
  160SAPE   C2617913   5.319   4.411   7.369 -0.1130 -0.5970  0.1682
  160SAPE   H6R17914   5.224   4.466   7.375  0.0200 -0.4476  1.0543
  160SAPE   C2717915   5.377   4.349   7.497  0.2420  0.2841  0.2026
  160SAPE   H7R17916   5.406   4.439   7.555 -2.7633  1.0658  0.6493
  160SAPE   H7S17917   5.456   4.277   7.467 -0.0390  1.1683 -2.9799
  160SAPE   C2817918   5.280   4.274   7.578 -0.2238  0.2496 -0.6150
  160SAPE   H8R17919   5.213   4.200   7.532 -1.2456  0.6777  0.1383
  160SAPE   C2917920   5.279   4.289   7.713 -0.0940  0.5969 -0.6398
  160SAPE   H9R17921   5.200   4.233   7.766 -0.4400  0.8999 -0.8299
  160SAPE  C21017922   5.367   4.376   7.806 -0.1812 -0.6992  0.4651
  160SAPE  H10R17923   5.472   4.362   7.770 -1.1612 -1.3887 -2.4567
  160SAPE  H10S17924   5.360   4.334   7.908  1.0359 -0.8487  0.5108
  160SAPE  C21117925   5.310   4.514   7.807  0.2487 -0.7717  0.0509
  160SAPE  H11R17926   5.312   4.566   7.709  1.8370 -1.0098 -0.0793
  160SAPE  C21217927   5.245   4.571   7.909  0.3410  0.1919  0.2160
  160SAPE  H12R17928   5.199   4.671   7.901  1.2553  0.5956 -0.1817
  160SAPE  C21317929   5.216   4.513   8.043 -0.1642 -0.5182  0.4196
  160SAPE  H13R17930   5.182   4.408   8.033 -0.4833 -0.6189  2.2154
  160SAPE  H13S17931   5.142   4.585   8.085 -1.8368 -1.8165 -0.2078
  160SAPE  C21417932   5.328   4.501   8.142 -0.2426 -0.0333 -0.2087
  160SAPE  H14R17933   5.429   4.483   8.102 -0.1490 -1.0604  0.4487
  160SAPE  C21517934   5.313   4.536   8.270 -0.5966 -0.7511  0.3468
  160SAPE  H15R17935   5.408   4.542   8.326 -0.7109 -0.4905  0.5159
  160SAPE  C21617936   5.197   4.582   8.348  0.3292 -0.1344  0.2621
  160SAPE  H16R17937   5.201   4.518   8.438  2.4877  0.1363  0.4152
  160SAPE  H16S17938   5.095   4.560   8.310  0.3314  0.9722 -0.4184
  160SAPE  C21717939   5.204   4.727   8.396  0.2053  0.0888 -0.1552
  160SAPE  H17R17940   5.109   4.738   8.452  0.5538  0.1394  0.4302
  160SAPE  H17S17941   5.204   4.796   8.308  0.8249  0.8611  0.4387
  160SAPE  C21817942   5.327   4.759   8.483  0.6197 -0.0058  0.2632
  160SAPE  H18R17943   5.417   4.763   8.418 -0.0650 -0.3944 -0.7264
  160SAPE  H18S17944   5.346   4.681   8.560 -0.9080  0.1385  0.8148
  160SAPE  C21917945   5.316   4.884   8.566  0.6220 -0.1666 -0.2786
  160SAPE  H19R17946   5.217   4.896   8.614  0.7840 -0.0382  0.0281
  160SAPE  H19S17947   5.341   4.976   8.511  0.3690  1.7719  2.6069
  160SAPE  C22017948   5.419   4.878   8.676  0.2018  0.5867  0.6710
  160SAPE  H20R17949   5.415   4.958   8.752 -1.5034 -0.9608  2.3405
  160SAPE  H20S17950   5.520   4.874   8.631  0.2274  2.1325  0.5481
  160SAPE  H20T17951   5.411   4.787   8.740 -1.8106 -0.4264 -0.8695
  160SAPE   C3317952   6.196   4.415   6.975 -0.0372 -0.9072 -0.2284
  160SAPE   H3X17953   6.090   4.412   7.010 -0.3334 -2.1747 -1.1808
  160SAPE   H3Y17954   6.212   4.514   6.927 -1.2544  0.4666  2.0480
  160SAPE   C3417955   6.289   4.398   7.093 -0.7122 -0.1544 -1.0122
  160SAPE   H4X17956   6.393   4.378   7.061 -0.6660  0.1940 -1.0803
  160SAPE   H4Y17957   6.262   4.306   7.150  0.8125  0.2899  0.4696
  160SAPE   C3517958   6.296   4.516   7.192  0.3114 -0.2797 -0.2883
  160SAPE   H5X17959   6.194   4.558   7.207  0.3351 -0.2640 -0.1702
  160SAPE   H5Y17960   6.350   4.597   7.140 -2.7350 -0.3727 -4.0681
  160SAPE   C3617961   6.345   4.476   7.330 -0.6774  0.7672 -0.5866
  160SAPE   H6X17962   6.445   4.428   7.320 -1.1477 -0.5369  0.6567
  160SAPE   H6Y17963   6.281   4.395   7.372  0.9015  0.1994  0.8388
  160SAPE   C3717964   6.340   4.582   7.441 -0.1887  0.0249 -0.1716
  160SAPE   H7X17965   6.235   4.616   7.453 -0.0471  0.3176  0.2557
  160SAPE   H7Y17966   6.397   4.676   7.425  1.7743 -1.0719  0.0361
  160SAPE   C3817967   6.378   4.523   7.583 -1.4496 -0.7976 -0.0380
  160SAPE   H8X17968   6.482   4.488   7.571 -0.6601  1.5246 -0.3793
  160SAPE   H8Y17969   6.322   4.428   7.598  1.6477 -2.6208  0.8889
  160SAPE   C3917970   6.360   4.620   7.702 -0.5514  0.5770  0.1419
  160SAPE   H9X17971   6.395   4.720   7.670  0.1641  0.0327 -0.8260
  160SAPE   H9Y17972   6.424   4.593   7.789  1.8097  0.6537 -1.4544
  160SAPE  C31017973   6.212   4.628   7.752 -0.8737 -0.5156  0.6698
  160SAPE  H10X17974   6.164   4.530   7.775 -1.2309 -0.3102  0.8041
  160SAPE  H10Y17975   6.148   4.664   7.669 -1.2599  0.7647  1.5022
  160SAPE  C31117976   6.179   4.726   7.857 -0.4929  0.3184  0.0545
  160SAPE  H11X17977   6.197   4.830   7.822  0.9803 -0.1760 -0.7157
  160SAPE  H11Y17978   6.241   4.711   7.948  0.6155 -0.1031 -0.7577
  160SAPE  C31217979   6.040   4.716   7.914  0.0025  0.2073  0.1553
  160SAPE  H12X17980   6.027   4.620   7.967  1.5378  0.0222  0.2378
  160SAPE  H12Y17981   5.964   4.706   7.833 -1.0108 -0.9862  1.2130
  160SAPE  C31317982   6.004   4.828   8.013 -0.5809 -0.1290  0.2747
  160SAPE  H13X17983   5.894   4.829   8.028 -0.1816  1.9424  4.7123
  160SAPE  H13Y17984   6.038   4.925   7.971  2.4946 -0.8396  0.8324
  160SAPE  C31417985   6.064   4.821   8.159 -0.3109 -0.5383 -0.4491
  160SAPE  H14X17986   6.150   4.889   8.176 -1.3725  0.7104  0.1650
  160SAPE  H14Y17987   6.105   4.721   8.183  2.0495  0.2216 -1.0047
  160SAPE  C31517988   5.946   4.847   8.258  0.0693  0.3537  0.0179
  160SAPE  H15X17989   5.868   4.770   8.239  1.0655 -0.9031  0.8768
  160SAPE  H15Y17990   5.895   4.946   8.250 -1.3719 -0.4244 -0.8912
  160SAPE  C31617991   5.997   4.840   8.400  0.4187 -0.0089  0.3004
  160SAPE  H16X17992   6.081   4.908   8.424  0.6875  0.9396 -2.8322
  160SAPE  H16Y17993   6.033   4.739   8.429  1.1292  0.6382  1.7321
  160SAPE  C31717994   5.891   4.890   8.499  0.2271  0.1490  0.0851
  160SAPE  H17X17995   5.794   4.840   8.480 -0.6727  2.3488 -1.5807
  160SAPE  H17Y17996   5.876   4.997   8.470 -1.1398 -0.2027 -0.5677
  160SAPE  C31817997   5.947   4.884   8.645  0.3766 -0.0769  0.1258
  160SAPE  H18X17998   6.041   4.941   8.661  1.7313 -2.3863  0.7911
  160SAPE  H18Y17999   5.971   4.778   8.665  0.5394 -0.1180 -0.2728
  160SAPE  H18Z18000   5.878   4.919   8.724  3.7037  2.2992  2.2341
  161SAPE     N18001   5.369   6.591   6.129 -0.1712 -0.4676  0.0675
  161SAPE   HN118002   5.308   6.507   6.132 -0.0435 -0.5497  0.5179
  161SAPE   HN218003   5.445   6.586   6.059  1.3539  1.0674  1.5230
  161SAPE   HN318004   5.419   6.588   6.220 -0.1729 -2.9830  0.0606
  161SAPE   C1218005   5.284   6.711   6.101  0.0095  0.4503  0.2826
  161SAPE  H12A18006   5.192   6.724   6.162 -1.2615  3.1674 -1.9322
  161SAPE  H12B18007   5.264   6.706   5.992 -0.7654  1.9092  0.3284
  161SAPE   C1118008   5.374   6.832   6.096 -0.0117 -0.0701 -0.2201
  161SAPE  H11A18009   5.308   6.919   6.075  0.5120  0.9251  1.9406
  161SAPE  H11B18010   5.446   6.827   6.012 -1.5160 -0.5581 -1.5081
  161SAPE     P18011   5.492   6.991   6.266  0.0511  0.1474 -0.2869
  161SAPE   O1318012   5.533   7.067   6.143  0.4096  1.1391 -0.9962
  161SAPE   O1418013   5.387   7.046   6.359 -0.2926 -0.7864  0.3886
  161SAPE   O1218014   5.443   6.846   6.222 -0.5300  0.1136 -0.3670
  161SAPE   O1118015   5.628   6.964   6.344  0.2396 -0.8359  0.9175
  161SAPE    C118016   5.638   6.862   6.444 -0.0459  1.3380 -0.6272
  161SAPE    HA18017   5.590   6.769   6.406 -2.7992  3.3502 -2.5097
  161SAPE    HB18018   5.747   6.854   6.462 -0.0169  1.9149 -0.5508
  161SAPE    C218019   5.584   6.886   6.586  0.4856  0.1590 -0.3160
  161SAPE    HS18020   5.481   6.845   6.581 -0.3407  2.2766 -1.8318
  161SAPE   O2118021   5.585   7.028   6.621  0.0319 -0.0297 -0.7206
  161SAPE   C2118022   5.483   7.067   6.685 -0.0024 -0.1177  0.1359
  161SAPE   O2218023   5.379   7.008   6.695  0.0589 -0.1333  0.5976
  161SAPE   C2218024   5.516   7.206   6.740  0.2306  0.0086 -0.0013
  161SAPE   H2R18025   5.622   7.202   6.771 -0.0186 -1.6894  0.7455
  161SAPE   H2S18026   5.494   7.279   6.659 -1.5062 -1.5638 -1.0411
  161SAPE    C318027   5.674   6.813   6.692 -0.1090 -0.4321 -0.1146
  161SAPE    HX18028   5.768   6.873   6.690 -0.1969 -0.3050 -1.1849
  161SAPE    HY18029   5.699   6.713   6.651  0.6962 -0.7757  1.1608
  161SAPE   O3118030   5.611   6.813   6.820  0.1571 -0.2471 -0.4160
  161SAPE   C3118031   5.554   6.694   6.856  0.1179 -0.3749 -0.0830
  161SAPE   O3218032   5.520   6.604   6.780  0.3178 -0.3740 -0.2889
  161SAPE   C3218033   5.511   6.701   7.007 -0.3003  0.6556 -0.7750
  161SAPE   H2X18034   5.437   6.619   7.014  1.5581 -1.0373  0.2980
  161SAPE   H2Y18035   5.478   6.804   7.030  2.3203  1.3660  0.1837
  161SAPE   C2318036   5.422   7.241   6.859  0.5819 -0.2374  0.0151
  161SAPE   H3R18037   5.318   7.209   6.836 -0.0183 -0.2000  2.4445
  161SAPE   H3S18038   5.428   7.352   6.860  0.4551 -0.2242 -0.2989
  161SAPE   C2418039   5.461   7.184   6.994 -0.9085  0.6171 -0.0232
  161SAPE   H4R18040   5.565   7.211   7.022 -0.8890 -1.0476  1.7086
  161SAPE   H4S18041   5.461   7.073   6.985 -0.5153  0.3671  2.3582
  161SAPE   C2518042   5.363   7.221   7.098 -1.0817  0.4627 -1.1638
  161SAPE   H5R18043   5.332   7.327   7.103 -0.2682  0.6523  0.2757
  161SAPE   C2618044   5.303   7.138   7.185  0.0118 -0.0827  0.5065
  161SAPE   H6R18045   5.233   7.179   7.259 -0.4714 -0.1475  0.0924
  161SAPE   C2718046   5.314   6.989   7.199 -0.2875  0.0282  0.0207
  161SAPE   H7R18047   5.311   6.962   7.307 -0.3999 -1.6598 -0.3799
  161SAPE   H7S18048   5.417   6.957   7.171 -1.1514 -2.7844 -0.2224
  161SAPE   C2818049   5.208   6.897   7.125  0.3189 -0.3200 -0.1177
  161SAPE   H8R18050   5.233   6.889   7.018  0.1410  1.9138 -0.3564
  161SAPE   C2918051   5.109   6.821   7.176  0.0664  0.1124 -0.1470
  161SAPE   H9R18052   5.044   6.761   7.111 -2.3568  0.6174  1.6484
  161SAPE  C21018053   5.076   6.816   7.323  0.6627 -0.6262  0.4047
  161SAPE  H10R18054   5.100   6.918   7.360 -3.2382  0.7839 -0.4536
  161SAPE  H10S18055   5.137   6.744   7.381  0.2697  0.0566  1.6936
  161SAPE  C21118056   4.934   6.796   7.356  0.2727 -0.0735 -0.0482
  161SAPE  H11R18057   4.872   6.882   7.327 -0.9903 -0.4079  1.5089
  161SAPE  C21218058   4.867   6.693   7.410 -0.4366  0.7606  0.9946
  161SAPE  H12R18059   4.759   6.695   7.429 -0.8690 -0.9319 -0.9139
  161SAPE  C21318060   4.928   6.561   7.462 -0.0957  0.1204 -0.3482
  161SAPE  H13R18061   4.972   6.573   7.563 -0.7970 -1.6772  0.2058
  161SAPE  H13S18062   5.004   6.521   7.391  0.5563  0.5895  0.0640
  161SAPE  C21418063   4.827   6.451   7.463 -0.2716 -0.6088  0.2074
  161SAPE  H14R18064   4.750   6.462   7.540  1.0546  0.8468  1.3891
  161SAPE  C21518065   4.817   6.351   7.378  0.6849  0.0872  0.7329
  161SAPE  H15R18066   4.734   6.283   7.402 -0.7024  1.4309 -0.0106
  161SAPE  C21618067   4.905   6.325   7.257  0.1026 -0.3472  0.1667
  161SAPE  H16R18068   4.908   6.225   7.209  0.5605  1.2340 -3.4736
  161SAPE  H16S18069   5.011   6.340   7.285  0.4740  0.9636 -1.7114
  161SAPE  C21718070   4.885   6.438   7.148  0.1561 -0.0146 -0.4207
  161SAPE  H17R18071   4.952   6.404   7.066 -0.3646 -2.7801  0.1934
  161SAPE  H17S18072   4.936   6.529   7.186  2.3527 -1.4784  0.3045
  161SAPE  C21818073   4.747   6.462   7.087 -0.4777 -0.1356  0.6614
  161SAPE  H18R18074   4.746   6.553   7.023 -2.3362  0.8632  2.0213
  161SAPE  H18S18075   4.675   6.494   7.165 -1.7755  0.6282 -0.8015
  161SAPE  C21918076   4.677   6.344   7.015  0.5400  0.4554  0.1842
  161SAPE  H19R18077   4.653   6.268   7.092  0.5242  0.1939 -0.0745
  161SAPE  H19S18078   4.752   6.309   6.941  0.7831  2.3771 -0.5289
  161SAPE  C22018079   4.541   6.376   6.950  0.6075 -0.2141 -0.3486
  161SAPE  H20R18080   4.463   6.409   7.022  0.4386  1.3628 -1.2208
  161SAPE  H20S18081   4.502   6.293   6.887  1.3516 -2.0697  1.4829
  161SAPE  H20T18082   4.555   6.454   6.873 -1.7370 -0.6079 -1.2369
  161SAPE   C3318083   5.633   6.667   7.101 -0.3904  0.5256  0.4844
  161SAPE   H3X18084   5.712   6.741   7.075  0.1612  0.8588  2.8894
  161SAPE   H3Y18085   5.669   6.565   7.076 -0.6115  0.2398  1.3303
  161SAPE   C3418086   5.606   6.689   7.248 -0.0616 -0.0965  0.0060
  161SAPE   H4X18087   5.598   6.799   7.263 -1.2866 -0.2104  0.2972
  161SAPE   H4Y18088   5.698   6.663   7.304  0.2343  1.7982  0.4560
  161SAPE   C3518089   5.482   6.614   7.302 -0.1598 -0.0383  1.2298
  161SAPE   H5X18090   5.384   6.660   7.280  0.0539 -0.2735 -0.2958
  161SAPE   H5Y18091   5.488   6.623   7.413  0.1749  0.1163  1.2008
  161SAPE   C3618092   5.480   6.466   7.271  0.2952  0.5821 -0.6348
  161SAPE   H6X18093   5.568   6.410   7.312 -2.2697 -0.1118  4.9129
  161SAPE   H6Y18094   5.470   6.455   7.161 -1.1289 -0.5595 -0.4149
  161SAPE   C3718095   5.362   6.393   7.339 -0.0202  0.3259  0.1618
  161SAPE   H7X18096   5.362   6.282   7.326  0.0043  0.2112  1.0420
  161SAPE   H7Y18097   5.278   6.429   7.277 -0.3115  0.3640  0.5735
  161SAPE   C3818098   5.347   6.415   7.491  0.2298  0.1406 -0.6543
  161SAPE   H8X18099   5.257   6.358   7.523 -0.4931  1.6738  0.1908
  161SAPE   H8Y18100   5.323   6.522   7.509  0.2136 -0.0072  0.2326
  161SAPE   C3918101   5.466   6.366   7.583  0.4667  0.5359  0.0690
  161SAPE   H9X18102   5.557   6.422   7.552  1.8520 -1.7851 -0.2909
  161SAPE   H9Y18103   5.470   6.255   7.582 -1.9616  0.3868  0.8264
  161SAPE  C31018104   5.444   6.431   7.717 -0.3374  0.6073  0.1618
  161SAPE  H10X18105   5.353   6.395   7.769  0.1657  1.5351  1.7694
  161SAPE  H10Y18106   5.442   6.540   7.696  1.0219  0.7270  0.5199
  161SAPE  C31118107   5.574   6.416   7.808  0.2022  0.3086  0.3755
  161SAPE  H11X18108   5.665   6.435   7.747  0.8639  1.8766  1.7752
  161SAPE  H11Y18109   5.575   6.308   7.836  1.8057  0.3577  0.6424
  161SAPE  C31218110   5.576   6.512   7.924  0.4381 -0.4907 -0.3477
  161SAPE  H12X18111   5.476   6.514   7.972 -0.5162  3.2527 -2.1141
  161SAPE  H12Y18112   5.592   6.612   7.879  0.8946 -0.6203 -0.4845
  161SAPE  C31318113   5.692   6.489   8.026  0.3374 -0.3170  0.2937
  161SAPE  H13X18114   5.793   6.483   7.980  1.0578  0.3682  1.7177
  161SAPE  H13Y18115   5.672   6.397   8.085 -2.4616  0.8140  1.2883
  161SAPE  C31418116   5.708   6.612   8.117 -0.0907 -0.8837 -0.4258
  161SAPE  H14X18117   5.611   6.645   8.159  0.4107 -0.2548  0.2691
  161SAPE  H14Y18118   5.753   6.698   8.062 -0.1495 -1.7379 -1.8672
  161SAPE  C31518119   5.802   6.580   8.231  0.5988 -0.4066  0.4704
  161SAPE  H15X18120   5.821   6.681   8.274 -0.1728 -0.9325  2.1349
  161SAPE  H15Y18121   5.889   6.521   8.193  0.6994 -0.0264  0.1086
  161SAPE  C31618122   5.741   6.509   8.355 -0.0166  0.0140 -0.1188
  161SAPE  H16X18123   5.695   6.411   8.330  0.2402  0.0107 -0.5824
  161SAPE  H16Y18124   5.669   6.570   8.414 -2.8693 -1.4100 -1.9113
  161SAPE  C31718125   5.855   6.481   8.460  0.0315  0.3336  0.2245
  161SAPE  H17X18126   5.807   6.434   8.549 -2.7717 -0.8479 -1.7497
  161SAPE  H17Y18127   5.902   6.581   8.473 -1.9476  2.3624 -5.3265
  161SAPE  C31818128   5.963   6.385   8.410  1.0172 -0.4281  0.0424
  161SAPE  H18X18129   6.024   6.348   8.496 -0.8026 -2.4425  0.5316
  161SAPE  H18Y18130   6.030   6.431   8.334 -0.4048  0.1260 -0.9218
  161SAPE  H18Z18131   5.911   6.302   8.359 -1.2856  0.7986  0.2827
  162SAPE     N18132   3.664   5.499   5.655  0.6975  0.1211 -1.0153
  162SAPE   HN118133   3.568   5.511   5.694  0.7291 -2.7965  0.1717
  162SAPE   HN218134   3.667   5.448   5.564  3.0206 -1.7523  0.0111
  162SAPE   HN318135   3.717   5.441   5.723  2.7127  1.0785 -1.7077
  162SAPE   C1218136   3.720   5.638   5.658 -0.5071 -0.2607 -0.2962
  162SAPE  H12A18137   3.647   5.701   5.603 -0.3878  0.5144  0.4102
  162SAPE  H12B18138   3.811   5.639   5.595 -1.3088  0.0188 -1.4818
  162SAPE   C1118139   3.726   5.697   5.799  0.1458  0.8235 -0.2918
  162SAPE  H11A18140   3.624   5.716   5.837 -0.8084  0.0061 -2.2935
  162SAPE  H11B18141   3.771   5.798   5.811 -0.1797  1.3151 -2.6365
  162SAPE     P18142   3.945   5.599   5.905 -0.4203  0.1557  0.1842
  162SAPE   O1318143   3.988   5.458   5.883  0.4846 -0.0056 -0.7460
  162SAPE   O1418144   4.005   5.701   5.821 -0.5849  0.3574  0.1549
  162SAPE   O1218145   3.789   5.602   5.887  0.2529  0.7515 -0.2600
  162SAPE   O1118146   3.955   5.629   6.062  0.1183  0.2727 -0.1556
  162SAPE    C118147   3.886   5.545   6.153 -0.0917  0.1127  0.8184
  162SAPE    HA18148   3.796   5.500   6.105  0.7550 -0.0283 -0.6962
  162SAPE    HB18149   3.965   5.471   6.176  0.3857 -0.1847 -1.5009
  162SAPE    C218150   3.840   5.629   6.271  0.0996  0.0273 -0.2799
  162SAPE    HS18151   3.934   5.684   6.295  0.0038 -0.1085  0.4413
  162SAPE   O2118152   3.796   5.546   6.379 -0.6845 -0.0688 -0.3688
  162SAPE   C2118153   3.852   5.558   6.493  0.5663 -0.2486 -0.2114
  162SAPE   O2218154   3.910   5.657   6.534 -0.1925  0.6393  0.2267
  162SAPE   C2218155   3.825   5.433   6.578 -0.5032  0.5315 -0.9255
  162SAPE   H2R18156   3.755   5.467   6.657  0.3276 -0.3932  0.2573
  162SAPE   H2S18157   3.771   5.365   6.509  0.1300  0.1330 -1.0399
  162SAPE    C318158   3.727   5.735   6.221  0.4055  0.6461  0.1837
  162SAPE    HX18159   3.647   5.671   6.177  2.0043 -1.2142 -0.1861
  162SAPE    HY18160   3.785   5.796   6.148 -0.0774  2.0704  0.9457
  162SAPE   O3118161   3.675   5.810   6.333 -0.3407 -0.1164 -0.2055
  162SAPE   C3118162   3.735   5.923   6.358 -0.2105 -0.1897 -0.3306
  162SAPE   O3218163   3.829   5.973   6.303 -0.0010  0.1035 -0.0883
  162SAPE   C3218164   3.658   6.001   6.469  0.3556  0.0561  0.9799
  162SAPE   H2X18165   3.568   6.046   6.423  0.3723 -1.3268 -0.5078
  162SAPE   H2Y18166   3.732   6.079   6.497  0.5747 -0.3255  1.4835
  162SAPE   C2318167   3.954   5.367   6.631  0.1204  0.1269 -0.1056
  162SAPE   H3R18168   4.010   5.450   6.678 -0.0020 -0.4253  1.0375
  162SAPE   H3S18169   4.015   5.328   6.546 -0.0523  2.3217 -1.2895
  162SAPE   C2418170   3.933   5.257   6.739  0.2509  0.6479  0.2959
  162SAPE   H4R18171   3.887   5.167   6.693 -1.1996  2.0451 -1.1118
  162SAPE   H4S18172   3.863   5.300   6.814 -3.0008  0.5205 -2.3838
  162SAPE   C2518173   4.062   5.225   6.803 -1.2277 -1.1397  0.0340
  162SAPE   H5R18174   4.127   5.158   6.744  0.0801 -1.7298  2.0307
  162SAPE   C2618175   4.111   5.259   6.926  0.8323  0.1383 -0.1024
  162SAPE   H6R18176   4.213   5.226   6.952  0.9198 -0.0990 -0.7291
  162SAPE   C2718177   4.035   5.345   7.018 -0.2558  0.3738 -0.2565
  162SAPE   H7R18178   4.091   5.362   7.113  0.1786  0.4080 -0.5173
  162SAPE   H7S18179   3.946   5.284   7.044 -1.7485  2.9198  0.9755
  162SAPE   C2818180   3.998   5.486   6.959 -0.4379  0.8602  0.3581
  162SAPE   H8R18181   4.054   5.511   6.868 -2.8039 -1.2805 -1.8574
  162SAPE   C2918182   3.916   5.577   7.016 -1.0909 -0.3261  0.4979
  162SAPE   H9R18183   3.899   5.672   6.964  2.3902 -0.7813 -1.7710
  162SAPE  C21018184   3.830   5.560   7.142 -0.0506  0.1517  0.7325
  162SAPE  H10R18185   3.801   5.453   7.155  0.8693  0.0244  1.9406
  162SAPE  H10S18186   3.735   5.613   7.123  0.2896  0.4206 -0.2889
  162SAPE  C21118187   3.892   5.610   7.273  1.0740  0.4904  0.7832
  162SAPE  H11R18188   3.990   5.660   7.265  0.5819  1.1767 -2.0005
  162SAPE  C21218189   3.831   5.596   7.393 -0.5035  0.6754  0.0613
  162SAPE  H12R18190   3.885   5.631   7.482  1.1434 -3.3444  0.8374
  162SAPE  C21318191   3.702   5.525   7.426 -0.4121 -0.4396  0.1818
  162SAPE  H13R18192   3.647   5.505   7.332 -0.8800 -0.7399  0.5110
  162SAPE  H13S18193   3.643   5.593   7.491 -1.3182  1.9104 -2.9047
  162SAPE  C21418194   3.723   5.390   7.496 -0.4705 -0.1716 -0.3395
  162SAPE  H14R18195   3.750   5.301   7.438  1.9572  0.3745 -0.1937
  162SAPE  C21518196   3.701   5.359   7.626 -0.1304 -0.1732 -0.4850
  162SAPE  H15R18197   3.708   5.258   7.668 -0.3651 -0.7868 -1.8688
  162SAPE  C21618198   3.656   5.464   7.729  0.1609  0.4318 -0.5279
  162SAPE  H16R18199   3.563   5.426   7.776  1.3664 -0.0960  1.5787
  162SAPE  H16S18200   3.632   5.563   7.684  1.5406  0.5681 -1.0139
  162SAPE  C21718201   3.765   5.484   7.838 -0.5031  0.0196  0.2102
  162SAPE  H17R18202   3.729   5.575   7.891  1.6610  1.9350 -1.4254
  162SAPE  H17S18203   3.858   5.508   7.782 -0.6126  0.6271  0.2829
  162SAPE  C21818204   3.791   5.366   7.929  0.3306 -0.3673 -0.5725
  162SAPE  H18R18205   3.839   5.279   7.879  0.2416 -1.9500  1.9183
  162SAPE  H18S18206   3.695   5.334   7.974 -0.5796  2.4089 -0.3804
  162SAPE  C21918207   3.882   5.402   8.048 -0.3833 -0.6946  0.2669
  162SAPE  H19R18208   3.853   5.500   8.091 -1.3622 -1.1692  0.6937
  162SAPE  H19S18209   3.979   5.418   7.995 -1.6831 -0.8275 -2.3176
  162SAPE  C22018210   3.893   5.306   8.166 -0.4495  0.4233 -0.7777
  162SAPE  H20R18211   3.960   5.344   8.246 -0.7245  0.3759 -0.5227
  162SAPE  H20S18212   3.925   5.202   8.141  1.0416  0.4243  0.9831
  162SAPE  H20T18213   3.790   5.299   8.207 -0.1993 -1.0280 -0.3381
  162SAPE   C3318214   3.608   5.913   6.587  0.4927 -0.9446  1.0181
  162SAPE   H3X18215   3.667   5.820   6.599  0.7377 -1.0027 -0.3961
  162SAPE   H3Y18216   3.500   5.888   6.573  1.1603 -2.4102 -2.6387
  162SAPE   C3418217   3.623   5.985   6.716 -0.9358  0.0788 -0.2138
  162SAPE   H4X18218   3.583   6.089   6.715 -0.5728  0.2198 -0.3864
  162SAPE   H4Y18219   3.731   5.999   6.736 -0.8817  1.5239 -1.2959
  162SAPE   C3518220   3.563   5.909   6.840 -0.5495  0.0014 -0.1573
  162SAPE   H5X18221   3.599   5.804   6.842 -0.0772  0.0979 -1.8646
  162SAPE   H5Y18222   3.452   5.910   6.833 -0.6442 -0.6551  0.9750
  162SAPE   C3618223   3.603   5.975   6.968  0.4365  0.4218 -0.7698
  162SAPE   H6X18224   3.557   6.076   6.973  0.1183  0.2499 -0.1028
  162SAPE   H6Y18225   3.711   5.999   6.971  0.0595  2.4472 -1.8133
  162SAPE   C3718226   3.558   5.896   7.099  0.2246  0.3542  0.1504
  162SAPE   H7X18227   3.617   5.802   7.091  0.5244  0.6129 -0.8288
  162SAPE   H7Y18228   3.449   5.877   7.104  0.3001  0.1890  1.7881
  162SAPE   C3818229   3.591   5.964   7.230 -0.3458  0.0531  0.0383
  162SAPE   H8X18230   3.558   6.070   7.237 -0.5709 -0.0671  0.9256
  162SAPE   H8Y18231   3.702   5.970   7.229 -0.3398 -0.0139  0.2714
  162SAPE   C3918232   3.543   5.876   7.343 -0.3675 -0.5694 -0.4150
  162SAPE   H9X18233   3.592   5.777   7.335 -2.5945 -1.6976 -0.8753
  162SAPE   H9Y18234   3.433   5.862   7.329 -0.9578  0.2567  2.6249
  162SAPE  C31018235   3.561   5.944   7.485  0.1436 -0.5198  0.8146
  162SAPE  H10X18236   3.510   6.042   7.480 -0.6626 -0.9054  1.3084
  162SAPE  H10Y18237   3.667   5.977   7.490 -0.0423 -0.0720  2.1384
  162SAPE  C31118238   3.516   5.858   7.595  0.5046 -0.8997 -0.2898
  162SAPE  H11X18239   3.576   5.765   7.584  1.7548  0.1279 -3.4332
  162SAPE  H11Y18240   3.408   5.834   7.600  0.0708  0.8428  4.5206
  162SAPE  C31218241   3.540   5.935   7.731 -0.5286  0.1213  0.1290
  162SAPE  H12X18242   3.478   6.026   7.742 -0.1526  0.1521  2.4880
  162SAPE  H12Y18243   3.648   5.955   7.741 -0.7696  0.8682  1.4982
  162SAPE  C31318244   3.515   5.835   7.847  0.5645 -0.7542  0.2531
  162SAPE  H13X18245   3.569   5.740   7.825  0.7711 -0.2289 -1.6005
  162SAPE  H13Y18246   3.409   5.807   7.830  0.5970 -1.1592  0.6725
  162SAPE  C31418247   3.537   5.886   7.990 -0.0873  0.2868 -0.4792
  162SAPE  H14X18248   3.493   5.986   8.009 -2.7978 -0.4236 -2.4913
  162SAPE  H14Y18249   3.646   5.901   8.007  1.0357 -4.0913 -2.4527
  162SAPE  C31518250   3.484   5.792   8.113 -0.1220  0.1030  0.5044
  162SAPE  H15X18251   3.377   5.787   8.087  0.3136  1.5351 -1.8612
  162SAPE  H15Y18252   3.498   5.841   8.211 -1.3326  2.1417 -0.2856
  162SAPE  C31618253   3.544   5.648   8.117 -0.4318 -0.2978  0.2023
  162SAPE  H16X18254   3.648   5.657   8.154 -0.1500  1.4109 -0.8986
  162SAPE  H16Y18255   3.544   5.610   8.012 -0.8187 -0.8331  0.3897
  162SAPE  C31718256   3.469   5.547   8.202 -0.5261 -0.0507  0.0262
  162SAPE  H17X18257   3.441   5.595   8.298  2.1015 -0.1650  0.9314
  162SAPE  H17Y18258   3.529   5.457   8.229 -0.3778  0.3570  1.0865
  162SAPE  C31818259   3.335   5.505   8.135  0.1599 -0.3126  0.1608
  162SAPE  H18X18260   3.287   5.593   8.090 -0.2609 -1.4254 -1.6626
  162SAPE  H18Y18261   3.266   5.455   8.207  2.3571 -2.2155  1.0728
  162SAPE  H18Z18262   3.359   5.440   8.048 -0.9606 -1.8382  0.9458
  163SAPE     N18263   6.729   3.674   6.222  0.5564 -0.3455 -0.4222
  163SAPE   HN118264   6.810   3.660   6.158  0.9668  2.9874 -0.7939
  163SAPE   HN218265   6.740   3.755   6.285 -1.8529  0.8216 -1.3851
  163SAPE   HN318266   6.711   3.596   6.288 -1.3289  0.2955 -0.1262
  163SAPE   C1218267   6.602   3.695   6.138  0.8573  0.9231 -0.2988
  163SAPE  H12A18268   6.571   3.594   6.101  1.2267  0.1203  1.4587
  163SAPE  H12B18269   6.622   3.763   6.054 -2.0868 -1.8243 -3.5211
  163SAPE   C1118270   6.472   3.725   6.223  0.2563 -0.2002 -0.1695
  163SAPE  H11A18271   6.471   3.654   6.308  0.3215 -0.1742 -0.1467
  163SAPE  H11B18272   6.378   3.696   6.172  0.5180 -2.8354  0.6886
  163SAPE     P18273   6.546   3.909   6.390 -0.0104 -0.5323 -0.0607
  163SAPE   O1318274   6.684   3.882   6.360 -0.3430  0.4380 -0.6549
  163SAPE   O1418275   6.505   4.045   6.439  0.1966  0.7652  0.1386
  163SAPE   O1218276   6.462   3.858   6.270  0.0849 -0.3796 -0.3780
  163SAPE   O1118277   6.511   3.808   6.507  0.3562  0.0948  0.1238
  163SAPE    C118278   6.370   3.795   6.544  0.0266 -0.0007  0.5089
  163SAPE    HA18279   6.301   3.829   6.464  0.5582 -0.5034 -0.1890
  163SAPE    HB18280   6.347   3.687   6.562 -2.7760  0.6049  1.0475
  163SAPE    C218281   6.327   3.858   6.684  0.5145  0.1423 -0.2735
  163SAPE    HS18282   6.292   3.962   6.666 -2.2897 -1.0944 -2.8610
  163SAPE   O2118283   6.435   3.852   6.777 -0.0112  0.0427 -0.8924
  163SAPE   C2118284   6.496   3.952   6.836 -0.2056 -0.3458  0.2990
  163SAPE   O2218285   6.461   4.073   6.829 -0.3553 -0.1965 -0.2230
  163SAPE   C2218286   6.592   3.888   6.932 -0.7429  0.3276  0.3585
  163SAPE   H2R18287   6.559   3.819   7.012 -0.7355 -0.0583  0.0334
  163SAPE   H2S18288   6.638   3.817   6.860 -0.7469  2.1252 -1.5002
  163SAPE    C318289   6.204   3.787   6.742  0.4434  0.2949  0.2167
  163SAPE    HX18290   6.227   3.679   6.752  0.0116 -0.0153 -1.8016
  163SAPE    HY18291   6.117   3.794   6.673 -0.1613  0.0440  0.9396
  163SAPE   O3118292   6.169   3.829   6.875  0.0521 -0.2281  1.0447
  163SAPE   C3118293   6.062   3.923   6.874 -0.3029 -0.2677 -0.1534
  163SAPE   O3218294   6.032   3.984   6.771 -0.2726  0.3131  0.2839
  163SAPE   C3218295   6.000   3.929   7.016  0.6052  0.1816 -0.2756
  163SAPE   H2X18296   6.024   3.828   7.055  1.5357 -0.9502 -3.4844
  163SAPE   H2Y18297   5.891   3.944   7.000  0.6189  2.0388  1.0112
  163SAPE   C2318298   6.702   3.989   6.979  0.1838 -0.4437  0.4232
  163SAPE   H3R18299   6.715   4.076   6.911  0.4964 -1.9932 -1.6133
  163SAPE   H3S18300   6.804   3.943   6.982 -0.8350 -2.8115  2.3062
  163SAPE   C2418301   6.669   4.049   7.123  0.4436  0.2479 -0.1896
  163SAPE   H4R18302   6.590   4.126   7.106  0.9929  1.0401  0.7561
  163SAPE   H4S18303   6.762   4.104   7.148 -0.1303  1.2142 -0.1086
  163SAPE   C2518304   6.631   3.946   7.221  0.1003  1.2268 -0.0747
  163SAPE   H5R18305   6.703   3.862   7.223 -1.2383  0.0611  0.7592
  163SAPE   C2618306   6.524   3.933   7.296  0.9311 -0.2840 -0.1985
  163SAPE   H6R18307   6.518   3.858   7.377  0.1068 -0.1246 -0.1065
  163SAPE   C2718308   6.420   4.038   7.303  0.0169  0.0557 -0.0429
  163SAPE   H7R18309   6.315   4.004   7.319  0.2317  0.1783  1.9608
  163SAPE   H7S18310   6.414   4.070   7.197 -0.8642 -1.6251 -0.5380
  163SAPE   C2818311   6.452   4.150   7.400  0.5400 -0.3716  0.1592
  163SAPE   H8R18312   6.497   4.241   7.358 -0.1565  0.5495  1.3282
  163SAPE   C2918313   6.421   4.146   7.529 -0.9643 -0.5761  0.1663
  163SAPE   H9R18314   6.435   4.231   7.599  1.5877 -1.4589  0.8523
  163SAPE  C21018315   6.370   4.030   7.609  0.3339  0.0964 -0.1736
  163SAPE  H10R18316   6.452   4.007   7.680  0.5124 -0.1644 -0.4635
  163SAPE  H10S18317   6.362   3.943   7.541  3.3338  1.5087 -2.6084
  163SAPE  C21118318   6.226   4.051   7.665 -0.6340 -0.9240 -0.3030
  163SAPE  H11R18319   6.147   4.015   7.598 -0.6335  0.3499 -1.0041
  163SAPE  C21218320   6.190   4.088   7.788  0.0283  0.4442  0.0875
  163SAPE  H12R18321   6.086   4.102   7.818 -0.0198  0.0769  0.1056
  163SAPE  C21318322   6.286   4.121   7.895  0.8243 -1.2862  0.2229
  163SAPE  H13R18323   6.380   4.062   7.892 -0.0026 -2.6534  0.2042
  163SAPE  H13S18324   6.242   4.102   7.995  1.1669  0.4696  0.7358
  163SAPE  C21418325   6.314   4.269   7.886 -0.1984 -0.5780 -0.3135
  163SAPE  H14R18326   6.360   4.304   7.793 -1.3520 -0.7070 -0.9459
  163SAPE  C21518327   6.284   4.367   7.976 -0.8083 -0.3191 -0.8297
  163SAPE  H15R18328   6.324   4.467   7.956 -1.2243 -0.1093 -0.6177
  163SAPE  C21618329   6.208   4.354   8.108  0.0613 -0.6296  0.1933
  163SAPE  H16R18330   6.177   4.250   8.133  2.2278 -1.3642  0.0775
  163SAPE  H16S18331   6.123   4.424   8.097  2.4032  2.1611 -1.5973
  163SAPE  C21718332   6.289   4.411   8.223 -0.6757 -0.1321  0.2052
  163SAPE  H17R18333   6.338   4.504   8.185  1.4497 -0.4841  1.9259
  163SAPE  H17S18334   6.363   4.333   8.251  0.8187  0.3993 -1.9535
  163SAPE  C21818335   6.199   4.443   8.338  0.4321  0.0521 -0.4801
  163SAPE  H18R18336   6.168   4.348   8.387  3.8001  0.1799  2.2957
  163SAPE  H18S18337   6.112   4.503   8.303  1.9646  0.4117 -4.1876
  163SAPE  C21918338   6.264   4.518   8.450  0.7004 -0.0573 -0.0794
  163SAPE  H19R18339   6.185   4.524   8.527 -1.1581  2.1207 -1.9658
  163SAPE  H19S18340   6.286   4.623   8.418  2.0070  0.1373  1.3546
  163SAPE  C22018341   6.399   4.461   8.503  0.2808  0.4034  0.2763
  163SAPE  H20R18342   6.482   4.480   8.430 -1.2605 -0.4063 -1.7870
  163SAPE  H20S18343   6.375   4.356   8.530 -1.6210  0.8010  0.2827
  163SAPE  H20T18344   6.430   4.517   8.594 -2.6813  3.0713 -0.1595
  163SAPE   C3318345   6.047   4.043   7.110 -0.4919  0.0475 -0.2786
  163SAPE   H3X18346   6.017   4.141   7.067 -1.6591  0.7111  1.8825
  163SAPE   H3Y18347   6.157   4.030   7.120 -0.8163 -3.0688  0.1257
  163SAPE   C3418348   5.983   4.017   7.246  0.4404 -0.2105  0.2014
  163SAPE   H4X18349   6.031   3.928   7.291  1.0827  0.2685  0.4739
  163SAPE   H4Y18350   5.880   3.977   7.235  0.7049 -1.1579  0.9916
  163SAPE   C3518351   6.009   4.140   7.338  0.9762 -0.1874 -0.7709
  163SAPE   H5X18352   6.104   4.193   7.317  0.7952  0.0523 -0.9932
  163SAPE   H5Y18353   6.028   4.112   7.443 -1.4598 -1.5110 -0.6062
  163SAPE   C3618354   5.892   4.235   7.344 -0.0936 -0.3084  0.0276
  163SAPE   H6X18355   5.800   4.175   7.355 -0.4688  0.2070 -0.2650
  163SAPE   H6Y18356   5.894   4.285   7.245  0.6317 -1.9961 -0.8495
  163SAPE   C3718357   5.894   4.331   7.469 -0.2579 -0.1089 -0.5621
  163SAPE   H7X18358   5.806   4.398   7.455 -0.4306 -0.5184 -1.4577
  163SAPE   H7Y18359   5.985   4.393   7.454 -2.3075  2.9269 -1.4547
  163SAPE   C3818360   5.877   4.262   7.604 -0.3599  0.2434 -0.3384
  163SAPE   H8X18361   5.972   4.207   7.622  1.6914  3.1908 -1.4219
  163SAPE   H8Y18362   5.795   4.188   7.601  1.2860 -1.6586 -1.1852
  163SAPE   C3918363   5.844   4.349   7.729  0.4642 -0.3229 -0.2727
  163SAPE   H9X18364   5.742   4.389   7.710  0.2074 -0.6445  0.4263
  163SAPE   H9Y18365   5.923   4.427   7.732  2.5326 -2.3350  0.5140
  163SAPE  C31018366   5.838   4.280   7.867 -0.0011  0.0885  0.0478
  163SAPE  H10X18367   5.937   4.241   7.897 -1.0707 -1.2108  2.0999
  163SAPE  H10Y18368   5.760   4.201   7.866 -1.7402  1.7123  0.7059
  163SAPE  C31118369   5.800   4.382   7.972 -0.1108 -0.5431 -0.3440
  163SAPE  H11X18370   5.729   4.457   7.931  1.0060  0.8310  0.1765
  163SAPE  H11Y18371   5.889   4.445   7.992 -0.4115 -0.3499  0.3882
  163SAPE  C31218372   5.758   4.317   8.100 -0.2524 -0.5063 -0.5390
  163SAPE  H12X18373   5.817   4.223   8.109 -1.1221 -0.9248  1.7036
  163SAPE  H12Y18374   5.651   4.285   8.104 -0.8193  1.2441 -0.9208
  163SAPE  C31318375   5.799   4.402   8.223 -0.0734  0.2415 -0.3366
  163SAPE  H13X18376   5.770   4.508   8.210  1.4307  0.4323 -2.6331
  163SAPE  H13Y18377   5.910   4.397   8.226 -0.1347 -1.4943  0.0779
  163SAPE  C31418378   5.757   4.346   8.356 -0.6664 -0.6553 -0.0803
  163SAPE  H14X18379   5.798   4.416   8.433 -1.6292 -0.1003 -0.0525
  163SAPE  H14Y18380   5.815   4.252   8.364  0.4752 -0.0623 -1.1054
  163SAPE  C31518381   5.604   4.333   8.373 -0.2343 -0.8932 -0.0519
  163SAPE  H15X18382   5.570   4.246   8.313  0.4209  0.2839 -2.2286
  163SAPE  H15Y18383   5.558   4.431   8.346 -2.6305 -1.7696  0.5548
  163SAPE  C31618384   5.568   4.299   8.519  0.5606  0.2775 -0.4153
  163SAPE  H16X18385   5.654   4.252   8.571  2.2227  3.6832  0.1335
  163SAPE  H16Y18386   5.483   4.227   8.516 -0.8423  1.8694 -0.1884
  163SAPE  C31718387   5.527   4.414   8.613  0.0126 -0.3561 -0.2129
  163SAPE  H17X18388   5.450   4.484   8.573  0.0554 -1.0083 -1.4710
  163SAPE  H17Y18389   5.617   4.475   8.638  1.1676 -2.1948  0.2492
  163SAPE  C31818390   5.462   4.357   8.736  0.2446 -0.1879 -0.0408
  163SAPE  H18X18391   5.539   4.307   8.799 -0.1390  1.2933  1.7045
  163SAPE  H18Y18392   5.383   4.285   8.706 -0.8926  1.8942 -2.4168
  163SAPE  H18Z18393   5.420   4.436   8.802  1.6822 -1.2586  2.3101
  164SAPE     N18394   1.422   2.273   6.376  0.2728 -0.2320 -1.2012
  164SAPE   HN118395   1.501   2.337   6.400 -0.7210  0.2416  1.1539
  164SAPE   HN218396   1.335   2.329   6.391 -2.1845 -3.5525 -1.9587
  164SAPE   HN318397   1.429   2.196   6.446  1.3542 -0.7670 -1.8768
  164SAPE   C1218398   1.420   2.212   6.238  0.0716  0.0981 -0.2995
  164SAPE  H12A18399   1.509   2.147   6.223 -0.0351 -0.2567  0.5809
  164SAPE  H12B18400   1.447   2.301   6.176 -0.0227  0.2574 -0.1157
  164SAPE   C1118401   1.287   2.159   6.197 -0.2021 -0.0543  0.5278
  164SAPE  H11A18402   1.278   2.153   6.087  0.2541 -0.5596  0.5104
  164SAPE  H11B18403   1.215   2.232   6.241 -0.4129 -0.7840  1.4146
  164SAPE     P18404   1.325   1.895   6.222 -0.0878 -0.2486 -0.0403
  164SAPE   O1318405   1.309   1.866   6.078 -0.0264 -0.6822  0.0643
  164SAPE   O1418406   1.465   1.909   6.274 -0.2960  0.1078 -0.5611
  164SAPE   O1218407   1.245   2.027   6.251  0.0946 -1.0113  0.0047
  164SAPE   O1118408   1.248   1.781   6.305  0.4293  0.1876  0.5797
  164SAPE    C118409   1.115   1.791   6.354  0.5669  0.1266 -0.1458
  164SAPE    HA18410   1.059   1.862   6.290  0.6363 -1.3741 -1.9764
  164SAPE    HB18411   1.065   1.694   6.334 -1.5603  1.4755 -1.8190
  164SAPE    C218412   1.116   1.846   6.504 -0.0350  0.0276  0.6359
  164SAPE    HS18413   1.160   1.948   6.496  2.9241 -1.1439  0.5804
  164SAPE   O2118414   1.196   1.749   6.585  0.1112  0.2100  0.3123
  164SAPE   C2118415   1.274   1.795   6.682 -0.2512 -0.0294  0.5614
  164SAPE   O2218416   1.301   1.911   6.702  0.1725 -0.1112  0.1821
  164SAPE   C2218417   1.330   1.681   6.759  0.0008  0.4305  0.1090
  164SAPE   H2R18418   1.311   1.585   6.707 -1.7686  1.2977 -0.9147
  164SAPE   H2S18419   1.441   1.686   6.759  0.0551 -0.5035  0.7171
  164SAPE    C318420   0.974   1.854   6.562  0.7385  0.4487  0.8221
  164SAPE    HX18421   0.940   1.749   6.551 -0.5175  0.8847  0.3961
  164SAPE    HY18422   0.903   1.916   6.504 -0.8946 -2.6740 -0.7528
  164SAPE   O3118423   0.972   1.896   6.705 -0.0168  0.4204 -0.4590
  164SAPE   C3118424   0.993   2.024   6.737  0.3037 -0.0306  0.7836
  164SAPE   O3218425   1.005   2.114   6.655 -0.6876  0.2943  0.3695
  164SAPE   C3218426   0.995   2.036   6.890 -0.0569  0.5577 -0.0361
  164SAPE   H2X18427   1.098   2.009   6.924  0.7121  2.2706 -0.9130
  164SAPE   H2Y18428   0.918   1.964   6.925  0.9422  0.0522  1.2248
  164SAPE   C2318429   1.273   1.663   6.905 -0.6836  0.0519 -0.1242
  164SAPE   H3R18430   1.163   1.657   6.902 -0.7878  1.7076 -3.0737
  164SAPE   H3S18431   1.307   1.745   6.972  1.4921 -0.7872 -0.0843
  164SAPE   C2418432   1.327   1.531   6.980  0.0372  0.6358 -0.3640
  164SAPE   H4R18433   1.303   1.442   6.919 -2.7005  0.2562  1.1257
  164SAPE   H4S18434   1.273   1.531   7.077  0.5209  1.0637 -0.0881
  164SAPE   C2518435   1.477   1.543   7.001 -0.6447  0.4566  0.2860
  164SAPE   H5R18436   1.544   1.524   6.916 -1.2949 -1.4424  0.1659
  164SAPE   C2618437   1.537   1.571   7.115 -0.2317  0.0657  0.5852
  164SAPE   H6R18438   1.637   1.614   7.103 -1.1302  1.9868 -0.3670
  164SAPE   C2718439   1.480   1.582   7.257  0.1815 -0.4836  0.0117
  164SAPE   H7R18440   1.393   1.514   7.266 -0.3161 -0.1420 -1.6950
  164SAPE   H7S18441   1.431   1.681   7.268 -0.2905 -0.7020 -0.0895
  164SAPE   C2818442   1.565   1.533   7.374 -0.1756  0.6524  0.5024
  164SAPE   H8R18443   1.630   1.448   7.350  1.2291  1.5479  1.0563
  164SAPE   C2918444   1.554   1.561   7.500  0.7622  1.0992  0.5089
  164SAPE   H9R18445   1.617   1.501   7.567 -0.4078  0.4359  1.0400
  164SAPE  C21018446   1.470   1.660   7.571  0.3634  0.5956 -0.4642
  164SAPE  H10R18447   1.380   1.683   7.509 -1.3350  0.3735  1.7893
  164SAPE  H10S18448   1.523   1.757   7.568  1.7576 -0.1398 -0.3777
  164SAPE  C21118449   1.440   1.622   7.715  0.2273  0.5112 -0.3086
  164SAPE  H11R18450   1.393   1.523   7.722 -0.0058  0.7497  4.4195
  164SAPE  C21218451   1.444   1.691   7.829  0.3724  0.6840 -1.2119
  164SAPE  H12R18452   1.420   1.647   7.926  0.6826  2.0100 -0.5133
  164SAPE  C21318453   1.484   1.834   7.848 -0.1602  0.0718  0.0769
  164SAPE  H13R18454   1.580   1.863   7.800 -0.4876  2.0226  0.5104
  164SAPE  H13S18455   1.496   1.859   7.956 -0.6213  0.1297  0.1172
  164SAPE  C21418456   1.378   1.934   7.801 -0.5554 -0.3931  0.3041
  164SAPE  H14R18457   1.302   1.895   7.731  1.7952 -4.3135 -0.3774
  164SAPE  C21518458   1.373   2.064   7.825  0.1357  0.1096  0.0817
  164SAPE  H15R18459   1.282   2.118   7.795 -1.3250 -2.4335 -0.3249
  164SAPE  C21618460   1.468   2.133   7.925  0.7858  0.0383 -0.3200
  164SAPE  H16R18461   1.515   2.223   7.882  0.8772 -0.4307 -1.2095
  164SAPE  H16S18462   1.552   2.074   7.968  0.2990 -0.4874 -0.0711
  164SAPE  C21718463   1.385   2.190   8.046 -0.4633 -0.2479 -0.0926
  164SAPE  H17R18464   1.453   2.243   8.115  0.2800 -0.7958 -0.3898
  164SAPE  H17S18465   1.334   2.104   8.095  2.9136 -1.2533  1.9443
  164SAPE  C21818466   1.269   2.286   8.020 -0.1539 -0.2581  0.7734
  164SAPE  H18R18467   1.185   2.220   7.992 -1.5659  1.2038  1.3808
  164SAPE  H18S18468   1.283   2.352   7.931 -3.2042 -0.1848  0.2498
  164SAPE  C21918469   1.240   2.368   8.136 -0.3286 -0.6632  0.1116
  164SAPE  H19R18470   1.329   2.429   8.162  1.3737 -1.4244 -3.3665
  164SAPE  H19S18471   1.216   2.306   8.226 -2.1289  1.9015  1.5393
  164SAPE  C22018472   1.129   2.480   8.126  0.0130  0.3082 -0.3217
  164SAPE  H20R18473   1.127   2.548   8.038 -2.8830  1.8870  0.8325
  164SAPE  H20S18474   1.133   2.531   8.224 -0.8001  0.7375 -0.5046
  164SAPE  H20T18475   1.027   2.435   8.125  0.3598 -0.7162  2.2654
  164SAPE   C3318476   0.945   2.173   6.934 -0.7973  0.3498  0.4895
  164SAPE   H3X18477   0.849   2.203   6.888 -0.6567 -0.9733 -0.7281
  164SAPE   H3Y18478   1.020   2.249   6.902  0.5339 -1.4689 -0.9522
  164SAPE   C3418479   0.941   2.170   7.082 -0.3605  0.3325 -0.5693
  164SAPE   H4X18480   1.016   2.101   7.127 -2.6345 -0.2225  2.7168
  164SAPE   H4Y18481   0.843   2.124   7.108  1.0317 -2.2452  0.5085
  164SAPE   C3518482   0.955   2.310   7.134  0.4011  0.1678 -0.3522
  164SAPE   H5X18483   1.025   2.377   7.080  0.8939  1.9478  2.3091
  164SAPE   H5Y18484   0.991   2.305   7.239 -1.6901  1.4854  0.4914
  164SAPE   C3618485   0.823   2.394   7.142 -0.1169  0.3810 -0.3185
  164SAPE   H6X18486   0.758   2.332   7.207  2.2108 -0.1108  1.6687
  164SAPE   H6Y18487   0.784   2.393   7.038 -1.9499  1.1568  0.3202
  164SAPE   C3718488   0.844   2.534   7.194  1.0353 -0.8145 -0.0859
  164SAPE   H7X18489   0.821   2.609   7.115  0.3710 -1.3440 -0.4064
  164SAPE   H7Y18490   0.945   2.564   7.229  0.2782 -0.5644  1.9962
  164SAPE   C3818491   0.739   2.557   7.307  0.4729  0.5001  0.6071
  164SAPE   H8X18492   0.644   2.511   7.271 -0.0628  1.3722  0.8689
  164SAPE   H8Y18493   0.717   2.666   7.313 -1.1369  0.1986  0.6820
  164SAPE   C3918494   0.774   2.492   7.435 -0.7954 -0.2856  0.0960
  164SAPE   H9X18495   0.877   2.522   7.464 -0.9747 -0.3081  0.7801
  164SAPE   H9Y18496   0.777   2.384   7.412  3.6766 -0.0987 -1.1048
  164SAPE  C31018497   0.681   2.532   7.549  0.3985 -0.2945  0.3277
  164SAPE  H10X18498   0.575   2.499   7.539 -0.9471  2.8965  2.3461
  164SAPE  H10Y18499   0.687   2.643   7.560 -0.3347 -0.1335 -0.6911
  164SAPE  C31118500   0.728   2.464   7.678  0.3154  0.7946  0.7520
  164SAPE  H11X18501   0.833   2.498   7.687  0.7842 -0.1608 -0.7080
  164SAPE  H11Y18502   0.707   2.358   7.651 -1.4379  1.2027  0.4292
  164SAPE  C31218503   0.649   2.502   7.805  0.3771 -0.1984 -0.3778
  164SAPE  H12X18504   0.543   2.470   7.794 -0.0583  1.7281 -2.6500
  164SAPE  H12Y18505   0.633   2.612   7.801 -1.7635 -0.4864 -0.9998
  164SAPE  C31318506   0.702   2.449   7.941 -0.0307 -0.4641 -0.3679
  164SAPE  H13X18507   0.811   2.472   7.939 -0.5164  1.9785 -1.1532
  164SAPE  H13Y18508   0.684   2.340   7.952  1.9907 -0.7753  0.4651
  164SAPE  C31418509   0.639   2.532   8.060 -1.4327  0.8916  0.9222
  164SAPE  H14X18510   0.529   2.517   8.056 -1.4974  0.8640  2.4267
  164SAPE  H14Y18511   0.650   2.643   8.051  1.4975  0.5086 -2.6652
  164SAPE  C31518512   0.690   2.487   8.196  0.2000  0.7466  0.0012
  164SAPE  H15X18513   0.793   2.523   8.216  0.3864  0.8520 -1.0873
  164SAPE  H15Y18514   0.692   2.376   8.203  1.6231  0.8073  1.1446
  164SAPE  C31618515   0.601   2.546   8.314  0.1868  0.8024  0.2427
  164SAPE  H16X18516   0.491   2.527   8.311  0.1129  1.2995 -0.5026
  164SAPE  H16Y18517   0.624   2.654   8.326 -0.0234  1.0383 -1.3230
  164SAPE  C31718518   0.629   2.490   8.454  0.2535 -0.5092  0.1194
  164SAPE  H17X18519   0.740   2.493   8.463  0.3712 -2.6920 -0.1190
  164SAPE  H17Y18520   0.608   2.381   8.464  1.4107 -0.6002  2.2555
  164SAPE  C31818521   0.577   2.569   8.571 -0.2727 -0.2833  0.4253
  164SAPE  H18X18522   0.603   2.676   8.560 -1.6898 -0.0982 -1.8503
  164SAPE  H18Y18523   0.602   2.518   8.667 -1.4067 -1.2228  0.2439
  164SAPE  H18Z18524   0.468   2.552   8.563 -0.4592  1.1107 -0.2750
  165SAPE     N18525   1.817   4.374   6.368  0.0040  0.1275  0.4217
  165SAPE   HN118526   1.755   4.457   6.363 -0.5006 -0.2618  0.0619
  165SAPE   HN218527   1.909   4.400   6.326 -0.9642 -0.0207 -1.9686
  165SAPE   HN318528   1.767   4.309   6.303  1.6982  0.4736 -1.3475
  165SAPE   C1218529   1.824   4.305   6.501 -0.4447  0.9180  0.1542
  165SAPE  H12A18530   1.726   4.307   6.555 -0.3950  1.4728  0.2267
  165SAPE  H12B18531   1.897   4.359   6.565  2.2250 -1.5034 -0.6809
  165SAPE   C1118532   1.874   4.164   6.490  0.3098  0.3737  0.4207
  165SAPE  H11A18533   1.842   4.113   6.583  1.1671  0.5956  0.8495
  165SAPE  H11B18534   1.980   4.153   6.460  0.7668 -0.7476  2.3076
  165SAPE     P18535   1.782   3.947   6.366 -0.0441 -0.0375  0.0858
  165SAPE   O1318536   1.712   3.918   6.240  0.1356 -0.5004  0.7733
  165SAPE   O1418537   1.913   3.872   6.383  0.3240  0.2444 -0.2928
  165SAPE   O1218538   1.804   4.103   6.381  0.1259  0.0073 -0.3368
  165SAPE   O1118539   1.687   3.924   6.494 -0.4288  0.2711 -0.3929
  165SAPE    C118540   1.559   3.989   6.495  0.2127 -0.4589  0.0093
  165SAPE    HA18541   1.570   4.099   6.479  2.0982 -0.6433 -0.2489
  165SAPE    HB18542   1.495   3.948   6.414  1.4656  0.2191 -1.3670
  165SAPE    C218543   1.489   3.981   6.628 -0.7277  0.3978  0.3066
  165SAPE    HS18544   1.396   4.042   6.630 -0.5506  0.7005 -0.4280
  165SAPE   O2118545   1.585   4.026   6.725 -0.3368 -0.4347  0.5237
  165SAPE   C2118546   1.576   4.141   6.784  0.5449 -0.7348 -0.1767
  165SAPE   O2218547   1.480   4.217   6.784  0.0916 -0.1226 -0.1245
  165SAPE   C2218548   1.696   4.151   6.876 -0.0769 -0.5895 -0.0966
  165SAPE   H2R18549   1.691   4.082   6.964  1.3596  0.6350  1.0048
  165SAPE   H2S18550   1.784   4.114   6.819  0.7591  1.0366  0.0651
  165SAPE    C318551   1.433   3.847   6.671 -0.4087 -0.1902 -0.6520
  165SAPE    HX18552   1.506   3.766   6.650  0.4974  0.7055 -1.0430
  165SAPE    HY18553   1.339   3.827   6.617 -1.6693 -0.4254  1.5099
  165SAPE   O3118554   1.393   3.839   6.812 -0.2843  0.7029 -0.0043
  165SAPE   C3118555   1.496   3.813   6.892  0.2322  0.1552 -0.6039
  165SAPE   O3218556   1.610   3.785   6.858  0.4048  0.1979 -0.2181
  165SAPE   C3218557   1.449   3.811   7.035 -0.5132  0.1268  0.0203
  165SAPE   H2X18558   1.429   3.708   7.069  1.2043  0.9857  4.2539
  165SAPE   H2Y18559   1.348   3.857   7.039 -1.3000 -1.2256 -2.3522
  165SAPE   C2318560   1.720   4.295   6.934 -0.1659  0.0330 -0.1492
  165SAPE   H3R18561   1.643   4.336   7.003 -1.0341  2.2162 -2.2751
  165SAPE   H3S18562   1.707   4.355   6.841 -0.3095 -1.1187 -0.8855
  165SAPE   C2418563   1.864   4.327   6.983  0.9631  0.4952 -0.1415
  165SAPE   H4R18564   1.863   4.438   6.986  1.0415  0.5175 -0.7360
  165SAPE   H4S18565   1.929   4.287   6.902 -0.1032 -2.6305  0.4153
  165SAPE   C2518566   1.900   4.273   7.120 -0.1651  0.1697 -0.5963
  165SAPE   H5R18567   1.823   4.271   7.198  1.0154  1.5940  0.6684
  165SAPE   C2618568   2.018   4.217   7.165  1.2020  0.6492  0.5792
  165SAPE   H6R18569   2.020   4.165   7.262  0.4860 -0.5141 -0.0078
  165SAPE   C2718570   2.135   4.188   7.078 -0.5036  0.0997 -0.0567
  165SAPE   H7R18571   2.225   4.200   7.142 -1.7138 -0.1452  1.7548
  165SAPE   H7S18572   2.134   4.268   7.000 -2.1757 -0.1875 -0.3515
  165SAPE   C2818573   2.126   4.050   7.026  0.3979 -0.4025 -0.0189
  165SAPE   H8R18574   2.087   4.043   6.923 -1.5070  3.5562  0.2212
  165SAPE   C2918575   2.195   3.945   7.068 -0.0491 -0.4964 -0.3928
  165SAPE   H9R18576   2.172   3.849   7.020  1.6644 -0.4758 -1.3324
  165SAPE  C21018577   2.280   3.946   7.195 -0.0054  0.1821  0.1647
  165SAPE  H10R18578   2.219   3.977   7.283  0.3065  1.8667 -0.1841
  165SAPE  H10S18579   2.358   4.025   7.187 -1.1218  1.9425  3.9960
  165SAPE  C21118580   2.350   3.810   7.219  0.2202  0.1544  0.0590
  165SAPE  H11R18581   2.311   3.728   7.158 -1.6387  0.6278  0.5475
  165SAPE  C21218582   2.450   3.779   7.303 -0.1567 -0.1896  0.3037
  165SAPE  H12R18583   2.487   3.677   7.288  3.1044  1.1337 -1.9655
  165SAPE  C21318584   2.513   3.871   7.410  0.0176  0.4485 -0.0217
  165SAPE  H13R18585   2.588   3.814   7.469  0.2853 -0.5356 -1.2740
  165SAPE  H13S18586   2.433   3.908   7.477 -0.0311 -2.5970  1.7739
  165SAPE  C21418587   2.592   3.987   7.345 -0.1601 -0.2639 -0.9709
  165SAPE  H14R18588   2.528   4.064   7.299 -2.6319 -1.8138 -0.3334
  165SAPE  C21518589   2.722   4.014   7.344  0.0830  0.0715  0.5046
  165SAPE  H15R18590   2.750   4.104   7.287 -0.8107  0.2017  0.2590
  165SAPE  C21618591   2.829   3.931   7.402  0.2619 -0.4862  0.3231
  165SAPE  H16R18592   2.912   3.975   7.342 -0.0037 -0.7457 -0.2372
  165SAPE  H16S18593   2.811   3.824   7.379  0.9675 -0.3658 -0.8929
  165SAPE  C21718594   2.849   3.967   7.553 -0.3605 -0.6365 -0.7401
  165SAPE  H17R18595   2.867   3.875   7.614 -3.1779 -0.5788  0.3247
  165SAPE  H17S18596   2.756   4.010   7.597  0.7858  1.2838 -0.0584
  165SAPE  C21818597   2.959   4.069   7.581 -0.0795  0.1795  1.0143
  165SAPE  H18R18598   2.958   4.155   7.510 -0.3070  1.3579  2.4099
  165SAPE  H18S18599   3.053   4.010   7.567 -0.1811  0.3188 -0.4450
  165SAPE  C21918600   2.940   4.129   7.718  0.4329  0.2206  0.4416
  165SAPE  H19R18601   2.941   4.044   7.790  0.4037 -2.3803 -2.4055
  165SAPE  H19S18602   2.840   4.176   7.723  0.7773  0.8464  1.7214
  165SAPE  C22018603   3.042   4.237   7.735 -0.3403 -0.2946 -0.3288
  165SAPE  H20R18604   3.033   4.309   7.819  1.0907 -0.1426 -0.2773
  165SAPE  H20S18605   3.052   4.291   7.638 -0.6799  0.5751  0.1150
  165SAPE  H20T18606   3.136   4.178   7.744 -0.4826 -0.2621  1.7999
  165SAPE   C3318607   1.549   3.881   7.128  0.3690 -0.0600  0.5370
  165SAPE   H3X18608   1.584   3.977   7.085 -1.4770  0.3972 -0.0311
  165SAPE   H3Y18609   1.639   3.817   7.119 -0.7067 -1.4888 -0.5876
  165SAPE   C3418610   1.503   3.883   7.271  0.0239 -0.7260  1.2739
  165SAPE   H4X18611   1.442   3.974   7.290  1.1019  0.1630  0.6319
  165SAPE   H4Y18612   1.590   3.905   7.337 -0.6364  1.2601  1.5589
  165SAPE   C3518613   1.435   3.756   7.320 -0.3914  0.1251 -0.4279
  165SAPE   H5X18614   1.499   3.667   7.303 -0.5127  0.3543 -2.3096
  165SAPE   H5Y18615   1.341   3.735   7.264 -2.4180 -1.3280  3.1994
  165SAPE   C3618616   1.413   3.764   7.475  0.4146 -0.4546 -0.3592
  165SAPE   H6X18617   1.345   3.680   7.502 -1.9001  1.8428  1.5044
  165SAPE   H6Y18618   1.354   3.855   7.500 -0.6897 -1.3447  0.3770
  165SAPE   C3718619   1.543   3.755   7.563 -0.4325 -0.4974 -0.3753
  165SAPE   H7X18620   1.594   3.852   7.578  0.0874 -0.5578 -1.6594
  165SAPE   H7Y18621   1.615   3.690   7.508 -0.2003  0.9660 -1.8895
  165SAPE   C3818622   1.508   3.694   7.701 -0.3053 -0.2571 -0.0879
  165SAPE   H8X18623   1.450   3.600   7.690 -2.9814  1.2047  0.4036
  165SAPE   H8Y18624   1.443   3.766   7.757 -0.6009 -0.5106 -0.1037
  165SAPE   C3918625   1.634   3.667   7.779 -0.7449  0.1063  0.3412
  165SAPE   H9X18626   1.714   3.608   7.729 -1.1902  2.0505 -2.9318
  165SAPE   H9Y18627   1.608   3.626   7.879 -1.5419  1.0953  0.5534
  165SAPE  C31018628   1.694   3.807   7.814  0.1467 -0.2292 -0.4176
  165SAPE  H10X18629   1.610   3.879   7.827 -2.0746 -3.0032  2.0091
  165SAPE  H10Y18630   1.766   3.846   7.739 -1.3791  1.3131 -1.1473
  165SAPE  C31118631   1.780   3.797   7.947 -0.1689 -0.0587  1.2974
  165SAPE  H11X18632   1.718   3.774   8.037 -2.2676  0.9544  0.1759
  165SAPE  H11Y18633   1.805   3.903   7.970 -1.8281  0.4634  0.8960
  165SAPE  C31218634   1.914   3.718   7.931  0.8259 -0.7919 -0.2420
  165SAPE  H12X18635   1.969   3.754   7.842  1.8812 -0.6106  0.4671
  165SAPE  H12Y18636   1.880   3.613   7.922 -3.1203 -0.1167  3.3262
  165SAPE  C31318637   1.989   3.721   8.059 -0.0208  0.1429  0.3765
  165SAPE  H13X18638   1.906   3.711   8.132 -1.6367 -0.4082 -1.4697
  165SAPE  H13Y18639   2.041   3.819   8.073  1.9702 -0.7623 -0.2902
  165SAPE  C31418640   2.091   3.607   8.082  0.4310  0.0476 -0.1818
  165SAPE  H14X18641   2.045   3.507   8.071 -0.5455  0.3573  0.9124
  165SAPE  H14Y18642   2.120   3.616   8.189  0.1088  0.3528 -0.1222
  165SAPE  C31518643   2.208   3.599   7.980  0.2299  0.1992  0.1228
  165SAPE  H15X18644   2.165   3.581   7.879  0.2193 -0.6383  0.2753
  165SAPE  H15Y18645   2.264   3.504   7.987 -0.4970 -0.4307 -1.9802
  165SAPE  C31618646   2.308   3.717   7.996  0.3956 -0.6581  0.5579
  165SAPE  H16X18647   2.370   3.696   8.085  0.4875  1.6832  1.0934
  165SAPE  H16Y18648   2.260   3.815   8.015 -0.9476 -0.6626 -2.2365
  165SAPE  C31718649   2.406   3.745   7.878 -0.3664  0.0955 -0.0881
  165SAPE  H17X18650   2.438   3.648   7.835  1.6003  1.1422 -1.1023
  165SAPE  H17Y18651   2.498   3.797   7.913 -1.0267  0.3473  1.3696
  165SAPE  C31818652   2.334   3.829   7.774  0.5187 -0.0457  0.9013
  165SAPE  H18X18653   2.306   3.927   7.817 -0.3538  0.2244 -0.2120
  165SAPE  H18Y18654   2.232   3.788   7.752 -0.3489  2.6562 -0.5807
  165SAPE  H18Z18655   2.387   3.844   7.677  1.1266 -2.3220  0.8100
  166SAPE     N18656   4.789   5.853   6.118 -0.7354  0.2515 -1.1103
  166SAPE   HN118657   4.725   5.933   6.141  1.2853  1.3947  0.9895
  166SAPE   HN218658   4.868   5.871   6.183 -0.2914  1.3229 -1.9195
  166SAPE   HN318659   4.816   5.853   6.018 -1.4847  0.3726 -1.3157
  166SAPE   C1218660   4.713   5.724   6.139  0.0299 -0.1226  0.3944
  166SAPE  H12A18661   4.662   5.734   6.237  2.7144  0.6215  1.8047
  166SAPE  H12B18662   4.785   5.639   6.142 -0.3299 -0.4199  1.0097
  166SAPE   C1118663   4.606   5.697   6.032  0.1794  0.0234  0.6998
  166SAPE  H11A18664   4.656   5.679   5.935  0.7967 -0.6805  1.1442
  166SAPE  H11B18665   4.545   5.790   6.021 -2.0261 -1.4227  0.1188
  166SAPE     P18666   4.388   5.566   6.035 -0.5110 -0.1751  0.1612
  166SAPE   O1318667   4.359   5.659   5.923 -0.2853  0.0912  0.4655
  166SAPE   O1418668   4.345   5.425   6.014 -0.1699  0.7745  0.4363
  166SAPE   O1218669   4.533   5.581   6.078 -0.1062 -0.2346 -0.3154
  166SAPE   O1118670   4.308   5.625   6.161 -0.9761  0.0351  0.6733
  166SAPE    C118671   4.248   5.543   6.265 -0.0769 -1.1386  0.3214
  166SAPE    HA18672   4.148   5.588   6.282  0.2064 -0.1631 -0.5031
  166SAPE    HB18673   4.238   5.436   6.240 -1.8592 -0.7245 -0.9257
  166SAPE    C218674   4.337   5.561   6.392  0.2713 -0.4888  0.5858
  166SAPE    HS18675   4.367   5.668   6.388  2.4235 -1.0492  0.5908
  166SAPE   O2118676   4.455   5.472   6.375 -0.1623  0.3807 -0.0493
  166SAPE   C2118677   4.570   5.502   6.436 -0.4016  0.7364  0.1314
  166SAPE   O2218678   4.584   5.598   6.518  0.3309  0.5282  0.2800
  166SAPE   C2218679   4.678   5.408   6.398  0.3264  0.7637  0.4237
  166SAPE   H2R18680   4.639   5.313   6.354 -1.3034  0.9769  1.3392
  166SAPE   H2S18681   4.753   5.464   6.338 -0.4726  1.1939 -0.1858
  166SAPE    C318682   4.270   5.518   6.526  0.5826 -0.1612  0.4797
  166SAPE    HX18683   4.245   5.411   6.514  1.7011 -0.4613  0.6802
  166SAPE    HY18684   4.176   5.576   6.517  0.4401 -0.2581  1.2414
  166SAPE   O3118685   4.357   5.526   6.641  0.2090  0.1369  0.1467
  166SAPE   C3118686   4.348   5.637   6.704 -0.0459 -0.1909  0.3015
  166SAPE   O3218687   4.269   5.726   6.680  0.0336 -0.0767 -0.0595
  166SAPE   C3218688   4.437   5.626   6.830 -0.1206 -0.0539  0.6516
  166SAPE   H2X18689   4.463   5.732   6.853 -2.6399  0.7111  0.3397
  166SAPE   H2Y18690   4.529   5.569   6.807 -0.2462 -0.1326  0.3334
  166SAPE   C2318691   4.754   5.362   6.526 -0.0748  0.0662  0.5141
  166SAPE   H3R18692   4.750   5.436   6.608 -1.7584  1.0714 -0.4122
  166SAPE   H3S18693   4.857   5.332   6.495  0.1021  2.0697 -1.0277
  166SAPE   C2418694   4.686   5.246   6.597  0.2136  0.1015 -0.1579
  166SAPE   H4R18695   4.757   5.202   6.669  1.5456 -0.6063 -1.8328
  166SAPE   H4S18696   4.680   5.155   6.533 -1.1105 -1.3385  1.8882
  166SAPE   C2518697   4.549   5.268   6.668  0.4321  0.7279  0.0359
  166SAPE   H5R18698   4.459   5.254   6.606  0.0143 -0.3500  0.8662
  166SAPE   C2618699   4.537   5.269   6.805 -0.2296 -0.1452  0.5926
  166SAPE   H6R18700   4.441   5.288   6.854  0.3511  1.5456  1.1393
  166SAPE   C2718701   4.647   5.271   6.911  1.3333 -0.8085 -0.5719
  166SAPE   H7R18702   4.619   5.336   6.996 -0.5267 -2.0260 -0.2053
  166SAPE   H7S18703   4.740   5.325   6.884  0.8315  0.2775 -0.1644
  166SAPE   C2818704   4.678   5.133   6.963 -0.2723  0.7157 -0.9408
  166SAPE   H8R18705   4.743   5.074   6.897 -0.8232 -1.4532  0.3530
  166SAPE   C2918706   4.656   5.067   7.079  0.2233  0.4261  0.4108
  166SAPE   H9R18707   4.679   4.960   7.087 -2.1000 -0.3515 -1.9286
  166SAPE  C21018708   4.571   5.134   7.189  0.0932  0.8106 -0.2134
  166SAPE  H10R18709   4.531   5.053   7.253 -1.4739  0.8063 -1.1448
  166SAPE  H10S18710   4.484   5.189   7.146  0.0815  2.4023  1.7267
  166SAPE  C21118711   4.662   5.227   7.258  0.6926 -0.4488  0.6771
  166SAPE  H11R18712   4.736   5.278   7.195  0.5632  1.1565  1.7623
  166SAPE  C21218713   4.659   5.265   7.389 -0.0830 -0.2885 -0.1767
  166SAPE  H12R18714   4.738   5.326   7.436 -1.0976  0.4065  0.6550
  166SAPE  C21318715   4.542   5.207   7.478 -0.3287  0.3514 -0.9968
  166SAPE  H13R18716   4.450   5.177   7.423 -0.4459 -1.9118  0.2817
  166SAPE  H13S18717   4.505   5.290   7.541  0.1313 -1.2780  1.5680
  166SAPE  C21418718   4.594   5.080   7.557  0.6751 -0.2656  0.5222
  166SAPE  H14R18719   4.680   5.033   7.508  0.5763 -0.2272  0.3089
  166SAPE  C21518720   4.557   5.042   7.679 -0.8459  0.0766 -0.2840
  166SAPE  H15R18721   4.595   4.949   7.724 -3.5450 -1.7548 -1.5628
  166SAPE  C21618722   4.447   5.112   7.758  0.0087  0.4599 -0.0875
  166SAPE  H16R18723   4.389   5.040   7.820 -0.9623  1.0299 -0.3070
  166SAPE  H16S18724   4.378   5.168   7.691  0.2118 -0.0252 -0.7089
  166SAPE  C21718725   4.507   5.215   7.851  0.2239 -0.2995 -0.8909
  166SAPE  H17R18726   4.421   5.282   7.873  1.3585  1.2610 -1.0597
  166SAPE  H17S18727   4.588   5.277   7.808  1.3994  1.0455  2.8620
  166SAPE  C21818728   4.550   5.157   7.983  0.1364 -0.5981 -0.0164
  166SAPE  H18R18729   4.606   5.063   7.962 -0.3725 -0.7400 -0.8109
  166SAPE  H18S18730   4.463   5.125   8.044  0.5322  0.3227  1.0593
  166SAPE  C21918731   4.637   5.251   8.071  0.0672  0.2113  0.9389
  166SAPE  H19R18732   4.596   5.354   8.075 -1.0281  0.0112 -2.4146
  166SAPE  H19S18733   4.735   5.249   8.017 -0.8724 -0.7874 -0.8082
  166SAPE  C22018734   4.657   5.208   8.219 -0.1857  0.8725  0.6091
  166SAPE  H20R18735   4.557   5.214   8.267 -0.1763  0.1847  0.7233
  166SAPE  H20S18736   4.722   5.280   8.272  0.7002 -0.5648  1.5507
  166SAPE  H20T18737   4.709   5.110   8.229  0.9161  1.3453 -0.3206
  166SAPE   C3318738   4.370   5.570   6.954 -0.0487 -0.1273 -0.2424
  166SAPE   H3X18739   4.364   5.460   6.948 -0.9166 -0.0753 -0.4205
  166SAPE   H3Y18740   4.271   5.617   6.974 -0.0159  0.7251 -1.8519
  166SAPE   C3418741   4.462   5.597   7.069 -0.4400 -0.5400  0.1999
  166SAPE   H4X18742   4.466   5.707   7.074 -0.9339 -0.3637 -2.2275
  166SAPE   H4Y18743   4.566   5.561   7.054  0.0374  0.1473  1.6644
  166SAPE   C3518744   4.420   5.527   7.201 -0.4160 -0.1931 -0.4922
  166SAPE   H5X18745   4.507   5.552   7.264 -0.3215 -2.2173  0.2533
  166SAPE   H5Y18746   4.414   5.419   7.175  1.2861 -0.3584 -0.2623
  166SAPE   C3618747   4.293   5.573   7.274  0.0227  0.4049 -0.1297
  166SAPE   H6X18748   4.201   5.559   7.213  0.3127 -1.8195 -0.1423
  166SAPE   H6Y18749   4.313   5.681   7.286  0.8736  0.8022 -3.9683
  166SAPE   C3718750   4.271   5.496   7.400 -0.6359  0.1496  0.3560
  166SAPE   H7X18751   4.350   5.522   7.474  1.3561 -1.5993 -1.0269
  166SAPE   H7Y18752   4.277   5.387   7.378 -1.1992  0.4000 -1.1098
  166SAPE   C3818753   4.134   5.522   7.464 -0.4457  0.0686  0.8326
  166SAPE   H8X18754   4.054   5.459   7.419 -0.6617 -1.8227  3.6626
  166SAPE   H8Y18755   4.112   5.631   7.457 -0.1902  0.1074  0.6117
  166SAPE   C3918756   4.122   5.477   7.612  0.4671 -0.5540 -0.1430
  166SAPE   H9X18757   4.106   5.368   7.622 -0.1846 -0.4317  0.2405
  166SAPE   H9Y18758   4.031   5.528   7.651  0.8419 -0.1164  0.1696
  166SAPE  C31018759   4.228   5.530   7.702 -0.1977 -0.1005  0.0834
  166SAPE  H10X18760   4.258   5.633   7.677  0.4748  0.3047  2.3755
  166SAPE  H10Y18761   4.320   5.470   7.687 -1.8230 -2.4277 -1.3167
  166SAPE  C31118762   4.177   5.526   7.851  0.4002  0.2086  0.3138
  166SAPE  H11X18763   4.131   5.425   7.858  1.3873 -0.2923 -0.1421
  166SAPE  H11Y18764   4.095   5.598   7.870  0.8911  0.3940  1.8944
  166SAPE  C31218765   4.288   5.556   7.946 -0.0357  0.4187  0.0986
  166SAPE  H12X18766   4.318   5.662   7.932  0.2265  0.2595 -0.5869
  166SAPE  H12Y18767   4.382   5.500   7.929  2.5362  3.7612  2.1403
  166SAPE  C31318768   4.235   5.537   8.089 -0.2755  1.1013 -0.2002
  166SAPE  H13X18769   4.202   5.433   8.110 -0.4476  0.7225 -2.1123
  166SAPE  H13Y18770   4.138   5.590   8.098 -0.3000  1.3477 -1.6135
  166SAPE  C31418771   4.349   5.569   8.183 -0.2730 -0.9832  0.1434
  166SAPE  H14X18772   4.348   5.680   8.190 -0.8441 -0.9641 -0.1759
  166SAPE  H14Y18773   4.445   5.549   8.131 -0.6145 -1.7770 -0.2031
  166SAPE  C31518774   4.345   5.502   8.319 -0.4241 -0.0328  0.5183
  166SAPE  H15X18775   4.345   5.392   8.305  1.1221  0.0824 -0.6127
  166SAPE  H15Y18776   4.261   5.534   8.384 -0.5147 -0.2554  0.5127
  166SAPE  C31618777   4.477   5.524   8.400  0.1676 -1.3054 -0.1750
  166SAPE  H16X18778   4.493   5.631   8.425 -2.4701 -0.8015 -0.3757
  166SAPE  H16Y18779   4.566   5.485   8.347  0.1717 -0.1031 -1.0980
  166SAPE  C31718780   4.470   5.451   8.531 -0.7295 -0.6629 -0.7920
  166SAPE  H17X18781   4.456   5.343   8.513  2.0430 -0.9214 -1.9435
  166SAPE  H17Y18782   4.383   5.482   8.593  1.8633  1.3256  2.1709
  166SAPE  C31818783   4.597   5.464   8.616  0.3354 -0.0922 -0.3292
  166SAPE  H18X18784   4.620   5.569   8.643 -2.3702  0.1110  1.5786
  166SAPE  H18Y18785   4.681   5.418   8.561  0.2739 -0.0033 -0.4989
  166SAPE  H18Z18786   4.582   5.402   8.707  0.6026  1.4939  0.8433
  167SAPE     N18787   6.089   0.809   6.310 -0.7349  0.1619 -0.5231
  167SAPE   HN118788   6.066   0.765   6.402  0.9664  2.3185  1.0630
  167SAPE   HN218789   6.103   0.911   6.323 -0.9795 -0.0425  1.8367
  167SAPE   HN318790   6.002   0.800   6.253 -0.1290  0.7909 -1.5745
  167SAPE   C1218791   6.200   0.736   6.235  0.0237  0.0347 -0.0774
  167SAPE  H12A18792   6.301   0.761   6.274 -0.1998 -2.8945  2.7937
  167SAPE  H12B18793   6.178   0.773   6.132 -2.8712  0.2789  0.5196
  167SAPE   C1118794   6.183   0.591   6.256 -0.0320  0.5567  0.1285
  167SAPE  H11A18795   6.094   0.562   6.197 -1.0219 -0.7580  2.1518
  167SAPE  H11B18796   6.156   0.565   6.360  1.9012  1.8121  1.0178
  167SAPE     P18797   6.298   0.364   6.188 -0.3386 -0.0117  0.3164
  167SAPE   O1318798   6.202   0.344   6.081  0.0441  0.3583  0.1714
  167SAPE   O1418799   6.436   0.313   6.168  0.3143  0.4836  0.5805
  167SAPE   O1218800   6.302   0.522   6.212 -0.0145  0.2059 -0.4534
  167SAPE   O1118801   6.245   0.303   6.325 -0.2667  0.1293  0.2818
  167SAPE    C118802   6.300   0.336   6.451  0.6830 -0.8190  0.0893
  167SAPE    HA18803   6.310   0.447   6.456 -1.8509 -0.5871  3.0141
  167SAPE    HB18804   6.223   0.325   6.530  0.3941  1.3725  0.1873
  167SAPE    C218805   6.429   0.256   6.483 -0.4124 -0.2969  1.0538
  167SAPE    HS18806   6.485   0.245   6.387 -0.6739  1.1334  0.7223
  167SAPE   O2118807   6.393   0.133   6.537  0.2892  0.0963 -0.3086
  167SAPE   C2118808   6.329   0.043   6.461  0.1421 -0.1388 -0.7489
  167SAPE   O2218809   6.305   0.053   6.344 -0.6549 -0.1253 -0.0071
  167SAPE   C2218810   6.313  -0.082   6.550 -1.0684 -0.8867  0.5186
  167SAPE   H2R18811   6.338  -0.168   6.484  1.6020  1.3706 -1.6284
  167SAPE   H2S18812   6.378  -0.073   6.639 -0.7319  0.4365  0.1607
  167SAPE    C318813   6.521   0.333   6.582  0.7544  0.2160  0.2288
  167SAPE    HX18814   6.537   0.437   6.548  0.0997  0.0246 -0.7099
  167SAPE    HY18815   6.621   0.284   6.578  0.8583  0.4337  0.1767
  167SAPE   O3118816   6.468   0.321   6.721  0.3287  0.2394 -0.0796
  167SAPE   C3118817   6.562   0.361   6.808 -0.3695  0.3829 -0.3530
  167SAPE   O3218818   6.669   0.412   6.773 -0.2165  0.5645 -0.0443
  167SAPE   C3218819   6.513   0.319   6.948  0.4006 -0.0064  0.3436
  167SAPE   H2X18820   6.500   0.209   6.943 -0.2514  0.0355  0.9473
  167SAPE   H2Y18821   6.411   0.356   6.970 -0.3711 -0.1692 -2.5988
  167SAPE   C2318822   6.176  -0.098   6.616 -0.0796 -0.4296 -0.4912
  167SAPE   H3R18823   6.174  -0.188   6.681 -4.6856 -1.4982 -1.7736
  167SAPE   H3S18824   6.103  -0.117   6.535 -0.6444  3.2521 -1.0216
  167SAPE   C2418825   6.134   0.015   6.713  0.9312 -0.7495  0.3708
  167SAPE   H4R18826   6.039  -0.026   6.755 -0.3024  1.7477  0.2034
  167SAPE   H4S18827   6.111   0.108   6.658  1.3476 -0.3960  0.7947
  167SAPE   C2518828   6.223   0.046   6.828  0.6309  1.0383  0.6284
  167SAPE   H5R18829   6.294   0.128   6.808  0.8107  0.3038 -2.0944
  167SAPE   C2618830   6.209  -0.006   6.955  0.1319  0.5963  0.6200
  167SAPE   H6R18831   6.284   0.019   7.031 -0.8930  0.8109  1.5756
  167SAPE   C2718832   6.106  -0.093   7.018  0.0407  0.1979 -0.4725
  167SAPE   H7R18833   6.042  -0.137   6.939 -1.3758 -0.2744  0.8774
  167SAPE   H7S18834   6.042  -0.030   7.084  0.1531  0.5595 -0.7090
  167SAPE   C2818835   6.157  -0.205   7.097 -0.0573 -0.3828  0.0883
  167SAPE   H8R18836   6.264  -0.229   7.095 -0.5201 -2.6420 -0.8198
  167SAPE   C2918837   6.081  -0.280   7.180 -0.7246 -0.2921 -0.0070
  167SAPE   H9R18838   6.125  -0.367   7.232 -0.2384  0.2954  0.5902
  167SAPE  C21018839   5.936  -0.267   7.199 -0.2895  0.3814  0.0370
  167SAPE  H10R18840   5.888  -0.269   7.099 -0.5402 -2.6777  0.1292
  167SAPE  H10S18841   5.909  -0.166   7.238  1.9450 -0.0188  2.9666
  167SAPE  C21118842   5.869  -0.375   7.279 -0.3983  0.0761 -0.1061
  167SAPE  H11R18843   5.803  -0.444   7.225 -1.5513 -0.3998  1.8065
  167SAPE  C21218844   5.879  -0.386   7.420 -0.5984 -0.1430 -0.7182
  167SAPE  H12R18845   5.840  -0.475   7.471  0.1531  0.7882  1.6400
  167SAPE  C21318846   5.955  -0.288   7.513  0.0636  0.0035  0.7681
  167SAPE  H13R18847   5.964  -0.197   7.449 -0.8808  0.8832  1.8560
  167SAPE  H13S18848   6.065  -0.302   7.519  0.5435  1.7382 -2.0119
  167SAPE  C21418849   5.904  -0.254   7.652 -0.2635 -0.5392  0.0289
  167SAPE  H14R18850   5.929  -0.325   7.732 -0.4340  1.4771  1.9575
  167SAPE  C21518851   5.827  -0.145   7.677 -0.1103 -0.3762  0.1872
  167SAPE  H15R18852   5.788  -0.117   7.776 -0.0585  0.3491  0.0065
  167SAPE  C21618853   5.796  -0.038   7.566 -0.0255  0.1992  0.0284
  167SAPE  H16R18854   5.702  -0.064   7.513 -0.0791  1.1560 -0.3636
  167SAPE  H16S18855   5.871  -0.020   7.487  0.7501  1.1337  0.9322
  167SAPE  C21718856   5.783   0.105   7.633 -0.0810  1.1931 -0.5751
  167SAPE  H17R18857   5.874   0.153   7.675  0.0512  1.5667 -1.2813
  167SAPE  H17S18858   5.705   0.096   7.712 -1.3509 -1.1183 -1.9834
  167SAPE  C21818859   5.717   0.205   7.531 -0.0210 -0.3519 -0.3523
  167SAPE  H18R18860   5.636   0.156   7.474  0.7431 -0.8057 -1.0752
  167SAPE  H18S18861   5.790   0.230   7.451  1.7823  0.0731  1.3485
  167SAPE  C21918862   5.663   0.336   7.589  0.4650  0.0933 -0.3106
  167SAPE  H19R18863   5.582   0.313   7.662  1.2270 -0.5660  0.3513
  167SAPE  H19S18864   5.622   0.397   7.506  1.1736  0.9048 -0.0765
  167SAPE  C22018865   5.766   0.429   7.655  0.2682  0.7733  0.2036
  167SAPE  H20R18866   5.804   0.382   7.748 -1.4840  0.3225  0.7286
  167SAPE  H20S18867   5.708   0.520   7.684  0.7450  1.1969 -0.1583
  167SAPE  H20T18868   5.857   0.451   7.596 -0.6788 -0.0545 -1.6545
  167SAPE   C3318869   6.616   0.342   7.057 -1.0126 -0.1773  0.0422
  167SAPE   H3X18870   6.644   0.450   7.060  0.4844 -0.4797 -1.4726
  167SAPE   H3Y18871   6.711   0.291   7.030 -0.0258  1.0325  1.0637
  167SAPE   C3418872   6.548   0.311   7.192  0.5074 -0.2658  0.7303
  167SAPE   H4X18873   6.521   0.204   7.190 -0.6198  0.0163 -0.3222
  167SAPE   H4Y18874   6.453   0.368   7.201  0.7434  0.4168 -0.7706
  167SAPE   C3518875   6.640   0.343   7.304  0.3875 -0.4598  0.3979
  167SAPE   H5X18876   6.653   0.453   7.315 -0.6319 -0.1737 -1.0088
  167SAPE   H5Y18877   6.736   0.291   7.280  0.0452 -0.4360 -1.1143
  167SAPE   C3618878   6.588   0.289   7.437  0.1382 -0.0868  0.8823
  167SAPE   H6X18879   6.579   0.178   7.429  1.6396 -0.1967  0.5441
  167SAPE   H6Y18880   6.489   0.338   7.453 -0.1868 -0.2801 -0.3987
  167SAPE   C3718881   6.679   0.328   7.551 -0.1497 -0.0502 -0.0440
  167SAPE   H7X18882   6.727   0.429   7.550  0.4153 -0.3113  0.1915
  167SAPE   H7Y18883   6.771   0.266   7.559  0.1076  0.5244  2.9246
  167SAPE   C3818884   6.605   0.305   7.684 -0.5624  0.0776  0.4519
  167SAPE   H8X18885   6.542   0.214   7.670 -1.4254  0.8323 -0.7904
  167SAPE   H8Y18886   6.532   0.386   7.704 -1.6991 -0.3394 -1.6950
  167SAPE   C3918887   6.705   0.287   7.802 -0.3550 -0.5948 -0.1133
  167SAPE   H9X18888   6.739   0.390   7.827  0.1576 -0.2737 -1.9626
  167SAPE   H9Y18889   6.786   0.214   7.778  0.7980  0.7949 -0.6507
  167SAPE  C31018890   6.637   0.230   7.931 -0.1571  0.3742  0.5383
  167SAPE  H10X18891   6.635   0.120   7.919 -1.1011  0.3487  0.8278
  167SAPE  H10Y18892   6.531   0.265   7.930 -0.5626 -0.7784 -1.2778
  167SAPE  C31118893   6.718   0.258   8.057  0.3213  0.1258  0.3408
  167SAPE  H11X18894   6.721   0.367   8.075  0.1282  0.0687  0.7419
  167SAPE  H11Y18895   6.818   0.217   8.033  0.3769  1.7745 -2.7256
  167SAPE  C31218896   6.659   0.183   8.172  0.2316 -0.4721 -0.6291
  167SAPE  H12X18897   6.661   0.073   8.161  0.6925 -0.3955 -1.3456
  167SAPE  H12Y18898   6.556   0.211   8.203 -0.5608  1.0731 -4.1864
  167SAPE  C31318899   6.741   0.207   8.301  0.1354 -0.6321 -0.1005
  167SAPE  H13X18900   6.746   0.314   8.329  1.3463 -0.5552 -0.5483
  167SAPE  H13Y18901   6.846   0.179   8.278  0.4411 -1.2048  1.8168
  167SAPE  C31418902   6.700   0.121   8.418 -0.2283  0.7746  0.4746
  167SAPE  H14X18903   6.765   0.147   8.504  0.6256  0.8020 -0.1686
  167SAPE  H14Y18904   6.738   0.019   8.396  1.7874  1.6619 -0.4729
  167SAPE  C31518905   6.549   0.113   8.459 -0.1241 -0.2251  0.5268
  167SAPE  H15X18906   6.551   0.026   8.527 -0.8334 -1.5084 -1.0364
  167SAPE  H15Y18907   6.489   0.094   8.368  0.2718 -0.7468  0.3672
  167SAPE  C31618908   6.498   0.243   8.534 -0.2488 -0.5602  0.0320
  167SAPE  H16X18909   6.585   0.310   8.550  0.1948 -1.1010 -0.0867
  167SAPE  H16Y18910   6.457   0.207   8.631  1.6514  0.0240  1.1031
  167SAPE  C31718911   6.400   0.330   8.458  0.3709 -0.0504 -0.1479
  167SAPE  H17X18912   6.431   0.323   8.351 -1.0571  0.9445 -0.6486
  167SAPE  H17Y18913   6.409   0.430   8.506  1.9908 -0.3831  0.3082
  167SAPE  C31818914   6.258   0.278   8.470  0.2431  0.1571 -0.6096
  167SAPE  H18X18915   6.187   0.346   8.419  0.8412  1.4436  0.2158
  167SAPE  H18Y18916   6.244   0.273   8.580  1.2975 -1.4181 -0.5180
  167SAPE  H18Z18917   6.243   0.180   8.420 -3.8908 -0.2925  1.1460
  168SAPE     N18918   4.368   1.563   6.026 -0.3282  0.2120 -0.4173
  168SAPE   HN118919   4.379   1.462   6.047  2.5158  0.2026 -1.5387
  168SAPE   HN218920   4.279   1.569   5.973 -0.7962 -0.2321  0.3089
  168SAPE   HN318921   4.440   1.582   5.953  0.2177 -0.9060 -0.1952
  168SAPE   C1218922   4.368   1.662   6.146 -0.0167  0.4814  0.0728
  168SAPE  H12A18923   4.298   1.619   6.220 -0.0737 -0.7060 -0.6430
  168SAPE  H12B18924   4.324   1.757   6.108 -3.3910 -0.7026  0.7432
  168SAPE   C1118925   4.507   1.679   6.211  0.3568  0.3231  0.1047
  168SAPE  H11A18926   4.534   1.582   6.258 -2.3533 -0.9324 -0.7870
  168SAPE  H11B18927   4.511   1.752   6.295 -0.7283 -0.9693  1.3361
  168SAPE     P18928   4.651   1.862   6.092 -0.1116  0.5912  0.1785
  168SAPE   O1318929   4.761   1.862   5.987  0.3194  0.7580  0.0972
  168SAPE   O1418930   4.528   1.941   6.080 -0.5912  0.2331 -0.0449
  168SAPE   O1218931   4.609   1.709   6.111  0.1127 -0.2341  0.3145
  168SAPE   O1118932   4.720   1.893   6.236 -0.2886  0.6334  0.4067
  168SAPE    C118933   4.854   1.853   6.263 -0.3961  0.0888 -0.4984
  168SAPE    HA18934   4.881   1.751   6.230  0.2026 -0.6586  2.0841
  168SAPE    HB18935   4.925   1.926   6.218 -0.4939  0.9906  0.7454
  168SAPE    C218936   4.879   1.837   6.413  0.6491 -0.9439  0.1528
  168SAPE    HS18937   4.976   1.787   6.434  0.3759 -0.8378  1.8418
  168SAPE   O2118938   4.773   1.751   6.468 -0.3480 -0.3695  0.3297
  168SAPE   C2118939   4.797   1.620   6.479  0.2274 -0.8071  0.2461
  168SAPE   O2218940   4.905   1.566   6.466  0.7827 -0.5436  0.3501
  168SAPE   C2218941   4.669   1.549   6.527 -0.2551 -0.5520 -0.3449
  168SAPE   H2R18942   4.595   1.626   6.560  0.8903 -0.6113  2.7008
  168SAPE   H2S18943   4.624   1.493   6.443  0.1287 -0.5141 -0.5778
  168SAPE    C318944   4.871   1.969   6.485  0.7309  0.8019 -0.8662
  168SAPE    HX18945   4.774   2.022   6.476  0.5291  0.3744 -1.2232
  168SAPE    HY18946   4.943   2.044   6.447  1.2998  0.8498  0.2383
  168SAPE   O3118947   4.910   1.958   6.626  0.0686 -0.2187  0.0334
  168SAPE   C3118948   4.811   1.963   6.721 -0.3504  0.6273 -0.0743
  168SAPE   O3218949   4.689   1.973   6.696 -0.0072 -0.1522  0.1204
  168SAPE   C3218950   4.867   1.934   6.859  0.9672 -0.3841  0.0596
  168SAPE   H2X18951   4.975   1.963   6.860  0.4455  1.7800  0.1989
  168SAPE   H2Y18952   4.862   1.824   6.862  1.2927 -0.3869  1.3360
  168SAPE   C2318953   4.697   1.458   6.646  0.3045  0.3442  0.2837
  168SAPE   H3R18954   4.775   1.382   6.626 -0.9803 -0.5240 -1.5870
  168SAPE   H3S18955   4.600   1.409   6.667  0.0509 -0.4331 -2.3476
  168SAPE   C2418956   4.739   1.541   6.772  0.3823  0.9357  0.5587
  168SAPE   H4R18957   4.838   1.588   6.755  1.4187 -1.5225 -0.7220
  168SAPE   H4S18958   4.758   1.456   6.841  3.9772 -1.3261 -2.8233
  168SAPE   C2518959   4.641   1.646   6.819 -0.3383  0.8971  0.0078
  168SAPE   H5R18960   4.622   1.727   6.746  2.1452  1.8800  0.3429
  168SAPE   C2618961   4.594   1.659   6.940 -0.0692  0.1610 -0.3734
  168SAPE   H6R18962   4.536   1.749   6.967  0.3452  0.2633  0.2191
  168SAPE   C2718963   4.620   1.572   7.064 -0.0262 -0.0280  0.6755
  168SAPE   H7R18964   4.711   1.604   7.119 -0.0299 -1.6130  1.6724
  168SAPE   H7S18965   4.656   1.469   7.041 -0.0533  0.1803 -0.3530
  168SAPE   C2818966   4.502   1.578   7.153  0.2187 -0.0609 -0.0924
  168SAPE   H8R18967   4.432   1.494   7.136  0.2836  0.1083 -1.2678
  168SAPE   C2918968   4.462   1.671   7.242 -0.2120 -0.3368  0.3722
  168SAPE   H9R18969   4.361   1.655   7.283 -0.4203 -0.4621 -0.1851
  168SAPE  C21018970   4.543   1.795   7.283  0.2973 -0.5088  0.0193
  168SAPE  H10R18971   4.542   1.862   7.194  0.3808 -0.6828 -0.1150
  168SAPE  H10S18972   4.651   1.778   7.307  0.9215  2.8718  0.0968
  168SAPE  C21118973   4.491   1.876   7.403 -0.8060  0.3706 -0.1396
  168SAPE  H11R18974   4.423   1.959   7.376 -1.7112 -0.3255 -0.0190
  168SAPE  C21218975   4.492   1.843   7.533 -0.3254 -0.5515 -0.0035
  168SAPE  H12R18976   4.445   1.902   7.613  1.7288 -0.7133  1.3946
  168SAPE  C21318977   4.554   1.715   7.582  0.0472  0.4046  0.4838
  168SAPE  H13R18978   4.597   1.653   7.502  0.2324  0.7731  0.2964
  168SAPE  H13S18979   4.473   1.648   7.617 -2.7641  3.1890 -0.2316
  168SAPE  C21418980   4.656   1.725   7.697 -0.0894 -0.2328  0.2757
  168SAPE  H14R18981   4.762   1.707   7.672 -0.6589 -1.5373 -1.3877
  168SAPE  C21518982   4.640   1.755   7.826  0.2260 -0.3690  0.0614
  168SAPE  H15R18983   4.729   1.771   7.889  0.3427 -0.0129 -0.1910
  168SAPE  C21618984   4.506   1.785   7.885  0.4165  0.0076  0.2626
  168SAPE  H16R18985   4.430   1.709   7.856 -0.5187  0.0579  2.4062
  168SAPE  H16S18986   4.479   1.882   7.838 -1.8754 -1.1162 -0.8977
  168SAPE  C21718987   4.496   1.799   8.031  0.0624  0.2449 -0.0481
  168SAPE  H17R18988   4.534   1.700   8.067 -1.3391 -0.3204 -0.0720
  168SAPE  H17S18989   4.399   1.810   8.084  0.9266  2.1765  1.2325
  168SAPE  C21818990   4.584   1.913   8.086 -0.0594  0.2088  1.1087
  168SAPE  H18R18991   4.535   2.012   8.083  0.4945  0.5025  1.5154
  168SAPE  H18S18992   4.681   1.923   8.032 -0.2750 -1.5567  0.2987
  168SAPE  C21918993   4.619   1.880   8.232  0.1694 -0.2284  0.2962
  168SAPE  H19R18994   4.689   1.794   8.230  0.2872 -0.1260 -1.3819
  168SAPE  H19S18995   4.531   1.870   8.300 -0.1611  0.2906 -0.0421
  168SAPE  C22018996   4.715   1.991   8.291  0.6807 -0.1468  0.1389
  168SAPE  H20R18997   4.726   1.990   8.402  1.6988  1.7795  0.0986
  168SAPE  H20S18998   4.671   2.092   8.273 -0.4960 -0.9541 -1.7428
  168SAPE  H20T18999   4.818   1.985   8.250  0.8092  0.6614  0.3161
  168SAPE   C3319000   4.798   2.008   6.974  0.2843  0.1513  0.4520
  168SAPE   H3X19001   4.691   1.977   6.969  0.4133 -0.2975  0.4473
  168SAPE   H3Y19002   4.807   2.117   6.955  1.6161 -0.0728 -0.3264
  168SAPE   C3419003   4.843   1.982   7.121  0.2147 -0.2810  0.4235
  168SAPE   H4X19004   4.953   1.993   7.131  0.2534  0.2662 -0.5017
  168SAPE   H4Y19005   4.818   1.882   7.161 -2.5735  0.7068  1.3959
  168SAPE   C3519006   4.782   2.085   7.210 -0.5595 -0.0249  0.3126
  168SAPE   H5X19007   4.671   2.082   7.208 -0.5710  0.5383 -0.5985
  168SAPE   H5Y19008   4.813   2.183   7.169 -0.8555 -0.4910 -1.0958
  168SAPE   C3619009   4.832   2.061   7.356  0.1502 -0.4595  0.2898
  168SAPE   H6X19010   4.942   2.054   7.359  0.0971 -1.0562  1.1378
  168SAPE   H6Y19011   4.788   1.967   7.396 -1.2960 -0.7339 -1.7384
  168SAPE   C3719012   4.802   2.175   7.453  0.0901  0.0392  0.2217
  168SAPE   H7X19013   4.694   2.202   7.457  0.6083  2.9012 -1.9325
  168SAPE   H7Y19014   4.857   2.263   7.412 -3.0102  0.8798 -2.6295
  168SAPE   C3819015   4.846   2.155   7.594  0.5978  0.6853 -0.6259
  168SAPE   H8X19016   4.865   2.257   7.633  1.5062  0.6718 -1.0089
  168SAPE   H8Y19017   4.943   2.100   7.584  0.3784  0.3706 -1.0950
  168SAPE   C3919018   4.750   2.091   7.695 -0.0183 -0.7789  0.4083
  168SAPE   H9X19019   4.736   1.982   7.676 -0.7468 -0.7249  0.6304
  168SAPE   H9Y19020   4.647   2.128   7.680  0.1167 -0.3451  0.5590
  168SAPE  C31019021   4.806   2.096   7.832 -0.0982  0.2298 -0.7451
  168SAPE  H10X19022   4.726   2.066   7.903  0.1097  0.5384 -0.3750
  168SAPE  H10Y19023   4.838   2.200   7.854 -0.4433  0.2370 -0.2673
  168SAPE  C31119024   4.930   1.999   7.856  0.1595 -0.0379  0.3881
  168SAPE  H11X19025   5.009   2.021   7.781  0.6454  0.7961  1.1142
  168SAPE  H11Y19026   4.896   1.894   7.844 -1.8986  0.7385 -1.2556
  168SAPE  C31219027   4.990   2.020   7.991  0.5770 -0.7952  0.0484
  168SAPE  H12X19028   4.916   1.994   8.071  0.7269 -1.5238 -0.0396
  168SAPE  H12Y19029   5.015   2.127   8.001 -1.0867 -0.3356 -0.4379
  168SAPE  C31319030   5.116   1.935   8.007  0.2151  0.3025  0.5484
  168SAPE  H13X19031   5.190   1.947   7.925 -0.4956 -0.1511 -0.1792
  168SAPE  H13Y19032   5.089   1.827   8.006 -0.2396  0.4137  0.5799
  168SAPE  C31419033   5.177   1.967   8.140 -0.1869 -0.4510 -0.4068
  168SAPE  H14X19034   5.097   1.962   8.218 -0.4677  1.3136 -0.5377
  168SAPE  H14Y19035   5.217   2.071   8.139  1.1520 -0.7860  3.0177
  168SAPE  C31519036   5.287   1.871   8.182  0.6342  0.7912 -0.5699
  168SAPE  H15X19037   5.364   1.854   8.103  1.7289 -0.1336  0.6639
  168SAPE  H15Y19038   5.239   1.772   8.195 -0.0431  1.3387  1.2970
  168SAPE  C31619039   5.369   1.905   8.311 -0.3005 -0.3600  0.4462
  168SAPE  H16X19040   5.350   2.008   8.347  1.1827  0.1154 -0.0802
  168SAPE  H16Y19041   5.477   1.914   8.285 -0.4856  1.4518  0.2047
  168SAPE  C31719042   5.356   1.796   8.426 -0.2181  0.3771  0.6131
  168SAPE  H17X19043   5.363   1.693   8.384 -1.9346  0.8224 -0.8822
  168SAPE  H17Y19044   5.254   1.802   8.470 -0.4806  2.8592 -0.2061
  168SAPE  C31819045   5.466   1.816   8.534  0.5092 -0.1349  0.2130
  168SAPE  H18X19046   5.559   1.814   8.474  0.6743  0.9276  0.4034
  168SAPE  H18Y19047   5.462   1.742   8.616  1.3242 -0.2809  0.1277
  168SAPE  H18Z19048   5.459   1.913   8.589  1.3959  0.0957 -0.0736
  169SAPE     N19049   2.255   3.212   6.198  0.1996 -0.0920 -0.4083
  169SAPE   HN119050   2.200   3.287   6.152  1.9459  1.9039  0.5918
  169SAPE   HN219051   2.261   3.131   6.133  0.8254  0.1713 -0.6869
  169SAPE   HN319052   2.199   3.178   6.280  0.1994  0.5904 -0.1200
  169SAPE   C1219053   2.387   3.258   6.251  0.1621  0.4627  0.5302
  169SAPE  H12A19054   2.440   3.307   6.166 -0.0321  1.0471  0.7373
  169SAPE  H12B19055   2.447   3.169   6.280  2.0739  2.0721  1.7699
  169SAPE   C1119056   2.381   3.359   6.366 -0.3655  0.3745 -0.2751
  169SAPE  H11A19057   2.484   3.399   6.371 -0.5592  0.8368  0.1853
  169SAPE  H11B19058   2.366   3.318   6.469 -0.3645  1.5423  0.2099
  169SAPE     P19059   2.165   3.496   6.396  0.0978 -0.6900  0.0435
  169SAPE   O1319060   2.083   3.534   6.276  0.4409 -0.2482  0.5814
  169SAPE   O1419061   2.117   3.379   6.474 -0.5999  0.2552 -0.0787
  169SAPE   O1219062   2.305   3.473   6.330 -0.0999  0.5206  0.0481
  169SAPE   O1119063   2.196   3.616   6.490 -0.3078  0.2854  0.4605
  169SAPE    C119064   2.302   3.608   6.583 -0.7115 -0.0431 -0.2220
  169SAPE    HA19065   2.386   3.542   6.554 -1.4102 -1.1060  0.1057
  169SAPE    HB19066   2.348   3.709   6.592  0.7155 -0.4017 -2.6349
  169SAPE    C219067   2.250   3.571   6.726  0.7404  0.4020 -0.2596
  169SAPE    HS19068   2.246   3.460   6.726 -0.5863  0.4304 -0.9160
  169SAPE   O2119069   2.113   3.614   6.750 -0.2169  0.6349  0.1281
  169SAPE   C2119070   2.064   3.541   6.859  0.9436 -0.7000 -1.1134
  169SAPE   O2219071   2.101   3.432   6.898  0.2799  0.1585  0.0360
  169SAPE   C2219072   1.937   3.620   6.913 -0.3764  0.2147  0.7488
  169SAPE   H2R19073   1.974   3.725   6.913  1.9806 -0.5274 -0.4192
  169SAPE   H2S19074   1.856   3.611   6.838  1.8466 -0.9536 -1.6906
  169SAPE    C319075   2.346   3.626   6.841 -0.7724 -0.0480 -0.1710
  169SAPE    HX19076   2.334   3.736   6.846 -2.3880 -0.1706 -0.7383
  169SAPE    HY19077   2.453   3.610   6.818 -0.9418  1.0238 -1.8445
  169SAPE   O3119078   2.315   3.565   6.971  0.6130 -0.2569  0.0190
  169SAPE   C3119079   2.374   3.452   6.996  0.4077  1.0418 -0.2721
  169SAPE   O3219080   2.468   3.401   6.934  0.3055 -0.1708  0.6847
  169SAPE   C3219081   2.311   3.387   7.131 -0.5473  0.5508 -0.4361
  169SAPE   H2X19082   2.212   3.435   7.146 -1.2199 -1.3208  1.5367
  169SAPE   H2Y19083   2.380   3.425   7.209 -2.2471  1.5105  0.6542
  169SAPE   C2319084   1.888   3.580   7.056 -0.4547 -0.0249  0.9290
  169SAPE   H3R19085   1.904   3.470   7.064  1.5149 -0.0013 -1.6165
  169SAPE   H3S19086   1.778   3.595   7.063 -0.3266  1.3000  0.3275
  169SAPE   C2419087   1.941   3.671   7.164 -0.2841 -0.0014  0.1126
  169SAPE   H4R19088   1.908   3.777   7.152 -4.4003 -1.1149  0.0333
  169SAPE   H4S19089   2.051   3.663   7.158 -0.1873  0.6483  0.8201
  169SAPE   C2519090   1.895   3.623   7.300  0.1426  0.3320  0.5800
  169SAPE   H5R19091   1.870   3.516   7.294 -0.9254  0.6553 -1.5010
  169SAPE   C2619092   1.876   3.697   7.414 -0.1429  0.5895  0.2461
  169SAPE   H6R19093   1.842   3.642   7.503  3.0416 -3.2027 -0.6100
  169SAPE   C2719094   1.875   3.844   7.421 -1.1133  0.3061 -0.0986
  169SAPE   H7R19095   1.796   3.873   7.494 -1.2539 -2.1440  0.8159
  169SAPE   H7S19096   1.852   3.895   7.324 -4.5417  2.4691  1.6336
  169SAPE   C2819097   2.019   3.878   7.459 -0.5121  0.3632 -0.3046
  169SAPE   H8R19098   2.105   3.818   7.425 -0.4259 -1.1785  2.3742
  169SAPE   C2919099   2.049   3.977   7.543 -0.2120  0.0404 -0.5569
  169SAPE   H9R19100   2.153   4.011   7.553  0.0336  0.2360 -3.2219
  169SAPE  C21019101   1.935   4.066   7.596 -0.7286 -0.3687  0.1762
  169SAPE  H10R19102   1.911   4.018   7.694  0.0583 -1.7031 -0.2456
  169SAPE  H10S19103   1.848   4.059   7.528  0.6730 -3.0117 -1.5332
  169SAPE  C21119104   1.974   4.210   7.607  0.1542 -0.1450 -0.8483
  169SAPE  H11R19105   1.986   4.258   7.508 -0.0436  0.2671 -0.6768
  169SAPE  C21219106   1.985   4.281   7.720  0.6333  0.0763 -1.3528
  169SAPE  H12R19107   1.999   4.389   7.704  4.0440 -0.2053 -1.0043
  169SAPE  C21319108   1.954   4.229   7.855 -0.1238  0.1011  0.5822
  169SAPE  H13R19109   1.973   4.119   7.855 -2.1207 -0.3319 -2.2659
  169SAPE  H13S19110   1.848   4.257   7.874 -0.3964 -0.4964 -0.0332
  169SAPE  C21419111   2.029   4.314   7.964  0.2802  0.3953  0.0947
  169SAPE  H14R19112   2.129   4.349   7.934 -0.4629  2.3279 -0.2999
  169SAPE  C21519113   1.979   4.338   8.085 -0.8491  0.1251  0.3559
  169SAPE  H15R19114   2.045   4.389   8.157  0.5189 -1.7658  0.5136
  169SAPE  C21619115   1.848   4.285   8.139  0.1426  0.1233 -0.4304
  169SAPE  H16R19116   1.776   4.251   8.060  1.4462 -0.5891 -1.3502
  169SAPE  H16S19117   1.791   4.355   8.204  0.3292 -0.0716 -0.0560
  169SAPE  C21719118   1.867   4.158   8.222 -0.4914  0.2494 -0.6371
  169SAPE  H17R19119   1.912   4.195   8.316 -0.3297 -3.1498  0.7809
  169SAPE  H17S19120   1.944   4.106   8.162 -1.0104 -1.5479  0.1806
  169SAPE  C21819121   1.740   4.078   8.245  0.0704 -0.0916  0.3143
  169SAPE  H18R19122   1.766   3.975   8.275  1.1090  0.7223  2.4356
  169SAPE  H18S19123   1.675   4.072   8.155  0.6172  0.6863 -0.1457
  169SAPE  C21919124   1.656   4.134   8.359  0.5656  0.0704 -0.7670
  169SAPE  H19R19125   1.611   4.232   8.331 -0.0718 -0.1561 -0.5483
  169SAPE  H19S19126   1.737   4.146   8.434 -0.8629  1.1086  0.7017
  169SAPE  C22019127   1.537   4.044   8.396 -0.4993 -0.1737  0.3559
  169SAPE  H20R19128   1.568   3.947   8.440 -2.7626 -1.7020 -1.2382
  169SAPE  H20S19129   1.482   4.032   8.301  0.8061  0.5575 -0.5245
  169SAPE  H20T19130   1.474   4.103   8.467 -1.6689  0.0091 -0.7997
  169SAPE   C3319131   2.307   3.230   7.109  0.2717 -0.6226 -0.2822
  169SAPE   H3X19132   2.408   3.200   7.073  1.4285  1.6463  0.9131
  169SAPE   H3Y19133   2.246   3.212   7.017 -0.8349 -1.8985  0.6505
  169SAPE   C3419134   2.262   3.156   7.233 -0.2617  0.5111 -0.7354
  169SAPE   H4X19135   2.339   3.078   7.247  0.4334  0.9368 -2.0841
  169SAPE   H4Y19136   2.163   3.104   7.234  0.0849 -0.2226 -2.0338
  169SAPE   C3519137   2.258   3.239   7.372  0.3253  0.6768 -0.0326
  169SAPE   H5X19138   2.157   3.286   7.375  1.4192  3.5448 -2.3513
  169SAPE   H5Y19139   2.338   3.316   7.371 -0.9709  2.0881 -1.8344
  169SAPE   C3619140   2.273   3.139   7.492 -0.5895 -0.3956 -0.6919
  169SAPE   H6X19141   2.365   3.079   7.477 -0.9450 -0.8032 -1.2875
  169SAPE   H6Y19142   2.193   3.063   7.504  0.5201 -1.5843 -0.5496
  169SAPE   C3719143   2.290   3.213   7.629  0.3462 -0.3500  0.0107
  169SAPE   H7X19144   2.350   3.306   7.633  1.8454 -1.2932  0.0707
  169SAPE   H7Y19145   2.348   3.146   7.696 -1.4314 -1.5912  0.3936
  169SAPE   C3819146   2.156   3.228   7.704  0.6357 -0.0055  0.2108
  169SAPE   H8X19147   2.107   3.130   7.682 -0.1567  0.4071  0.0735
  169SAPE   H8Y19148   2.086   3.305   7.666 -0.3356 -0.1072  1.6824
  169SAPE   C3919149   2.167   3.232   7.856  0.4790 -0.7381 -0.6079
  169SAPE   H9X19150   2.234   3.319   7.871 -1.1950  0.4278  0.5382
  169SAPE   H9Y19151   2.205   3.135   7.893 -0.7453 -0.8310  0.5117
  169SAPE  C31019152   2.036   3.282   7.918  0.6191  1.1583 -0.5602
  169SAPE  H10X19153   2.007   3.380   7.874  0.4032  2.0081  1.3564
  169SAPE  H10Y19154   2.058   3.304   8.025  0.3096 -0.8993 -0.0403
  169SAPE  C31119155   1.929   3.171   7.921 -0.5546 -0.0885 -0.1624
  169SAPE  H11X19156   1.983   3.084   7.963  0.3362  0.7465  0.4735
  169SAPE  H11Y19157   1.900   3.159   7.814 -0.0486  2.9034 -0.7273
  169SAPE  C31219158   1.801   3.215   8.003  0.2855  1.2748 -0.2662
  169SAPE  H12X19159   1.708   3.163   7.973  0.0138  0.4345  1.8385
  169SAPE  H12Y19160   1.789   3.323   7.979 -0.0858  1.2914 -0.0199
  169SAPE  C31319161   1.791   3.193   8.158  0.2057 -0.9566  0.5808
  169SAPE  H13X19162   1.694   3.238   8.189 -0.1166 -0.0656 -1.5358
  169SAPE  H13Y19163   1.878   3.254   8.191  0.8927 -1.6732  0.1211
  169SAPE  C31419164   1.795   3.050   8.207 -0.4519  0.2374 -0.8076
  169SAPE  H14X19165   1.885   2.993   8.176 -1.6023 -1.6064 -0.9134
  169SAPE  H14Y19166   1.718   2.990   8.153  0.3823 -0.2748 -1.4635
  169SAPE  C31519167   1.792   3.037   8.359  0.2909 -0.6981 -0.1161
  169SAPE  H15X19168   1.753   2.933   8.361 -1.4669 -0.2536 -3.7032
  169SAPE  H15Y19169   1.720   3.112   8.396  1.6397  0.8696 -0.5314
  169SAPE  C31619170   1.928   3.050   8.423 -0.5358 -0.5051  0.0016
  169SAPE  H16X19171   1.979   3.148   8.416  1.3969 -1.4626 -0.0712
  169SAPE  H16Y19172   2.001   2.988   8.368 -0.2734 -0.4060  0.2352
  169SAPE  C31719173   1.925   3.011   8.572 -0.3448  0.5308 -0.2050
  169SAPE  H17X19174   1.889   2.906   8.577  0.8957  0.1099  0.2442
  169SAPE  H17Y19175   1.858   3.084   8.624  0.9621  1.4608  0.2184
  169SAPE  C31819176   2.062   3.023   8.637  0.1145 -0.1382  0.2715
  169SAPE  H18X19177   2.108   3.124   8.634 -0.2843  0.0860  1.2587
  169SAPE  H18Y19178   2.130   2.947   8.593 -0.3678 -0.6121  0.3219
  169SAPE  H18Z19179   2.059   2.989   8.742 -1.0726  2.6501  1.2237
  170SAPE     N19180   1.334   1.528   6.386  0.4626 -0.4902 -0.3472
  170SAPE   HN119181   1.427   1.516   6.430  0.7340  2.1345 -0.0794
  170SAPE   HN219182   1.321   1.631   6.394 -1.1908 -0.2442 -3.8031
  170SAPE   HN319183   1.252   1.491   6.439  0.9770 -2.2444 -0.7043
  170SAPE   C1219184   1.331   1.473   6.242  0.2273 -0.3730 -0.0349
  170SAPE  H12A19185   1.391   1.380   6.250  0.0966 -0.4444  0.1033
  170SAPE  H12B19186   1.376   1.549   6.174  0.3322  0.3657  0.8339
  170SAPE   C1119187   1.187   1.450   6.192 -0.2159 -0.4357 -0.0155
  170SAPE  H11A19188   1.198   1.418   6.087 -0.4771  2.0380 -0.8489
  170SAPE  H11B19189   1.138   1.550   6.188  0.3176 -0.0051  2.4950
  170SAPE     P19190   0.955   1.367   6.271 -0.2980  0.2031 -0.0355
  170SAPE   O1319191   0.897   1.442   6.158 -0.4792 -0.1905 -0.8590
  170SAPE   O1419192   0.904   1.233   6.292 -0.2326  1.0939 -0.9250
  170SAPE   O1219193   1.111   1.361   6.277 -0.5086 -0.1640  0.1819
  170SAPE   O1119194   0.914   1.445   6.398  0.6655  0.5365 -0.2057
  170SAPE    C119195   0.790   1.511   6.420  0.6539 -0.6062  0.2605
  170SAPE    HA19196   0.818   1.618   6.432 -1.4370 -0.0210  0.1855
  170SAPE    HB19197   0.714   1.496   6.341 -0.5252  1.4870  0.9311
  170SAPE    C219198   0.737   1.463   6.558  0.3698  0.8403  0.2358
  170SAPE    HS19199   0.636   1.508   6.570  0.0357  0.4133 -0.8079
  170SAPE   O2119200   0.823   1.492   6.673  0.1218 -0.7313  0.1607
  170SAPE   C2119201   0.767   1.552   6.773  0.6311 -0.9998 -0.1860
  170SAPE   O2219202   0.663   1.614   6.757  0.1017 -0.1042 -0.3971
  170SAPE   C2219203   0.843   1.532   6.905  0.2456 -0.4061 -0.0051
  170SAPE   H2R19204   0.790   1.451   6.959  0.6295 -0.9371 -0.4158
  170SAPE   H2S19205   0.950   1.514   6.879  0.4956  1.1227 -0.1213
  170SAPE    C319206   0.706   1.311   6.534  0.6718 -0.1119 -0.4810
  170SAPE    HX19207   0.809   1.270   6.540 -0.1590 -2.2780 -0.1772
  170SAPE    HY19208   0.664   1.278   6.437 -0.1615 -0.2119 -0.1016
  170SAPE   O3119209   0.645   1.255   6.651 -0.3555 -0.2175 -0.0248
  170SAPE   C3119210   0.505   1.246   6.640 -0.6725 -1.0290 -1.2889
  170SAPE   O3219211   0.437   1.297   6.552 -0.4851  0.9082 -0.6023
  170SAPE   C3219212   0.449   1.164   6.761  0.5546 -0.2490  0.6417
  170SAPE   H2X19213   0.425   1.060   6.731 -1.5699  0.2913  0.2849
  170SAPE   H2Y19214   0.353   1.217   6.783  1.5265  0.9569  2.2550
  170SAPE   C2319215   0.850   1.661   6.995  0.2524 -0.5870 -0.4738
  170SAPE   H3R19216   0.746   1.678   7.031 -0.7541 -1.8558 -2.6085
  170SAPE   H3S19217   0.878   1.737   6.919  2.6904  1.1909  1.9975
  170SAPE   C2419218   0.953   1.661   7.107 -0.6995 -0.3011 -0.0802
  170SAPE   H4R19219   1.046   1.614   7.069 -1.6596 -2.2621 -0.1573
  170SAPE   H4S19220   0.915   1.583   7.177 -1.4039 -2.1614 -2.4017
  170SAPE   C2519221   0.966   1.803   7.156  0.1312 -0.2725 -0.3014
  170SAPE   H5R19222   1.029   1.876   7.103 -1.1441  0.8466 -0.3451
  170SAPE   C2619223   0.883   1.858   7.251 -0.6921  0.2565  0.6447
  170SAPE   H6R19224   0.901   1.963   7.278 -0.1895  0.2163  0.4760
  170SAPE   C2719225   0.765   1.794   7.321 -0.0871 -0.7914  0.1724
  170SAPE   H7R19226   0.803   1.697   7.359  0.6106 -0.6780 -0.2083
  170SAPE   H7S19227   0.677   1.775   7.257 -0.4168 -0.0511  0.3868
  170SAPE   C2819228   0.709   1.880   7.432  0.0844  0.2089  1.3605
  170SAPE   H8R19229   0.602   1.906   7.423  0.3076  0.9170  0.6159
  170SAPE   C2919230   0.765   1.918   7.545 -0.2899 -0.0336  0.0850
  170SAPE   H9R19231   0.697   1.969   7.615  1.4137  1.8451  0.4791
  170SAPE  C21019232   0.907   1.895   7.603 -0.4381  0.6424 -0.0963
  170SAPE  H10R19233   0.984   1.856   7.533 -2.1335  0.6004 -2.0326
  170SAPE  H10S19234   0.894   1.817   7.682  3.6193 -0.3674 -0.1833
  170SAPE  C21119235   0.969   2.020   7.655 -0.3537  0.6448 -0.6308
  170SAPE  H11R19236   0.993   2.098   7.582 -2.8929  1.7672 -0.3950
  170SAPE  C21219237   0.999   2.053   7.783  0.1930 -0.2024 -0.1883
  170SAPE  H12R19238   1.046   2.150   7.802  0.1183  0.5360 -3.2520
  170SAPE  C21319239   0.980   1.975   7.905  1.0253 -0.2143  0.2274
  170SAPE  H13R19240   1.060   1.993   7.979  2.2775 -0.2677 -1.0854
  170SAPE  H13S19241   0.995   1.868   7.881  1.4780  0.0944 -0.9371
  170SAPE  C21419242   0.839   2.010   7.959  0.1939  0.6152 -0.3855
  170SAPE  H14R19243   0.757   1.966   7.901  0.9026 -2.7196  0.8815
  170SAPE  C21519244   0.804   2.060   8.080 -0.0377 -0.1636 -0.5233
  170SAPE  H15R19245   0.695   2.067   8.097  0.1409 -0.1018  0.6814
  170SAPE  C21619246   0.897   2.108   8.188  0.1949 -0.1909  0.7039
  170SAPE  H16R19247   0.859   2.210   8.210 -1.1872 -0.4362 -0.3943
  170SAPE  H16S19248   1.006   2.109   8.169 -0.1018 -0.5411 -1.1769
  170SAPE  C21719249   0.863   2.046   8.319  0.5059 -0.0523  0.3699
  170SAPE  H17R19250   0.937   2.055   8.401 -0.3183  0.2919  1.1039
  170SAPE  H17S19251   0.856   1.936   8.302 -2.9661 -0.0786  1.0450
  170SAPE  C21819252   0.724   2.097   8.379  0.1191  0.5186  0.1619
  170SAPE  H18R19253   0.631   2.069   8.325  0.5099  2.0886 -1.4060
  170SAPE  H18S19254   0.720   2.208   8.383  0.8513  0.6480 -1.7449
  170SAPE  C21919255   0.702   2.032   8.518  0.6143  0.5365 -0.1949
  170SAPE  H19R19256   0.629   2.093   8.575  2.2510  1.9887  0.4427
  170SAPE  H19S19257   0.796   2.035   8.577  0.6932 -1.7047 -0.1418
  170SAPE  C22019258   0.650   1.888   8.508 -0.2923 -0.7655 -0.3376
  170SAPE  H20R19259   0.726   1.826   8.456 -0.9376 -0.1480 -2.1201
  170SAPE  H20S19260   0.554   1.887   8.452 -1.1189 -0.6225  1.0244
  170SAPE  H20T19261   0.631   1.844   8.608  3.5334 -3.8239 -0.7163
  170SAPE   C3319262   0.543   1.171   6.887 -0.5347 -0.5424 -0.8672
  170SAPE   H3X19263   0.570   1.275   6.914  2.0895 -1.4700  0.4427
  170SAPE   H3Y19264   0.634   1.109   6.870  0.8715  0.6320  1.7694
  170SAPE   C3419265   0.474   1.123   7.012 -0.4350  0.5295  0.1192
  170SAPE   H4X19266   0.435   1.025   6.977 -0.0087  0.8693 -1.3842
  170SAPE   H4Y19267   0.401   1.204   7.032 -0.9065  0.2979 -0.6227
  170SAPE   C3519268   0.575   1.102   7.124  0.2386  0.2785  0.0577
  170SAPE   H5X19269   0.636   1.194   7.136 -2.4277  2.2214 -0.1631
  170SAPE   H5Y19270   0.644   1.019   7.101 -0.4882 -0.3835  0.2180
  170SAPE   C3619271   0.498   1.075   7.250  0.5025  0.3372 -0.0873
  170SAPE   H6X19272   0.447   0.978   7.231  1.3834 -0.3394  0.8771
  170SAPE   H6Y19273   0.422   1.154   7.269 -0.1180  0.0686 -1.3957
  170SAPE   C3719274   0.587   1.064   7.379  0.9184  0.7057  0.2063
  170SAPE   H7X19275   0.667   1.140   7.371  0.0865  1.5764  0.0142
  170SAPE   H7Y19276   0.638   0.965   7.382  1.4037  0.9490  0.0605
  170SAPE   C3819277   0.500   1.069   7.508  0.1408  0.2962 -0.1082
  170SAPE   H8X19278   0.429   0.984   7.508 -1.1077  1.2797 -1.5458
  170SAPE   H8Y19279   0.442   1.164   7.500  0.6922  0.4940 -2.2677
  170SAPE   C3919280   0.575   1.069   7.637 -0.2266 -0.3015 -0.0218
  170SAPE   H9X19281   0.652   0.989   7.647  0.2084  0.1801  0.5903
  170SAPE   H9Y19282   0.499   1.054   7.716 -0.1364 -0.6529 -0.0009
  170SAPE  C31019283   0.654   1.199   7.656 -0.2958  0.0368 -0.2067
  170SAPE  H10X19284   0.585   1.286   7.652  0.2354  0.4646 -0.1477
  170SAPE  H10Y19285   0.725   1.214   7.572  0.8191 -0.4955  0.6072
  170SAPE  C31119286   0.742   1.207   7.788  1.1914 -0.5175  0.0204
  170SAPE  H11X19287   0.788   1.307   7.777  0.1800 -0.0521 -0.1227
  170SAPE  H11Y19288   0.824   1.133   7.796  0.2581 -1.6753 -0.8357
  170SAPE  C31219289   0.643   1.206   7.907  0.3568  0.2132  0.1892
  170SAPE  H12X19290   0.591   1.109   7.917  1.8944 -0.7271 -0.6398
  170SAPE  H12Y19291   0.573   1.291   7.890 -0.1349 -0.1717  0.2843
  170SAPE  C31319292   0.713   1.249   8.043 -0.2089 -0.1594  0.0997
  170SAPE  H13X19293   0.778   1.338   8.027  0.1260 -0.5788 -1.0026
  170SAPE  H13Y19294   0.783   1.167   8.069  0.1637  0.3558  0.7772
  170SAPE  C31419295   0.612   1.277   8.151  0.4661 -0.5104 -0.0476
  170SAPE  H14X19296   0.554   1.184   8.165  0.2461 -0.1434  1.8207
  170SAPE  H14Y19297   0.547   1.365   8.130  1.0448  0.6418  2.5187
  170SAPE  C31519298   0.672   1.278   8.301  0.4336  0.0327  0.0379
  170SAPE  H15X19299   0.746   1.361   8.300  1.0031 -0.4588  0.5855
  170SAPE  H15Y19300   0.723   1.181   8.318 -1.1588 -0.7821  0.3680
  170SAPE  C31619301   0.571   1.304   8.407 -0.1300 -0.0292 -0.0814
  170SAPE  H16X19302   0.492   1.226   8.419 -0.5375  0.3474 -0.3037
  170SAPE  H16Y19303   0.514   1.396   8.383 -1.0547 -0.3124  0.9263
  170SAPE  C31719304   0.633   1.316   8.548  0.1093  0.2625 -0.0677
  170SAPE  H17X19305   0.543   1.356   8.600  0.3571  0.9748 -0.1763
  170SAPE  H17Y19306   0.711   1.395   8.544 -1.7096  2.0879 -2.4329
  170SAPE  C31819307   0.686   1.187   8.611  0.4709  0.3887  0.1356
  170SAPE  H18X19308   0.766   1.127   8.562 -0.3994 -0.5466 -0.1828
  170SAPE  H18Y19309   0.603   1.112   8.617  1.2867 -0.4116  2.4163
  170SAPE  H18Z19310   0.711   1.220   8.714  1.9469  1.1383 -0.4435
  171SAPE     N19311   5.202   0.438   6.427 -0.2947  0.1633  0.4824
  171SAPE   HN119312   5.262   0.509   6.473  1.8914  0.2864 -2.2435
  171SAPE   HN219313   5.130   0.403   6.493  0.0442  0.3681  0.9588
  171SAPE   HN319314   5.261   0.358   6.398 -1.4030 -0.1730 -1.0080
  171SAPE   C1219315   5.140   0.494   6.302 -0.8845 -0.3278 -0.2035
  171SAPE  H12A19316   5.111   0.403   6.246  1.3106 -1.7345  0.7763
  171SAPE  H12B19317   5.217   0.551   6.246 -0.4098  1.9654  2.5491
  171SAPE   C1119318   5.020   0.588   6.325 -0.0159 -0.0354  0.5196
  171SAPE  H11A19319   4.960   0.593   6.232  1.4893  1.8530 -0.3980
  171SAPE  H11B19320   5.061   0.690   6.344 -1.5278  0.7098 -0.0928
  171SAPE     P19321   4.800   0.504   6.433  0.5592  0.5887 -0.2214
  171SAPE   O1319322   4.715   0.617   6.391 -0.2218  0.3098 -0.5606
  171SAPE   O1419323   4.798   0.392   6.336 -0.6790  0.1225 -0.1348
  171SAPE   O1219324   4.950   0.551   6.443  0.3282 -0.3421 -0.1628
  171SAPE   O1119325   4.755   0.463   6.579  0.2376  0.5735  0.2903
  171SAPE    C119326   4.771   0.550   6.690  0.0365 -0.3629 -0.5346
  171SAPE    HA19327   4.744   0.654   6.664  1.2454  0.2431  0.5724
  171SAPE    HB19328   4.706   0.506   6.769  2.8519 -0.8460  1.6515
  171SAPE    C219329   4.916   0.549   6.753 -0.0995 -0.6722  0.6667
  171SAPE    HS19330   4.993   0.570   6.676  0.5140 -0.6216  1.2850
  171SAPE   O2119331   4.949   0.421   6.817  0.3019  0.3539  0.4130
  171SAPE   C2119332   4.992   0.331   6.737 -0.2636 -0.4325  1.0018
  171SAPE   O2219333   5.036   0.347   6.621  0.4782 -0.2376 -0.4621
  171SAPE   C2219334   5.019   0.205   6.813  0.0187  0.0957 -0.2949
  171SAPE   H2R19335   5.129   0.196   6.796 -0.4253 -1.1956 -2.8515
  171SAPE   H2S19336   4.998   0.210   6.922  0.4149  0.4326 -0.2300
  171SAPE    C319337   4.944   0.657   6.868  0.4312 -0.1331  0.2358
  171SAPE    HX19338   5.032   0.625   6.928 -0.3881 -2.9854  0.0446
  171SAPE    HY19339   4.859   0.649   6.938  0.2067  2.4483  0.3463
  171SAPE   O3119340   4.953   0.794   6.818  0.1392 -0.1586 -0.0405
  171SAPE   C3119341   5.062   0.829   6.761 -0.7135  0.2741 -0.0682
  171SAPE   O3219342   5.171   0.765   6.768 -0.3979 -0.4050  0.0520
  171SAPE   C3219343   5.043   0.967   6.681 -0.2370 -0.0096 -0.2293
  171SAPE   H2X19344   4.933   0.983   6.670 -0.0038  1.7700 -0.2408
  171SAPE   H2Y19345   5.090   0.956   6.581  2.3487 -2.0816  1.0895
  171SAPE   C2319346   4.949   0.081   6.747  0.7514  0.6809 -0.7691
  171SAPE   H3R19347   4.990  -0.010   6.795 -0.9576  2.2059  4.2254
  171SAPE   H3S19348   4.977   0.077   6.640  0.4220 -1.4731 -0.8090
  171SAPE   C2419349   4.795   0.082   6.747 -0.5220  0.5780  0.5607
  171SAPE   H4R19350   4.766   0.000   6.678  0.8143  0.6619 -0.1261
  171SAPE   H4S19351   4.742   0.172   6.710 -0.9601  1.4734  3.1616
  171SAPE   C2519352   4.757   0.033   6.884  0.0337  0.7189 -0.4086
  171SAPE   H5R19353   4.781  -0.074   6.900 -2.1838 -0.4646 -3.9661
  171SAPE   C2619354   4.721   0.118   6.984  0.0659 -0.0830 -0.1401
  171SAPE   H6R19355   4.691   0.075   7.080  1.5633  1.1728  0.9453
  171SAPE   C2719356   4.708   0.270   6.979 -0.3055  0.1931  0.1884
  171SAPE   H7R19357   4.684   0.305   6.876 -2.4530 -1.1437  0.1642
  171SAPE   H7S19358   4.806   0.313   7.005 -0.4582 -1.2790  3.6588
  171SAPE   C2819359   4.599   0.336   7.059  0.4335 -0.0585 -0.1762
  171SAPE   H8R19360   4.521   0.379   6.996 -0.8608 -1.8552  0.1089
  171SAPE   C2919361   4.588   0.353   7.192  0.3014  0.3671  1.1911
  171SAPE   H9R19362   4.492   0.396   7.224  0.4224  0.5059  1.3670
  171SAPE  C21019363   4.671   0.293   7.300  0.4767 -0.5136 -0.1161
  171SAPE  H10R19364   4.766   0.264   7.249 -0.7265 -0.6114 -2.4565
  171SAPE  H10S19365   4.628   0.200   7.344 -1.0321  0.1345 -0.2061
  171SAPE  C21119366   4.702   0.396   7.403 -0.1730  0.6458  0.0114
  171SAPE  H11R19367   4.707   0.496   7.359  1.9852 -0.4567 -2.5703
  171SAPE  C21219368   4.728   0.378   7.535  0.5239  0.0484 -0.1004
  171SAPE  H12R19369   4.745   0.468   7.597 -0.1887  1.2726 -1.6008
  171SAPE  C21319370   4.737   0.249   7.609  0.1575  0.5054  0.6183
  171SAPE  H13R19371   4.838   0.204   7.592 -1.0242 -2.8590  1.6418
  171SAPE  H13S19372   4.667   0.173   7.569  1.2145  0.8074 -2.0351
  171SAPE  C21419373   4.723   0.263   7.757  0.9320  0.0413 -0.1046
  171SAPE  H14R19374   4.695   0.365   7.789  2.2359 -0.3535  2.5394
  171SAPE  C21519375   4.734   0.162   7.849 -0.5602 -0.8162 -0.3185
  171SAPE  H15R19376   4.729   0.189   7.956  0.2135 -1.3633 -0.1339
  171SAPE  C21619377   4.766   0.016   7.819 -1.9064 -0.4347 -0.9764
  171SAPE  H16R19378   4.749  -0.009   7.712  0.0433  1.6886 -1.8718
  171SAPE  H16S19379   4.694  -0.052   7.867 -1.0101 -0.1739  0.8004
  171SAPE  C21719380   4.908  -0.036   7.861  0.7630 -0.7492  0.4029
  171SAPE  H17R19381   4.911  -0.138   7.818 -0.8038 -1.5464  2.0695
  171SAPE  H17S19382   4.935  -0.055   7.967  0.9256 -0.3219  0.4403
  171SAPE  C21819383   5.035   0.042   7.808 -0.3743  0.2005 -0.4562
  171SAPE  H18R19384   5.038   0.146   7.845  2.4727 -0.4391  1.4676
  171SAPE  H18S19385   5.014   0.056   7.699 -1.1433  1.3539 -0.1695
  171SAPE  C21919386   5.169  -0.035   7.824  0.4123  0.4907  0.6700
  171SAPE  H19R19387   5.144  -0.139   7.795  1.0701 -0.6511  3.7974
  171SAPE  H19S19388   5.188  -0.015   7.932 -0.1307  2.6929  0.4029
  171SAPE  C22019389   5.292   0.021   7.760 -0.6683 -0.4904 -0.5517
  171SAPE  H20R19390   5.293  -0.012   7.654 -1.4923 -0.6556 -0.5160
  171SAPE  H20S19391   5.386  -0.020   7.803 -0.8994  0.1399  0.6049
  171SAPE  H20T19392   5.291   0.132   7.764 -0.3396 -0.5118  1.2838
  171SAPE   C3319393   5.102   1.090   6.755 -0.1043  0.1117  1.2556
  171SAPE   H3X19394   5.090   1.181   6.692 -1.2490 -0.1068  1.1460
  171SAPE   H3Y19395   5.206   1.071   6.790 -0.1330 -0.3571  1.0946
  171SAPE   C3419396   5.020   1.109   6.887  0.3129  0.2507 -0.4557
  171SAPE   H4X19397   5.041   1.202   6.944 -3.7845 -1.6755  5.1049
  171SAPE   H4Y19398   5.048   1.023   6.951  1.1492 -0.9361 -2.3338
  171SAPE   C3519399   4.867   1.125   6.869  0.0314  0.5781 -0.1168
  171SAPE   H5X19400   4.823   1.030   6.831 -0.2174  1.2295 -1.5298
  171SAPE   H5Y19401   4.863   1.199   6.787 -0.5036  1.1030  0.3724
  171SAPE   C3619402   4.789   1.183   6.988 -0.0170 -0.0995 -0.4791
  171SAPE   H6X19403   4.681   1.171   6.964  0.2435  1.4622 -2.8273
  171SAPE   H6Y19404   4.812   1.291   6.999  1.2608 -0.4682  0.8730
  171SAPE   C3719405   4.828   1.125   7.127 -0.6657 -0.5750 -0.0688
  171SAPE   H7X19406   4.939   1.112   7.125 -0.4811  0.7743  0.4408
  171SAPE   H7Y19407   4.781   1.025   7.140  0.1488 -0.9444  0.1515
  171SAPE   C3819408   4.794   1.216   7.241  0.0957 -0.2860 -0.0330
  171SAPE   H8X19409   4.850   1.312   7.236 -0.3253 -0.0216  0.3042
  171SAPE   H8Y19410   4.829   1.159   7.330 -2.0427 -1.1003  0.3276
  171SAPE   C3919411   4.640   1.229   7.266  0.3081  0.1289 -0.4109
  171SAPE   H9X19412   4.605   1.125   7.283  0.3063  0.0950 -0.6168
  171SAPE   H9Y19413   4.583   1.267   7.179  0.6213  1.9116  0.1210
  171SAPE  C31019414   4.617   1.302   7.395  0.8107 -0.1545 -1.0927
  171SAPE  H10X19415   4.511   1.336   7.396  1.1606  0.9676 -0.1806
  171SAPE  H10Y19416   4.666   1.402   7.386  0.6687 -0.0514 -0.7097
  171SAPE  C31119417   4.655   1.225   7.523  0.4332  0.6946  0.3871
  171SAPE  H11X19418   4.763   1.202   7.511  0.2590  0.0995 -0.0694
  171SAPE  H11Y19419   4.602   1.128   7.524 -0.1401  0.9423 -1.5123
  171SAPE  C31219420   4.631   1.311   7.652  0.5233 -0.3867  0.5605
  171SAPE  H12X19421   4.524   1.327   7.675  0.8594 -0.2321  2.1787
  171SAPE  H12Y19422   4.677   1.412   7.647 -0.7367  0.2632  1.3994
  171SAPE  C31319423   4.690   1.249   7.780 -0.6827 -0.9134 -0.4014
  171SAPE  H13X19424   4.800   1.239   7.771 -0.3862 -1.4721  2.5753
  171SAPE  H13Y19425   4.648   1.148   7.798 -2.3985 -0.2667 -0.5779
  171SAPE  C31419426   4.662   1.345   7.902  0.1464 -0.0227  0.0921
  171SAPE  H14X19427   4.554   1.360   7.923 -0.2671 -1.3599 -0.8942
  171SAPE  H14Y19428   4.700   1.444   7.870 -0.6117 -0.0831 -1.0614
  171SAPE  C31519429   4.738   1.305   8.035 -0.1773  0.1454  0.2249
  171SAPE  H15X19430   4.840   1.281   8.000 -0.4385 -1.1164  0.2860
  171SAPE  H15Y19431   4.690   1.216   8.080  1.6489 -0.1519  1.6547
  171SAPE  C31619432   4.723   1.424   8.138 -0.4254  0.5932  1.0678
  171SAPE  H16X19433   4.613   1.440   8.141 -0.6796 -0.6587 -0.4352
  171SAPE  H16Y19434   4.783   1.507   8.097  1.3584 -1.2624 -0.2478
  171SAPE  C31719435   4.771   1.385   8.278 -0.2326 -0.0690 -0.1167
  171SAPE  H17X19436   4.868   1.335   8.257 -1.0177 -1.6141 -0.2357
  171SAPE  H17Y19437   4.705   1.302   8.313 -0.4501  0.3927  0.5983
  171SAPE  C31819438   4.782   1.507   8.367 -0.3914  0.1969 -0.4412
  171SAPE  H18X19439   4.836   1.474   8.458 -2.0476  0.8564  0.8392
  171SAPE  H18Y19440   4.676   1.531   8.392  0.3005  0.9558  1.9855
  171SAPE  H18Z19441   4.838   1.590   8.318  1.9914 -0.5808  0.8596
  172SAPE     N19442   3.253   5.010   6.119  0.3375 -0.0453  0.6420
  172SAPE   HN119443   3.204   4.946   6.053 -0.9037  0.0039  1.4715
  172SAPE   HN219444   3.318   4.950   6.173  1.1571  0.4898  0.2585
  172SAPE   HN319445   3.181   5.060   6.175  1.5934  1.2820  1.1234
  172SAPE   C1219446   3.339   5.117   6.066  0.0626 -0.5754  0.3163
  172SAPE  H12A19447   3.408   5.069   5.993 -1.0409 -1.3685 -0.2412
  172SAPE  H12B19448   3.395   5.161   6.151  0.7795 -1.6161  0.3967
  172SAPE   C1119449   3.231   5.220   6.005  0.0687 -0.0734 -0.0392
  172SAPE  H11A19450   3.167   5.162   5.935 -0.6407  0.1541  0.4100
  172SAPE  H11B19451   3.286   5.295   5.944  0.8030  0.9508  1.8048
  172SAPE     P19452   3.187   5.419   6.162  0.3990  0.0048 -0.0630
  172SAPE   O1319453   3.245   5.504   6.061 -0.0965  0.4580  0.6245
  172SAPE   O1419454   3.062   5.470   6.213  0.2194  0.0941 -0.4468
  172SAPE   O1219455   3.154   5.273   6.115  0.1899  0.1609 -0.2933
  172SAPE   O1119456   3.290   5.405   6.283  0.5047  0.2680  0.1964
  172SAPE    C119457   3.425   5.446   6.272  0.3481  0.5195 -0.3538
  172SAPE    HA19458   3.476   5.370   6.210 -1.2756 -1.9732  1.1890
  172SAPE    HB19459   3.438   5.546   6.224 -0.9323  0.0944 -1.6610
  172SAPE    C219460   3.486   5.441   6.411 -0.0982 -0.4767  0.0331
  172SAPE    HS19461   3.597   5.439   6.409 -0.0142  1.6993  0.2888
  172SAPE   O2119462   3.432   5.328   6.482  0.3044  0.6015  0.1815
  172SAPE   C2119463   3.470   5.211   6.434  0.0976 -0.2359 -0.0176
  172SAPE   O2219464   3.546   5.189   6.344 -0.0199 -0.5129 -0.0109
  172SAPE   C2219465   3.405   5.105   6.515 -0.6820  0.2251 -0.1488
  172SAPE   H2R19466   3.336   5.155   6.587 -0.7019  0.6966 -0.4855
  172SAPE   H2S19467   3.342   5.045   6.446  1.3091 -1.1120 -0.8784
  172SAPE    C319468   3.463   5.562   6.504  0.1298  0.1428 -0.9490
  172SAPE    HX19469   3.353   5.579   6.498 -0.2966 -1.3229  1.3729
  172SAPE    HY19470   3.518   5.647   6.460  1.8072 -0.0007  0.7443
  172SAPE   O3119471   3.511   5.537   6.648 -0.2144  0.0432 -0.2205
  172SAPE   C3119472   3.411   5.515   6.738 -0.2886  0.2030 -0.1494
  172SAPE   O3219473   3.293   5.496   6.714 -0.4754  0.1708  0.1140
  172SAPE   C3219474   3.470   5.501   6.885 -0.4133  0.2775  0.1170
  172SAPE   H2X19475   3.557   5.569   6.902 -0.4145  0.3000  0.0356
  172SAPE   H2Y19476   3.511   5.398   6.883  1.5451  1.0100 -0.8305
  172SAPE   C2319477   3.508   5.026   6.590  0.1917  0.8582 -0.1508
  172SAPE   H3R19478   3.592   4.988   6.529  0.1103  0.1320  0.1697
  172SAPE   H3S19479   3.457   4.936   6.631  2.5424  0.6275  2.5344
  172SAPE   C2419480   3.557   5.104   6.706  0.2214 -0.7950 -0.3954
  172SAPE   H4R19481   3.468   5.149   6.757 -0.7711 -0.5479 -2.2442
  172SAPE   H4S19482   3.608   5.195   6.668 -1.1115  0.6564  1.1384
  172SAPE   C2519483   3.638   5.010   6.790 -0.0507  0.3487 -0.1149
  172SAPE   H5R19484   3.711   4.953   6.731 -0.2347 -0.6019  0.5546
  172SAPE   C2619485   3.624   4.990   6.921 -0.2831  0.0395  0.6913
  172SAPE   H6R19486   3.697   4.922   6.969  0.4063 -0.0394 -0.4292
  172SAPE   C2719487   3.517   5.053   7.004 -0.6249  0.7052 -0.3769
  172SAPE   H7R19488   3.434   4.982   7.022  1.0167 -1.6585 -1.6006
  172SAPE   H7S19489   3.482   5.151   6.964  0.7802  1.6830  0.6699
  172SAPE   C2819490   3.568   5.105   7.145 -0.0361 -0.6491  0.4663
  172SAPE   H8R19491   3.637   5.191   7.143  0.7065 -1.1299  2.6476
  172SAPE   C2919492   3.538   5.067   7.270  0.1437 -1.0006 -0.1031
  172SAPE   H9R19493   3.570   5.125   7.358 -0.4752 -3.1858  1.6647
  172SAPE  C21019494   3.433   4.960   7.313 -0.2496  0.3358  0.3705
  172SAPE  H10R19495   3.438   4.869   7.250 -0.4642 -0.8761  2.0327
  172SAPE  H10S19496   3.332   4.998   7.288  0.4584 -0.0113 -3.5146
  172SAPE  C21119497   3.449   4.906   7.455 -0.4185  0.0671  0.2546
  172SAPE  H11R19498   3.526   4.828   7.460 -2.4273 -2.3806 -2.8600
  172SAPE  C21219499   3.405   4.948   7.571 -0.3131  0.1905 -0.7451
  172SAPE  H12R19500   3.453   4.894   7.654 -2.5114 -0.0802  0.4200
  172SAPE  C21319501   3.310   5.065   7.589 -0.4015  0.1969 -0.2850
  172SAPE  H13R19502   3.280   5.114   7.494 -0.6087 -3.0425 -2.0416
  172SAPE  H13S19503   3.373   5.141   7.640  1.3619 -1.2392 -0.2340
  172SAPE  C21419504   3.188   5.054   7.678  1.2787 -0.1511  0.4815
  172SAPE  H14R19505   3.094   5.051   7.621  0.8715  1.0576  1.0502
  172SAPE  C21519506   3.174   5.028   7.813  0.8184  0.7900 -0.4133
  172SAPE  H15R19507   3.075   5.020   7.859  1.4000 -3.1573  0.5150
  172SAPE  C21619508   3.286   4.998   7.912 -0.1653 -0.3171 -0.9935
  172SAPE  H16R19509   3.386   5.034   7.878 -0.4857 -0.1721 -1.8164
  172SAPE  H16S19510   3.302   4.888   7.922 -0.2464 -0.2559 -0.1995
  172SAPE  C21719511   3.269   5.043   8.059  0.7950 -0.3168 -0.7823
  172SAPE  H17R19512   3.214   5.139   8.073 -1.4176 -1.9800  4.4620
  172SAPE  H17S19513   3.367   5.057   8.108 -0.0309 -0.4253  0.9634
  172SAPE  C21819514   3.189   4.950   8.150  1.0813  0.3630 -0.5551
  172SAPE  H18R19515   3.255   4.862   8.161  0.3277 -0.3349 -1.3977
  172SAPE  H18S19516   3.100   4.921   8.090  1.2299  0.5714 -0.8750
  172SAPE  C21919517   3.144   5.009   8.292  0.4032 -0.6283 -0.6466
  172SAPE  H19R19518   3.051   5.070   8.283  0.3080 -0.5027  0.8993
  172SAPE  H19S19519   3.237   5.064   8.319 -0.8288  1.7306 -0.8982
  172SAPE  C22019520   3.120   4.902   8.401  0.2255 -0.3830 -0.4169
  172SAPE  H20R19521   3.208   4.838   8.424  0.5042 -0.1175 -0.7466
  172SAPE  H20S19522   3.044   4.831   8.361  0.6967 -0.5899 -0.9494
  172SAPE  H20T19523   3.084   4.945   8.497  0.6459 -0.1345 -0.3708
  172SAPE   C3319524   3.363   5.513   6.990 -0.0658  0.5732  0.1077
  172SAPE   H3X19525   3.289   5.431   6.990  0.4981 -0.1200  3.4973
  172SAPE   H3Y19526   3.315   5.611   6.969  1.5163  0.8659 -2.4861
  172SAPE   C3419527   3.418   5.516   7.130 -0.2820  0.6732 -0.3751
  172SAPE   H4X19528   3.474   5.612   7.136 -0.9425  1.1162 -1.1180
  172SAPE   H4Y19529   3.488   5.436   7.162 -2.7178 -0.9970  1.0512
  172SAPE   C3519530   3.308   5.504   7.234  0.4047  0.2201 -0.1790
  172SAPE   H5X19531   3.268   5.402   7.250  0.9459  0.3019  2.0667
  172SAPE   H5Y19532   3.225   5.567   7.196 -1.2321 -2.0764 -0.5849
  172SAPE   C3619533   3.351   5.532   7.377 -0.2227  0.3221  0.4545
  172SAPE   H6X19534   3.393   5.635   7.385 -2.7861  1.3513  1.4658
  172SAPE   H6Y19535   3.422   5.457   7.418  2.6335  1.9744 -1.0813
  172SAPE   C3719536   3.238   5.530   7.480 -0.0712  0.6204 -0.2951
  172SAPE   H7X19537   3.171   5.443   7.463  1.7121 -0.4259 -2.5290
  172SAPE   H7Y19538   3.167   5.614   7.471 -1.8754 -0.5396  1.9477
  172SAPE   C3819539   3.278   5.535   7.626  0.5057 -0.6515  0.4704
  172SAPE   H8X19540   3.354   5.616   7.638 -0.4094  0.6858 -2.1335
  172SAPE   H8Y19541   3.329   5.442   7.658 -1.5109 -1.9021  0.2145
  172SAPE   C3919542   3.165   5.556   7.732 -0.3852 -0.3856  0.3692
  172SAPE   H9X19543   3.109   5.648   7.706  1.2779  0.2867 -1.0391
  172SAPE   H9Y19544   3.214   5.570   7.830  1.6823 -0.5506 -0.5965
  172SAPE  C31019545   3.062   5.443   7.745  0.3625 -0.4026  0.3036
  172SAPE  H10X19546   3.081   5.367   7.666 -1.8495 -0.6714 -0.0211
  172SAPE  H10Y19547   2.970   5.498   7.716  0.4404 -0.5046 -0.1391
  172SAPE  C31119548   3.042   5.388   7.887  0.8874  0.5134 -0.6657
  172SAPE  H11X19549   3.038   5.469   7.963 -2.1471 -0.9227  0.8821
  172SAPE  H11Y19550   3.131   5.326   7.908  1.5330  1.6365  0.0400
  172SAPE  C31219551   2.914   5.301   7.906 -0.1832 -0.2364  0.2460
  172SAPE  H12X19552   2.923   5.205   7.850 -1.3347 -0.6652  0.7669
  172SAPE  H12Y19553   2.823   5.348   7.864 -0.4560  0.6944  1.7812
  172SAPE  C31319554   2.881   5.279   8.052  0.2568 -0.0283  0.1428
  172SAPE  H13X19555   2.883   5.376   8.106  1.6384 -0.2286  0.4996
  172SAPE  H13Y19556   2.949   5.218   8.116 -0.9175 -1.9141 -0.3053
  172SAPE  C31419557   2.741   5.219   8.076 -0.8260  0.3260  0.3209
  172SAPE  H14X19558   2.724   5.142   7.998  2.0527 -0.8860  0.7654
  172SAPE  H14Y19559   2.666   5.300   8.062 -0.6541  0.9653  2.7438
  172SAPE  C31519560   2.704   5.164   8.216 -0.9403  0.5140 -0.1538
  172SAPE  H15X19561   2.775   5.084   8.246  0.0188  1.9514  1.6125
  172SAPE  H15Y19562   2.602   5.126   8.195 -1.0165 -0.8247  2.2894
  172SAPE  C31619563   2.697   5.263   8.339  0.4559 -0.0669  0.3469
  172SAPE  H16X19564   2.651   5.353   8.292 -1.7323 -1.2577  0.0437
  172SAPE  H16Y19565   2.801   5.290   8.367  0.6885 -1.8941  1.3674
  172SAPE  C31719566   2.626   5.202   8.463  0.0207  0.2377 -0.2853
  172SAPE  H17X19567   2.696   5.127   8.507 -1.3919 -0.7271  0.4301
  172SAPE  H17Y19568   2.534   5.149   8.430  0.7917 -0.3971 -1.5107
  172SAPE  C31819569   2.582   5.307   8.563  0.4651 -0.4606  0.5203
  172SAPE  H18X19570   2.657   5.385   8.588 -0.7126  1.2202 -0.9268
  172SAPE  H18Y19571   2.563   5.254   8.659  0.5863 -1.7849 -0.1625
  172SAPE  H18Z19572   2.492   5.365   8.532  0.6053 -0.2828  0.4420
  173SOPE     N19573   6.331   2.687  10.759 -0.0243  0.5314  0.1744
  173SOPE   HN119574   6.399   2.701  10.681 -0.2344  0.7296  0.0235
  173SOPE   HN219575   6.389   2.676  10.844  0.6529 -1.3269 -0.4776
  173SOPE   HN319576   6.282   2.596  10.754 -1.0085  1.1186 -1.9465
  173SOPE   C1219577   6.235   2.793  10.780  0.0448 -0.4661 -0.3745
  173SOPE  H12A19578   6.214   2.797  10.889  0.0586 -0.1779 -0.3811
  173SOPE  H12B19579   6.147   2.774  10.715  0.7127 -1.5412 -0.9957
  173SOPE   C1119580   6.293   2.931  10.753 -0.6462 -0.3324 -0.1530
  173SOPE  H11A19581   6.227   3.007  10.800 -1.8116 -0.2910 -1.7390
  173SOPE  H11B19582   6.286   2.937  10.642 -2.5678 -1.7007 -0.1618
  173SOPE     P19583   6.495   3.073  10.837  0.1581  0.0498  0.0049
  173SOPE   O1319584   6.636   3.053  10.862 -0.2008  0.0085  0.1755
  173SOPE   O1419585   6.412   3.143  10.940 -0.1444  0.2327 -0.4139
  173SOPE   O1219586   6.429   2.937  10.803 -0.2612  0.0509  0.0857
  173SOPE   O1119587   6.473   3.143  10.700 -0.5593  0.0835 -0.6803
  173SOPE    C119588   6.563   3.094  10.598  0.4822  0.0105  0.0917
  173SOPE    HA19589   6.550   2.984  10.586 -0.8366  0.0674  0.8553
  173SOPE    HB19590   6.671   3.098  10.623  0.0127 -0.6537  2.4431
  173SOPE    C219591   6.523   3.153  10.462  0.2258 -0.7617 -1.0313
  173SOPE    HS19592   6.417   3.127  10.441 -0.0193 -0.3622 -0.3267
  173SOPE   O2119593   6.614   3.109  10.359  0.8515  0.4225  0.7932
  173SOPE   C2119594   6.596   2.986  10.315  0.0353 -0.9550  0.0140
  173SOPE   O2219595   6.495   2.916  10.332 -0.0147  0.3390 -0.4404
  173SOPE   C2219596   6.716   2.948  10.244  0.5164  0.3150 -0.4714
  173SOPE   H2R19597   6.742   2.856  10.300  0.2134  0.0043 -0.8375
  173SOPE   H2S19598   6.797   3.025  10.246  0.6488  0.1835 -0.7402
  173SOPE    C319599   6.545   3.313  10.472  0.8291 -0.8505 -0.2352
  173SOPE    HX19600   6.645   3.350  10.439  0.1868  0.3043 -0.9645
  173SOPE    HY19601   6.521   3.346  10.576 -2.2952 -0.2243 -1.0436
  173SOPE   O3119602   6.439   3.365  10.387  0.2105  0.2499 -0.3313
  173SOPE   C3119603   6.443   3.498  10.376  0.6775 -0.4974 -0.5224
  173SOPE   O3219604   6.528   3.566  10.430  0.0764  0.8492  0.2210
  173SOPE   C3219605   6.329   3.542  10.284 -0.2413 -0.0898 -0.0179
  173SOPE   H2X19606   6.234   3.522  10.338 -0.6702  0.5433 -0.5204
  173SOPE   H2Y19607   6.336   3.480  10.192  0.0247  0.1090 -0.1305
  173SOPE   C2319608   6.694   2.885  10.107  0.5049 -0.3770  0.3723
  173SOPE   H3R19609   6.613   2.809  10.109 -0.0376  0.1860  0.2097
  173SOPE   H3S19610   6.790   2.834  10.083  0.1831 -0.5340 -0.6328
  173SOPE   C2419611   6.660   2.989   9.990 -0.4786 -0.1492 -0.7188
  173SOPE   H4R19612   6.551   3.009  10.001 -0.3008 -0.3896  2.5968
  173SOPE   H4S19613   6.711   3.082  10.025 -1.8219 -0.0440  1.0850
  173SOPE   C2519614   6.694   2.947   9.849  1.1462 -0.4173  0.2648
  173SOPE   H5R19615   6.803   2.939   9.831  0.8182 -1.7437 -1.3030
  173SOPE   H5S19616   6.649   2.847   9.830  0.5269 -0.5059  1.9745
  173SOPE   C2619617   6.638   3.038   9.735 -0.2045 -0.2414  0.2020
  173SOPE   H6R19618   6.530   3.058   9.748 -0.3114  1.3335 -2.4553
  173SOPE   H6S19619   6.678   3.141   9.744 -0.1641 -0.2862  0.5721
  173SOPE   C2719620   6.641   2.990   9.594  0.0467  0.3600  0.0454
  173SOPE   H7R19621   6.746   2.957   9.577 -0.2879 -0.8313  0.1601
  173SOPE   H7S19622   6.579   2.900   9.578  0.8256 -0.8531  3.1056
  173SOPE   C2819623   6.606   3.100   9.495 -0.4238 -0.2040 -0.8059
  173SOPE   H8R19624   6.642   3.202   9.523 -1.6676  0.6884 -2.3473
  173SOPE   H8S19625   6.658   3.067   9.403  1.6430  1.3360 -0.2707
  173SOPE   C2919626   6.471   3.135   9.449 -0.5226 -0.3243  0.4051
  173SOPE   H9119627   6.415   3.223   9.484 -2.1800 -0.6696 -1.2507
  173SOPE  C21019628   6.407   3.043   9.374  0.8373 -0.5048  0.0928
  173SOPE  H10119629   6.307   3.069   9.337  0.8441 -0.8144 -0.1386
  173SOPE  C21119630   6.446   2.902   9.328 -0.0288  0.1671  0.4884
  173SOPE  H11R19631   6.375   2.832   9.378 -2.0573  2.8249  1.5438
  173SOPE  H11S19632   6.552   2.883   9.357 -0.3218 -1.0876  0.8118
  173SOPE  C21219633   6.426   2.880   9.177 -0.5188 -0.6009  0.2862
  173SOPE  H12R19634   6.325   2.908   9.142 -0.0377  1.4561  0.4056
  173SOPE  H12S19635   6.435   2.770   9.162  0.8759 -0.4058 -0.5583
  173SOPE  C21319636   6.524   2.963   9.087  0.1668  0.0907  0.1326
  173SOPE  H13R19637   6.623   2.971   9.137 -0.0338 -0.7038  0.6690
  173SOPE  H13S19638   6.488   3.068   9.089 -0.6174 -0.1677 -0.1000
  173SOPE  C21419639   6.541   2.907   8.949 -0.0921 -0.0432  0.0201
  173SOPE  H14R19640   6.582   2.804   8.960 -2.4969 -0.9899  0.6468
  173SOPE  H14S19641   6.617   2.961   8.889  0.7523 -1.8124 -0.5828
  173SOPE  C21519642   6.425   2.918   8.845 -0.3809 -0.3051 -1.2465
  173SOPE  H15R19643   6.380   3.017   8.872  1.0873  0.6314 -2.1527
  173SOPE  H15S19644   6.346   2.841   8.862 -3.1786  1.9341 -3.1033
  173SOPE  C21619645   6.454   2.912   8.694  0.1727 -0.0174 -0.2302
  173SOPE  H16R19646   6.508   2.816   8.682  0.0870 -0.1203  0.1951
  173SOPE  H16S19647   6.518   2.996   8.660  0.2947  0.5507  1.3365
  173SOPE  C21719648   6.319   2.922   8.614 -0.2610  0.0330  0.2240
  173SOPE  H17R19649   6.289   3.027   8.635 -0.7051 -0.0517  0.0284
  173SOPE  H17S19650   6.248   2.852   8.662  0.1408 -1.4487 -1.2312
  173SOPE  C21819651   6.335   2.888   8.465 -0.7419 -0.5056 -0.5578
  173SOPE  H18R19652   6.414   2.953   8.421 -0.6987 -1.2734 -1.6501
  173SOPE  H18S19653   6.240   2.906   8.409 -3.7227 -1.5228  3.6446
  173SOPE  H18T19654   6.363   2.782   8.447  1.0648 -0.2163  0.3379
  173SOPE   C3319655   6.341   3.695  10.249 -0.1508  1.1720  0.0291
  173SOPE   H3X19656   6.367   3.755  10.339  1.8824  1.6063 -0.7821
  173SOPE   H3Y19657   6.244   3.736  10.216 -0.3972  1.9365  1.5949
  173SOPE   C3419658   6.435   3.733  10.135 -0.5915  0.1254 -0.4640
  173SOPE   H4X19659   6.541   3.699  10.143 -0.0786  0.9198 -2.8118
  173SOPE   H4Y19660   6.463   3.840  10.136 -0.4650  0.0917  0.2898
  173SOPE   C3519661   6.392   3.696   9.994  0.6549 -0.1827 -0.3750
  173SOPE   H5X19662   6.377   3.586   9.996  0.4401 -0.1738  2.1617
  173SOPE   H5Y19663   6.473   3.714   9.921  0.0943 -0.6758 -1.1290
  173SOPE   C3619664   6.266   3.771   9.947  0.3690  0.9836 -0.1665
  173SOPE   H6X19665   6.270   3.877   9.981 -0.0336  0.9508 -0.0137
  173SOPE   H6Y19666   6.175   3.730   9.995 -0.6112  1.4087 -1.5994
  173SOPE   C3719667   6.249   3.776   9.797  0.6573 -0.7077 -1.0171
  173SOPE   H7X19668   6.255   3.673   9.753 -0.5976 -0.5327 -1.6547
  173SOPE   H7Y19669   6.344   3.822   9.763 -0.0673  2.6059  1.0728
  173SOPE   C3819670   6.116   3.833   9.738  0.1342 -0.8065 -0.4033
  173SOPE   H8X19671   6.120   3.943   9.751  0.5372 -0.7808 -0.7413
  173SOPE   H8Y19672   6.027   3.785   9.785 -0.9546 -0.9583 -2.4612
  173SOPE   C3919673   6.105   3.809   9.588  0.1585  0.5286  0.2690
  173SOPE   H9X19674   6.121   3.700   9.575  0.2346  0.3334  1.8890
  173SOPE   H9Y19675   6.194   3.859   9.545  0.0563 -0.2974 -0.9891
  173SOPE  C31019676   5.976   3.867   9.518 -0.5330  0.8916  0.2718
  173SOPE  H10X19677   5.944   3.967   9.555  1.7030  1.2132  1.5434
  173SOPE  H10Y19678   5.891   3.797   9.529 -0.2598  0.2100 -1.5748
  173SOPE  C31119679   5.995   3.863   9.366  0.5088 -0.6031  0.7418
  173SOPE  H11X19680   6.008   3.757   9.335 -2.9049 -0.7396 -0.6570
  173SOPE  H11Y19681   6.092   3.917   9.358 -0.0775  0.3277 -0.3583
  173SOPE  C31219682   5.892   3.938   9.284 -0.1912  0.1827 -0.3014
  173SOPE  H12X19683   5.878   4.039   9.327 -0.1693  0.9408 -1.9847
  173SOPE  H12Y19684   5.790   3.898   9.304 -1.4330  3.5220  0.8278
  173SOPE  C31319685   5.918   3.940   9.138  0.0965 -0.2136  0.6579
  173SOPE  H13X19686   6.012   3.996   9.118 -1.1707  2.6755  2.2569
  173SOPE  H13Y19687   5.845   4.002   9.081  0.3984  0.0906  0.5937
  173SOPE  C31419688   5.931   3.808   9.060  1.1384 -0.2289 -0.2497
  173SOPE  H14X19689   6.010   3.751   9.114 -0.5094 -1.3547  1.0715
  173SOPE  H14Y19690   5.948   3.833   8.953 -1.4659 -0.3720 -0.7667
  173SOPE  C31519691   5.804   3.718   9.052  0.2748 -1.1190 -0.3944
  173SOPE  H15X19692   5.727   3.778   8.999  1.3773  0.5275 -0.2017
  173SOPE  H15Y19693   5.763   3.696   9.153  1.9354  1.3661  0.9422
  173SOPE  C31619694   5.832   3.596   8.965 -0.2110  0.3347 -0.7082
  173SOPE  H16X19695   5.925   3.542   8.992 -0.9676 -3.0850 -4.0781
  173SOPE  H16Y19696   5.861   3.641   8.867  0.7872 -1.6559 -1.3710
  173SOPE  C31719697   5.721   3.497   8.954  0.2999 -0.0112 -0.5388
  173SOPE  H17X19698   5.626   3.539   8.916 -0.9340 -1.7917  0.4518
  173SOPE  H17Y19699   5.697   3.449   9.051 -1.5215 -0.3054 -1.1047
  173SOPE  C31819700   5.755   3.396   8.854  0.2526  0.1057  0.1726
  173SOPE  H18X19701   5.861   3.362   8.846 -0.2565 -1.4744 -0.0747
  173SOPE  H18Y19702   5.735   3.436   8.752 -1.5172  1.5426  1.0289
  173SOPE  H18Z19703   5.696   3.302   8.857  1.4213 -0.7960 -2.1526
  174SOPE     N19704   6.661   1.697  10.500  0.4584  0.4887  0.0109
  174SOPE   HN119705   6.558   1.705  10.486  0.4803  0.7350 -0.0184
  174SOPE   HN219706   6.706   1.790  10.499  1.1051  0.1944  0.8377
  174SOPE   HN319707   6.696   1.631  10.428  0.2618 -0.5785  0.8536
  174SOPE   C1219708   6.673   1.648  10.643  0.0174 -0.1402  0.4822
  174SOPE  H12A19709   6.653   1.538  10.641 -0.5527 -0.0809  1.8627
  174SOPE  H12B19710   6.591   1.706  10.689 -3.1613 -1.7922 -2.5565
  174SOPE   C1119711   6.810   1.677  10.696  0.4149  0.0805 -0.2804
  174SOPE  H11A19712   6.891   1.640  10.630  0.5920  1.4114 -0.8363
  174SOPE  H11B19713   6.827   1.615  10.787 -0.2706 -0.2081 -0.3429
  174SOPE     P19714   6.964   1.890  10.773  0.0783 -0.2211 -0.0985
  174SOPE   O1319715   6.998   1.821  10.899 -0.3171 -0.0661  0.1375
  174SOPE   O1419716   6.961   2.036  10.774 -0.1217  0.1178 -0.7521
  174SOPE   O1219717   6.826   1.819  10.721 -0.1003 -0.7005 -0.2028
  174SOPE   O1119718   7.062   1.843  10.670 -0.0198 -0.2762  0.1597
  174SOPE    C119719   7.051   1.863  10.530 -0.3510  0.0818  0.2762
  174SOPE    HA19720   6.956   1.826  10.485 -0.4171  1.8400 -1.1480
  174SOPE    HB19721   7.121   1.795  10.475  1.4363  0.7924  1.5602
  174SOPE    C219722   7.085   2.008  10.485  0.6622  0.1332 -0.3311
  174SOPE    HS19723   7.017   2.081  10.533 -2.9361 -2.4283 -1.0756
  174SOPE   O2119724   7.088   2.012  10.340 -0.4835  0.4485 -0.2676
  174SOPE   C2119725   6.970   2.015  10.282  0.0377  0.1512 -0.3708
  174SOPE   O2219726   6.864   2.037  10.339  0.1691 -0.1219  0.5505
  174SOPE   C2219727   6.989   1.995  10.138 -0.0820 -0.0284  0.1928
  174SOPE   H2R19728   7.074   1.925  10.122  0.3817  0.3877  0.7957
  174SOPE   H2S19729   7.020   2.095  10.100  1.3273 -0.5481 -0.0936
  174SOPE    C319730   7.220   2.054  10.544  1.0862 -0.7967  0.7373
  174SOPE    HX19731   7.293   1.977  10.509  0.0043 -0.3861 -2.7599
  174SOPE    HY19732   7.215   2.059  10.655  0.1742  0.0854  0.6629
  174SOPE   O3119733   7.264   2.175  10.489 -0.4825  0.0440  0.5490
  174SOPE   C3119734   7.324   2.266  10.567 -0.8508 -0.0514 -0.3333
  174SOPE   O3219735   7.341   2.259  10.689  0.4276  0.1805 -0.5785
  174SOPE   C3219736   7.375   2.385  10.486  0.4213 -0.0325 -0.1065
  174SOPE   H2X19737   7.392   2.347  10.383  0.3610 -2.5633  0.7420
  174SOPE   H2Y19738   7.472   2.424  10.523 -0.1675  1.2140  0.1651
  174SOPE   C2319739   6.858   1.952  10.069  0.1834 -0.4481 -0.5108
  174SOPE   H3R19740   6.792   2.039  10.088 -0.7358 -1.4467  1.2009
  174SOPE   H3S19741   6.812   1.867  10.125 -2.7220  2.7136  2.3302
  174SOPE   C2419742   6.872   1.917   9.920 -0.5999  0.2737 -0.1509
  174SOPE   H4R19743   6.971   1.872   9.894 -0.9429 -1.2585  1.0962
  174SOPE   H4S19744   6.797   1.837   9.907  2.1628 -2.6583  0.5728
  174SOPE   C2519745   6.835   2.032   9.824  0.1465 -0.2203  0.0753
  174SOPE   H5R19746   6.730   2.066   9.840 -0.4932 -0.7317 -2.5577
  174SOPE   H5S19747   6.905   2.116   9.837  1.6305 -1.5273  0.8521
  174SOPE   C2619748   6.839   2.002   9.676  0.6524  0.5111 -0.3265
  174SOPE   H6R19749   6.826   2.101   9.626  2.4831  0.9480 -0.0358
  174SOPE   H6S19750   6.932   1.947   9.647  0.3516 -0.9524  1.3160
  174SOPE   C2719751   6.714   1.919   9.629  0.6974  0.0482  0.3287
  174SOPE   H7R19752   6.727   1.814   9.662  0.4562 -0.3610 -0.8364
  174SOPE   H7S19753   6.621   1.962   9.672  0.9053  1.4085 -0.5105
  174SOPE   C2819754   6.697   1.927   9.476  0.0786 -0.3055  0.0039
  174SOPE   H8R19755   6.594   1.886   9.462 -0.8291  1.8076  0.0188
  174SOPE   H8S19756   6.681   2.030   9.438 -1.4058 -0.3473  0.4583
  174SOPE   C2919757   6.801   1.847   9.402  0.1708 -0.0191  0.1078
  174SOPE   H9119758   6.838   1.767   9.467 -2.1169 -0.0659  1.4611
  174SOPE  C21019759   6.868   1.877   9.287 -0.4334 -1.0083  0.6353
  174SOPE  H10119760   6.948   1.811   9.250  0.9005  1.4143 -1.0853
  174SOPE  C21119761   6.836   1.991   9.195 -0.1880  0.3057  0.9058
  174SOPE  H11R19762   6.925   2.051   9.170 -0.3316  1.0766  2.1757
  174SOPE  H11S19763   6.761   2.065   9.232 -0.1686  1.3714 -1.0482
  174SOPE  C21219764   6.775   1.947   9.058 -0.0351 -0.2981  0.1699
  174SOPE  H12R19765   6.739   2.040   9.010  1.9420  1.2620  1.5507
  174SOPE  H12S19766   6.688   1.883   9.086 -0.1278 -1.6352 -2.7728
  174SOPE  C21319767   6.872   1.870   8.956 -0.3084  0.1885 -0.5083
  174SOPE  H13R19768   6.923   1.791   9.015  1.5427  1.3148 -0.5245
  174SOPE  H13S19769   6.962   1.925   8.920  0.5121 -1.4185 -1.0130
  174SOPE  C21419770   6.799   1.798   8.838 -0.2310 -0.2381 -0.0094
  174SOPE  H14R19771   6.756   1.871   8.765 -1.4620  1.3191  2.1674
  174SOPE  H14S19772   6.723   1.729   8.881  0.6144 -2.3861 -1.7576
  174SOPE  C21519773   6.903   1.718   8.758 -0.2077  0.3022  0.1052
  174SOPE  H15R19774   6.851   1.673   8.670 -0.2736  1.9003 -0.6979
  174SOPE  H15S19775   6.944   1.632   8.815 -0.6161 -0.1776 -0.3030
  174SOPE  C21619776   7.021   1.800   8.701 -0.6004 -0.1818  0.6493
  174SOPE  H16R19777   7.102   1.832   8.770  1.1617 -0.8390 -1.0056
  174SOPE  H16S19778   6.988   1.894   8.652  1.2426  0.7333  1.0591
  174SOPE  C21719779   7.085   1.732   8.582 -0.5968  0.3947  0.3285
  174SOPE  H17R19780   7.146   1.806   8.526  2.0894 -1.7963  0.1397
  174SOPE  H17S19781   7.000   1.701   8.517 -0.9564 -0.8086  1.3247
  174SOPE  C21819782   7.170   1.610   8.616  0.9058  0.3866  0.6001
  174SOPE  H18R19783   7.273   1.640   8.641  0.5759  1.0142  1.2377
  174SOPE  H18S19784   7.165   1.543   8.527  0.7696 -0.9887  1.6246
  174SOPE  H18T19785   7.124   1.559   8.703 -1.0492 -1.3030 -1.2695
  174SOPE   C3319786   7.273   2.506  10.476  0.3704  0.3300 -0.1446
  174SOPE   H3X19787   7.266   2.563  10.572 -0.0001  0.9727 -0.5450
  174SOPE   H3Y19788   7.169   2.479  10.447  0.6272  0.8434 -1.6336
  174SOPE   C3419789   7.332   2.614  10.384 -0.2135 -0.6143  0.6870
  174SOPE   H4X19790   7.441   2.597  10.376  0.3563  2.2365  1.3650
  174SOPE   H4Y19791   7.325   2.722  10.410 -0.9618  0.3232 -2.7635
  174SOPE   C3519792   7.277   2.601  10.242  0.1335 -0.5204  0.9298
  174SOPE   H5X19793   7.194   2.674  10.228 -0.6213 -1.6812 -1.0255
  174SOPE   H5Y19794   7.216   2.510  10.225  1.1578 -0.7350 -2.1831
  174SOPE   C3619795   7.374   2.622  10.123 -0.3884 -0.3761  0.1674
  174SOPE   H6X19796   7.446   2.537  10.127  2.6094  2.0045  0.9293
  174SOPE   H6Y19797   7.418   2.721  10.145 -0.1902  0.2167 -2.5496
  174SOPE   C3719798   7.303   2.657   9.992  0.0351  0.0623  0.1139
  174SOPE   H7X19799   7.221   2.730  10.010  1.5967  2.5646 -2.0067
  174SOPE   H7Y19800   7.269   2.563   9.945  2.5673 -0.0976 -1.6467
  174SOPE   C3819801   7.387   2.733   9.890  0.4279  0.6984  0.2677
  174SOPE   H8X19802   7.479   2.676   9.865  0.6554  1.5073 -0.8054
  174SOPE   H8Y19803   7.426   2.832   9.921  1.6838 -0.0526  1.1449
  174SOPE   C3919804   7.323   2.738   9.751 -0.7608 -0.2182  0.0447
  174SOPE   H9X19805   7.227   2.793   9.763  0.1305  2.0982 -2.4290
  174SOPE   H9Y19806   7.308   2.632   9.721  1.0488 -0.1910 -1.0938
  174SOPE  C31019807   7.410   2.804   9.638 -0.9260  0.7195 -0.2751
  174SOPE  H10X19808   7.481   2.721   9.615 -2.9301 -0.8689 -0.9452
  174SOPE  H10Y19809   7.473   2.880   9.690 -0.5256 -0.6330  1.3392
  174SOPE  C31119810   7.349   2.856   9.508 -0.0125 -0.0379 -0.2060
  174SOPE  H11X19811   7.279   2.933   9.547  0.4633 -0.3016  1.2317
  174SOPE  H11Y19812   7.289   2.769   9.472 -0.9568  0.7107 -0.4910
  174SOPE  C31219813   7.446   2.905   9.407  0.6437 -0.4230  0.2778
  174SOPE  H12X19814   7.519   2.824   9.388 -1.4040 -2.3013  0.0743
  174SOPE  H12Y19815   7.485   3.005   9.437  3.5824 -1.4835  0.3028
  174SOPE  C31319816   7.377   2.946   9.268  0.2944 -0.2182  0.5339
  174SOPE  H13X19817   7.303   3.026   9.291 -0.7979 -0.6564 -1.3152
  174SOPE  H13Y19818   7.327   2.863   9.213  1.3274  1.3009 -2.9908
  174SOPE  C31419819   7.481   3.016   9.171 -0.3704 -0.1058 -1.1088
  174SOPE  H14X19820   7.544   3.090   9.225 -0.5445 -0.2416 -0.7233
  174SOPE  H14Y19821   7.424   3.075   9.095 -0.4471  0.5213 -0.5746
  174SOPE  C31519822   7.575   2.919   9.097 -0.1467  0.8965  0.1822
  174SOPE  H15X19823   7.600   2.833   9.162  0.1368 -1.1243 -2.4219
  174SOPE  H15Y19824   7.670   2.974   9.081  0.3493 -0.4870 -2.2280
  174SOPE  C31619825   7.516   2.862   8.970  0.4996 -0.5910 -0.6659
  174SOPE  H16X19826   7.551   2.938   8.897  1.3088 -0.1028  0.2049
  174SOPE  H16Y19827   7.406   2.861   8.985  0.6657  1.3295  1.1229
  174SOPE  C31719828   7.568   2.719   8.931  0.9374 -0.2609 -0.3104
  174SOPE  H17X19829   7.498   2.671   8.859 -0.7555  0.0722  1.0290
  174SOPE  H17Y19830   7.564   2.656   9.023  1.5632  1.8372  1.2168
  174SOPE  C31819831   7.703   2.714   8.862  0.5257 -0.0982  0.6034
  174SOPE  H18X19832   7.731   2.608   8.846 -1.1730 -0.4411 -0.3278
  174SOPE  H18Y19833   7.780   2.767   8.922  1.4595 -0.6705 -0.0618
  174SOPE  H18Z19834   7.691   2.764   8.763 -1.9537 -0.8732  0.4381
  175SOPE     N19835   0.047   6.223  10.873 -0.0759  0.6861 -0.1725
  175SOPE   HN119836   0.145   6.236  10.906  1.0252  0.4979 -3.0829
  175SOPE   HN219837  -0.004   6.310  10.899 -1.6463  0.4945 -2.3245
  175SOPE   HN319838   0.001   6.142  10.919 -0.9969  1.4671  0.3116
  175SOPE   C1219839   0.045   6.223  10.721 -0.3602  0.0307  0.4308
  175SOPE  H12A19840   0.108   6.134  10.698  0.1381 -0.5155  3.4702
  175SOPE  H12B19841   0.096   6.310  10.675 -0.6423 -0.4041 -0.7418
  175SOPE   C1119842  -0.097   6.214  10.666 -0.3487  0.4426 -0.2175
  175SOPE  H11A19843  -0.094   6.236  10.557  1.0483  0.6085 -0.1591
  175SOPE  H11B19844  -0.152   6.305  10.700 -1.6845 -1.6277  3.7434
  175SOPE     P19845  -0.161   5.965  10.611  0.0731  0.3230 -0.5949
  175SOPE   O1319846  -0.261   5.871  10.659  0.1478  0.1128 -0.0346
  175SOPE   O1419847  -0.018   5.921  10.602  0.0688  0.3371  0.1163
  175SOPE   O1219848  -0.164   6.093  10.700  0.0029 -0.0252  0.1743
  175SOPE   O1119849  -0.197   6.029  10.479  0.2204  0.0426 -0.0813
  175SOPE    C119850  -0.127   6.010  10.355 -0.8925  0.0026 -0.2658
  175SOPE    HA19851  -0.016   6.023  10.359 -0.9110  0.1993 -0.3845
  175SOPE    HB19852  -0.165   6.092  10.291 -0.3888  0.2540 -0.2546
  175SOPE    C219853  -0.161   5.871  10.291 -0.3660 -0.8900 -1.2346
  175SOPE    HS19854  -0.134   5.793  10.366  0.4696 -0.2101 -0.8119
  175SOPE   O2119855  -0.085   5.857  10.173 -0.0657  0.4249  0.1508
  175SOPE   C2119856  -0.015   5.746  10.165  0.3535  0.1812  0.6863
  175SOPE   O2219857   0.008   5.669  10.252  0.9563 -0.3551  0.0488
  175SOPE   C2219858   0.039   5.740  10.023 -0.8734  0.4969  0.0196
  175SOPE   H2R19859   0.076   5.842   9.996 -1.5845  0.3355 -1.7120
  175SOPE   H2S19860  -0.046   5.712   9.958 -0.1399 -0.6901 -0.4454
  175SOPE    C319861  -0.314   5.852  10.260  0.3577  0.5015  0.5008
  175SOPE    HX19862  -0.345   5.927  10.183 -3.0217 -1.2753 -0.0940
  175SOPE    HY19863  -0.363   5.872  10.358  0.7610  1.2368  0.5579
  175SOPE   O3119864  -0.343   5.716  10.215  0.3839 -0.4674  0.3564
  175SOPE   C3119865  -0.472   5.703  10.190  0.5975  0.4790  0.8669
  175SOPE   O3219866  -0.548   5.795  10.170  0.8377 -0.4907 -0.0780
  175SOPE   C3219867  -0.505   5.551  10.178 -0.3859  0.3953  0.1248
  175SOPE   H2X19868  -0.592   5.532  10.111 -0.6042 -2.4669  1.0794
  175SOPE   H2Y19869  -0.553   5.529  10.276 -1.5265 -1.1256 -0.7270
  175SOPE   C2319870   0.157   5.636  10.023  0.0989 -0.6371  0.2285
  175SOPE   H3R19871   0.136   5.531  10.054  0.4023 -0.6570  0.3727
  175SOPE   H3S19872   0.238   5.678  10.086  0.6225 -1.3435  0.0360
  175SOPE   C2419873   0.218   5.622   9.882 -0.2277  0.1717  0.6413
  175SOPE   H4R19874   0.306   5.554   9.888 -0.7592 -0.9750 -2.6268
  175SOPE   H4S19875   0.139   5.575   9.819 -1.6015  1.1263  1.6051
  175SOPE   C2519876   0.271   5.741   9.803 -0.0530 -0.3640 -0.4360
  175SOPE   H5R19877   0.208   5.831   9.819  0.7110 -0.0514  1.0544
  175SOPE   H5S19878   0.372   5.759   9.845 -0.4925  3.0927 -0.5408
  175SOPE   C2619879   0.284   5.718   9.652  0.2511 -0.2976  0.1781
  175SOPE   H6R19880   0.358   5.793   9.617  0.3020 -0.1244  0.6534
  175SOPE   H6S19881   0.316   5.613   9.638 -1.5686 -0.8859  0.1735
  175SOPE   C2719882   0.153   5.753   9.573 -0.2730  0.2710  0.2642
  175SOPE   H7R19883   0.088   5.663   9.564 -0.7011  0.7647 -2.0693
  175SOPE   H7S19884   0.103   5.839   9.623  1.2122  0.7914  0.9121
  175SOPE   C2819885   0.178   5.803   9.424 -0.3667  0.0927 -0.6415
  175SOPE   H8R19886   0.245   5.891   9.436 -0.1177 -0.2003  0.2051
  175SOPE   H8S19887   0.223   5.716   9.371  0.0326  0.5245 -1.0163
  175SOPE   C2919888   0.062   5.853   9.342  0.3518 -1.3131  0.5090
  175SOPE   H9119889  -0.042   5.817   9.352 -1.4751  2.9564 -0.4679
  175SOPE  C21019890   0.076   5.934   9.230 -0.3745 -0.2388 -0.8861
  175SOPE  H10119891  -0.011   5.964   9.170 -0.9687  0.9038  0.4887
  175SOPE  C21119892   0.208   5.988   9.184 -0.0754 -0.0147  0.4016
  175SOPE  H11R19893   0.292   5.952   9.247 -0.1692 -2.6143 -0.8182
  175SOPE  H11S19894   0.216   6.099   9.179 -2.5184  0.4206  3.2301
  175SOPE  C21219895   0.253   5.930   9.045 -0.1623  0.1371 -0.5845
  175SOPE  H12R19896   0.214   5.827   9.034  2.6309 -1.0433 -0.0607
  175SOPE  H12S19897   0.363   5.921   9.044 -0.1790 -0.0994 -0.3589
  175SOPE  C21319898   0.210   6.010   8.925 -0.1193  0.8178  0.1492
  175SOPE  H13R19899   0.267   6.103   8.906 -0.8865  1.1182 -0.7285
  175SOPE  H13S19900   0.104   6.038   8.941 -0.9859  0.4967 -3.9445
  175SOPE  C21419901   0.212   5.919   8.798 -0.0086 -0.4535 -0.4431
  175SOPE  H14R19902   0.159   5.824   8.818 -0.2798  0.1791  2.2943
  175SOPE  H14S19903   0.318   5.901   8.771  0.6944 -0.1366  1.8460
  175SOPE  C21519904   0.147   5.992   8.680  0.1155 -0.7671 -0.1179
  175SOPE  H15R19905   0.195   6.092   8.669  1.2375 -1.2508  0.2310
  175SOPE  H15S19906   0.040   5.999   8.709  0.2711 -1.3747  0.6200
  175SOPE  C21619907   0.169   5.918   8.547  0.9952 -0.0765 -0.2503
  175SOPE  H16R19908   0.153   5.809   8.555 -2.2119  0.2147 -1.4782
  175SOPE  H16S19909   0.277   5.935   8.524  0.5942  2.1711 -0.6691
  175SOPE  C21719910   0.096   5.977   8.436  1.2226  0.0281  0.3907
  175SOPE  H17R19911   0.113   6.086   8.421  1.1588 -0.3238 -3.0398
  175SOPE  H17S19912  -0.013   5.968   8.452  1.1986  0.9954  0.8435
  175SOPE  C21819913   0.115   5.900   8.302 -0.5977  0.4785 -0.5482
  175SOPE  H18R19914   0.225   5.889   8.300 -0.7407 -2.1800  1.3456
  175SOPE  H18S19915   0.080   5.953   8.210 -0.2063  1.6861 -0.0211
  175SOPE  H18T19916   0.062   5.802   8.302 -1.2689  0.7923 -2.4603
  175SOPE   C3319917  -0.391   5.456  10.141 -0.3120  0.3665 -0.7592
  175SOPE   H3X19918  -0.415   5.348  10.135  0.0722  0.0687  2.0608
  175SOPE   H3Y19919  -0.308   5.463  10.214 -0.4114  0.4249 -0.6498
  175SOPE   C3419920  -0.336   5.475   9.994 -0.3952  0.3117  0.1278
  175SOPE   H4X19921  -0.326   5.581   9.963  3.3345 -0.1294 -0.5853
  175SOPE   H4Y19922  -0.412   5.441   9.921 -0.3010 -0.1150  0.2264
  175SOPE   C3519923  -0.197   5.413   9.963  0.2846 -0.4280 -0.5729
  175SOPE   H5X19924  -0.206   5.303   9.975 -1.6000 -0.3385 -0.7633
  175SOPE   H5Y19925  -0.136   5.446  10.050 -2.3378 -1.4190  1.8196
  175SOPE   C3619926  -0.136   5.450   9.824 -0.3734  0.0481 -0.2884
  175SOPE   H6X19927  -0.030   5.417   9.828 -0.1698  0.8133  1.9091
  175SOPE   H6Y19928  -0.138   5.560   9.805  2.9755  0.3008  0.2833
  175SOPE   C3719929  -0.208   5.388   9.704  0.3673 -0.0386 -0.1729
  175SOPE   H7X19930  -0.317   5.394   9.725  0.5503 -1.7889  1.5350
  175SOPE   H7Y19931  -0.179   5.281   9.707  2.8866  0.6255  1.6909
  175SOPE   C3819932  -0.169   5.457   9.572  0.1962  0.4231 -0.0576
  175SOPE   H8X19933  -0.061   5.437   9.560  0.2808 -0.4745  1.9650
  175SOPE   H8Y19934  -0.174   5.568   9.579  1.0915  0.4056  1.0093
  175SOPE   C3919935  -0.258   5.423   9.450  0.2262  0.2630 -0.2505
  175SOPE   H9X19936  -0.364   5.448   9.473  0.5547  0.9122  0.6335
  175SOPE   H9Y19937  -0.255   5.314   9.429 -0.8806 -0.2960  2.2019
  175SOPE  C31019938  -0.208   5.509   9.339  0.4560 -0.6841  0.1791
  175SOPE  H10X19939  -0.101   5.493   9.317  0.5811 -0.9119  0.9614
  175SOPE  H10Y19940  -0.225   5.615   9.368 -0.4798 -1.7281  4.0106
  175SOPE  C31119941  -0.291   5.482   9.209  0.0395  0.1299  0.0246
  175SOPE  H11X19942  -0.389   5.534   9.206 -0.4964 -0.7354 -4.6914
  175SOPE  H11Y19943  -0.310   5.372   9.210 -0.5300  0.2200 -0.5198
  175SOPE  C31219944  -0.205   5.535   9.092 -0.4502 -1.1420  0.3291
  175SOPE  H12X19945  -0.114   5.472   9.087  0.1131 -0.2335 -3.2715
  175SOPE  H12Y19946  -0.173   5.640   9.110  0.0342 -1.2300  0.0039
  175SOPE  C31319947  -0.270   5.531   8.956 -0.1050 -0.0100  0.2441
  175SOPE  H13X19948  -0.350   5.605   8.974  0.6432  0.8041  0.2978
  175SOPE  H13Y19949  -0.304   5.425   8.951  3.8602 -1.4336 -0.2692
  175SOPE  C31419950  -0.170   5.574   8.847  0.2296 -0.3731  0.3421
  175SOPE  H14X19951  -0.089   5.501   8.867 -0.7813 -0.9982  2.3592
  175SOPE  H14Y19952  -0.121   5.671   8.871 -1.8560  0.9228 -0.3701
  175SOPE  C31519953  -0.234   5.583   8.706 -0.2914  0.7632  0.0614
  175SOPE  H15X19954  -0.336   5.627   8.710  0.3484  2.2104  1.0021
  175SOPE  H15Y19955  -0.235   5.478   8.669  0.5407  0.3397  1.1979
  175SOPE  C31619956  -0.144   5.664   8.611  0.5967  0.6982 -0.2167
  175SOPE  H16X19957  -0.039   5.628   8.618 -0.3492 -2.1351  0.6794
  175SOPE  H16Y19958  -0.146   5.772   8.637 -1.5408 -0.0206  3.1062
  175SOPE  C31719959  -0.192   5.646   8.459  0.3673 -1.3130 -0.2930
  175SOPE  H17X19960  -0.207   5.537   8.443  1.5732 -1.2995 -1.8097
  175SOPE  H17Y19961  -0.114   5.678   8.386  0.5803 -3.1090 -0.9023
  175SOPE  C31819962  -0.324   5.718   8.421 -0.1428 -0.5379 -0.3902
  175SOPE  H18X19963  -0.320   5.826   8.448  0.6209 -0.9517  1.2768
  175SOPE  H18Y19964  -0.405   5.669   8.480  0.7908 -1.4844  0.1318
  175SOPE  H18Z19965  -0.358   5.716   8.315 -1.2348  0.3272 -0.0744
  176SOPE     N19966   4.987   6.536  10.725  0.2514  0.0119 -0.0610
  176SOPE   HN119967   4.968   6.635  10.697 -2.0992 -1.0087 -2.5584
  176SOPE   HN219968   4.984   6.538  10.829  2.0848  1.6355  0.0329
  176SOPE   HN319969   5.083   6.503  10.701 -0.2168 -1.9065  0.5532
  176SOPE   C1219970   4.886   6.449  10.668  0.1440 -0.0083  0.3123
  176SOPE  H12A19971   4.927   6.415  10.571 -1.3003  1.4063 -0.8458
  176SOPE  H12B19972   4.790   6.502  10.650 -0.2113 -0.4709  0.8317
  176SOPE   C1119973   4.872   6.320  10.756  0.4159  0.5333  0.4388
  176SOPE  H11A19974   4.820   6.242  10.697  0.5033 -0.5633  1.7669
  176SOPE  H11B19975   4.819   6.330  10.852 -0.2109  0.5942  0.0903
  176SOPE     P19976   5.041   6.132  10.814  0.4398 -0.0959  0.2403
  176SOPE   O1319977   4.923   6.058  10.868 -0.1236  0.7342  0.8939
  176SOPE   O1419978   5.170   6.123  10.885  0.2534  0.2966 -0.8175
  176SOPE   O1219979   5.005   6.287  10.797 -0.1285  0.0963 -0.3922
  176SOPE   O1119980   5.058   6.086  10.664 -0.1266 -0.2341 -0.1485
  176SOPE    C119981   5.153   6.128  10.568  0.7074  0.1338  0.8373
  176SOPE    HA19982   5.210   6.039  10.536 -0.1895 -0.6186  1.2876
  176SOPE    HB19983   5.230   6.201  10.601  1.8337 -0.9954  0.7533
  176SOPE    C219984   5.080   6.184  10.440  0.3436 -0.6160 -0.1035
  176SOPE    HS19985   5.001   6.253  10.476 -1.0236 -2.3390  0.3325
  176SOPE   O2119986   5.018   6.079  10.370  0.5404  0.3429  0.4071
  176SOPE   C2119987   4.885   6.059  10.404 -0.3308 -0.1759  0.5189
  176SOPE   O2219988   4.821   6.125  10.481 -0.3818 -0.4826  0.4809
  176SOPE   C2219989   4.841   5.932  10.329  0.8660 -0.3314 -0.7013
  176SOPE   H2R19990   4.808   5.860  10.408  2.7912 -1.9824 -1.3044
  176SOPE   H2S19991   4.925   5.889  10.271  1.5181  0.3424 -0.2758
  176SOPE    C319992   5.180   6.261  10.353  0.0324  0.7681 -0.6818
  176SOPE    HX19993   5.277   6.207  10.353 -0.3556  0.0724 -0.5624
  176SOPE    HY19994   5.202   6.360  10.400 -3.1332  1.4962 -0.5052
  176SOPE   O3119995   5.134   6.273  10.218  0.3068 -0.4352 -0.0054
  176SOPE   C3119996   5.041   6.368  10.204  0.4407  0.7196 -0.2872
  176SOPE   O3219997   5.012   6.448  10.292  0.3985 -0.1116 -0.4620
  176SOPE   C3219998   4.990   6.363  10.058 -0.1655  0.3208 -0.3758
  176SOPE   H2X19999   4.917   6.446  10.052  1.5773  1.9926  0.4062
  176SOPE   H2Y20000   4.924   6.276  10.037  0.6229  0.0279 -1.7938
  176SOPE   C2320001   4.721   5.966  10.238  0.8872 -0.1675  0.1638
  176SOPE   H3R20002   4.659   6.046  10.283  2.7143 -0.1125  2.8576
  176SOPE   H3S20003   4.659   5.877  10.215 -0.4774  0.4226  1.4207
  176SOPE   C2420004   4.769   6.020  10.104 -0.1301 -0.7596 -0.0252
  176SOPE   H4R20005   4.678   6.068  10.062  0.8364  0.2295 -1.0371
  176SOPE   H4S20006   4.852   6.094  10.110  0.8884 -1.4163 -3.5159
  176SOPE   C2520007   4.824   5.915  10.006 -0.0773  0.5445 -0.0411
  176SOPE   H5R20008   4.921   5.873  10.037  0.2957  0.4637 -1.2585
  176SOPE   H5S20009   4.757   5.826  10.000 -1.2567  1.3309  0.8365
  176SOPE   C2620010   4.847   5.960   9.860  0.2467 -0.1498 -0.1941
  176SOPE   H6R20011   4.759   6.016   9.820  0.3947 -1.0972 -1.9642
  176SOPE   H6S20012   4.938   6.023   9.854 -0.7527  1.3596  0.0683
  176SOPE   C2720013   4.879   5.847   9.763 -0.4500  0.6282  0.5728
  176SOPE   H7R20014   4.982   5.817   9.791  0.9848  3.4136 -1.2965
  176SOPE   H7S20015   4.812   5.759   9.780  0.9594 -0.8506 -1.1252
  176SOPE   C2820016   4.876   5.889   9.611  0.0360  0.1996 -0.3614
  176SOPE   H8R20017   4.897   5.799   9.550  0.0633 -1.6359  2.2330
  176SOPE   H8S20018   4.770   5.921   9.597 -0.7682 -1.0774  2.2358
  176SOPE   C2920019   4.965   6.006   9.579  0.3461 -0.1588  0.4567
  176SOPE   H9120020   4.936   6.104   9.619 -1.1753  0.1034 -1.1621
  176SOPE  C21020021   5.064   6.013   9.487  0.7532  0.0545  0.2557
  176SOPE  H10120022   5.123   6.105   9.475 -0.0551  0.6217  0.5039
  176SOPE  C21120023   5.110   5.906   9.389 -0.0603 -0.2022 -0.4612
  176SOPE  H11R20024   5.079   5.805   9.424  1.9606 -0.1078  1.8268
  176SOPE  H11S20025   5.221   5.911   9.397 -0.2000  1.0500  1.0747
  176SOPE  C21220026   5.080   5.925   9.240 -0.2808  0.2691 -0.5282
  176SOPE  H12R20027   5.022   6.019   9.228 -0.4664  0.2493  0.1404
  176SOPE  H12S20028   5.012   5.846   9.202  1.1620 -0.6188 -1.3528
  176SOPE  C21320029   5.211   5.919   9.157  0.2883 -0.0241  0.1668
  176SOPE  H13R20030   5.252   5.824   9.197  1.2570  1.6013  3.4306
  176SOPE  H13S20031   5.291   5.984   9.197 -0.1229 -0.9801  2.7607
  176SOPE  C21420032   5.188   5.926   9.003  0.4769  0.6298  0.4809
  176SOPE  H14R20033   5.148   5.824   8.985  2.3183 -0.2071  0.8382
  176SOPE  H14S20034   5.286   5.943   8.955  1.0955  2.1468  2.1361
  176SOPE  C21520035   5.096   6.038   8.956  0.1510  0.6127  0.1435
  176SOPE  H15R20036   5.153   6.132   8.974 -0.6810  0.9272  1.2503
  176SOPE  H15S20037   4.996   6.046   9.005 -1.0217  0.1036 -2.0759
  176SOPE  C21620038   5.061   6.026   8.803 -0.5340 -0.5104 -0.2952
  176SOPE  H16R20039   4.971   6.089   8.796  0.6313  1.2322 -0.1949
  176SOPE  H16S20040   5.034   5.921   8.777  0.7196 -1.2536  1.2463
  176SOPE  C21720041   5.167   6.081   8.712  1.0129 -0.5804  0.0532
  176SOPE  H17R20042   5.252   6.010   8.704  0.4558 -1.3115  0.5187
  176SOPE  H17S20043   5.203   6.175   8.760  2.7177 -2.3764  2.5768
  176SOPE  C21820044   5.112   6.126   8.578  0.6196 -0.2099 -0.6867
  176SOPE  H18R20045   5.166   6.213   8.535 -0.6063  0.9068 -0.0367
  176SOPE  H18S20046   5.005   6.157   8.573  0.7295  0.1072 -1.1981
  176SOPE  H18T20047   5.113   6.041   8.506 -2.6314 -2.0690  1.2303
  176SOPE   C3320048   5.099   6.393   9.954  0.7528 -0.1090  0.2318
  176SOPE   H3X20049   5.180   6.317   9.956  0.7728 -0.1211 -0.6594
  176SOPE   H3Y20050   5.151   6.487   9.980 -0.1822  0.1977  1.0881
  176SOPE   C3420051   5.043   6.393   9.811 -0.2707 -0.7549 -0.4112
  176SOPE   H4X20052   4.977   6.480   9.794  1.9897  0.9608 -0.9409
  176SOPE   H4Y20053   4.985   6.298   9.808 -0.7806 -0.4906  0.8025
  176SOPE   C3520054   5.145   6.387   9.697  0.2312 -0.0410 -0.3774
  176SOPE   H5X20055   5.217   6.303   9.707  0.8436  0.3700 -1.1906
  176SOPE   H5Y20056   5.215   6.473   9.704  1.3282 -0.8201 -1.3685
  176SOPE   C3620057   5.080   6.390   9.560  0.4096 -0.1898  0.4710
  176SOPE   H6X20058   5.017   6.481   9.565  0.9069  0.0935  1.9079
  176SOPE   H6Y20059   5.013   6.302   9.557  3.3082 -2.6464 -4.0107
  176SOPE   C3720060   5.171   6.407   9.436 -0.3021  0.1317 -0.0238
  176SOPE   H7X20061   5.236   6.318   9.430 -1.0700 -0.3698 -1.3248
  176SOPE   H7Y20062   5.243   6.488   9.457  1.5163 -1.8966  2.1468
  176SOPE   C3820063   5.104   6.442   9.304 -0.9622 -0.6274 -0.5505
  176SOPE   H8X20064   5.069   6.547   9.313  0.7175 -0.0617 -0.1925
  176SOPE   H8Y20065   5.017   6.373   9.300  0.7658 -2.9016 -1.5714
  176SOPE   C3920066   5.186   6.424   9.181  0.4123  0.3055  0.6742
  176SOPE   H9X20067   5.199   6.314   9.176  1.0325  0.4326 -1.1765
  176SOPE   H9Y20068   5.286   6.470   9.194  0.1224  0.5201  2.4031
  176SOPE  C31020069   5.114   6.485   9.066 -0.2834  0.3870  0.2814
  176SOPE  H10X20070   5.114   6.595   9.080 -0.3467  0.6089 -1.2901
  176SOPE  H10Y20071   5.012   6.441   9.066  0.0368 -0.3708 -0.1523
  176SOPE  C31120072   5.177   6.453   8.939  0.3749 -0.1937  0.1996
  176SOPE  H11X20073   5.166   6.345   8.916  2.0919 -1.0785  3.0278
  176SOPE  H11Y20074   5.286   6.475   8.938  0.8955 -2.4256 -2.2066
  176SOPE  C31220075   5.112   6.519   8.814 -0.0879  0.4655 -0.7040
  176SOPE  H12X20076   5.001   6.521   8.814 -0.2730 -3.1440 -1.0563
  176SOPE  H12Y20077   5.153   6.474   8.721 -1.3252  0.8758 -1.4738
  176SOPE  C31320078   5.148   6.669   8.794 -0.2472 -0.2270  0.7237
  176SOPE  H13X20079   5.257   6.683   8.809  0.2222 -2.7683  0.2240
  176SOPE  H13Y20080   5.098   6.741   8.863 -1.4756 -0.2017 -0.1496
  176SOPE  C31420081   5.101   6.715   8.651 -0.1579  0.0302 -0.2713
  176SOPE  H14X20082   5.081   6.824   8.657 -0.3035 -0.0327  0.4852
  176SOPE  H14Y20083   5.015   6.647   8.631 -0.0076  0.0491 -0.9910
  176SOPE  C31520084   5.199   6.690   8.537 -0.4653 -0.0389 -0.0879
  176SOPE  H15X20085   5.208   6.580   8.522 -0.1353 -0.0446  0.1277
  176SOPE  H15Y20086   5.295   6.730   8.577 -0.4054 -1.5527  1.3988
  176SOPE  C31620087   5.147   6.755   8.409  0.5652  0.0006 -0.1614
  176SOPE  H16X20088   5.129   6.863   8.426 -0.8323 -0.4657  1.7436
  176SOPE  H16Y20089   5.051   6.701   8.389  0.8528 -0.1558 -1.1470
  176SOPE  C31720090   5.241   6.731   8.302  0.6958  0.4465  0.1235
  176SOPE  H17X20091   5.186   6.756   8.209  3.0247  1.1482 -1.1545
  176SOPE  H17Y20092   5.270   6.623   8.302 -1.8411 -0.3243  1.8990
  176SOPE  C31820093   5.368   6.809   8.286  0.0903 -0.2149 -0.0735
  176SOPE  H18X20094   5.436   6.810   8.374 -0.9977  0.3845  0.7921
  176SOPE  H18Y20095   5.340   6.914   8.262  1.2115  0.8669  2.8066
  176SOPE  H18Z20096   5.426   6.755   8.208  1.8493  0.0770  0.9865
  177SOPE     N20097   6.688   2.769  11.318 -0.6262  0.2836  0.1914
  177SOPE   HN120098   6.622   2.691  11.296  1.7970 -1.8843  0.0191
  177SOPE   HN220099   6.722   2.751  11.415  0.9517  0.0150 -0.3931
  177SOPE   HN320100   6.634   2.858  11.316  1.5381  1.6500 -0.1766
  177SOPE   C1220101   6.802   2.774  11.227 -0.1009 -0.3021  0.4451
  177SOPE  H12A20102   6.884   2.708  11.264 -1.2685 -1.0776  1.7105
  177SOPE  H12B20103   6.836   2.879  11.218 -0.1337 -0.4081 -1.3603
  177SOPE   C1120104   6.761   2.750  11.083  0.1327 -0.3868  0.7895
  177SOPE  H11A20105   6.848   2.761  11.015 -1.3132 -1.4220 -1.3476
  177SOPE  H11B20106   6.682   2.827  11.069  1.3205  0.8375  0.6598
  177SOPE     P20107   6.621   2.552  10.978 -0.2149  0.0939 -0.2697
  177SOPE   O1320108   6.500   2.636  10.958 -0.2849 -0.4955  0.3596
  177SOPE   O1420109   6.587   2.412  11.017 -0.9993  0.0125  0.4682
  177SOPE   O1220110   6.717   2.615  11.088  0.0047  0.6756  0.3207
  177SOPE   O1120111   6.707   2.554  10.845  0.1615 -0.0204 -0.3495
  177SOPE    C120112   6.836   2.494  10.847  0.9964 -0.5351  0.0920
  177SOPE    HA20113   6.852   2.407  10.914  4.6428  0.7336  1.0970
  177SOPE    HB20114   6.914   2.564  10.883  0.4406 -0.6342  1.5264
  177SOPE    C220115   6.886   2.445  10.704  0.1926  0.2958  0.5467
  177SOPE    HS20116   6.990   2.406  10.710 -0.1189 -1.0543 -1.7461
  177SOPE   O2120117   6.892   2.551  10.607 -0.2961 -0.5172 -0.0461
  177SOPE   C2120118   6.994   2.637  10.629  0.7873  0.2785  0.0846
  177SOPE   O2220119   7.070   2.636  10.723  0.0797 -0.6081 -0.2560
  177SOPE   C2220120   6.995   2.746  10.521 -0.4861 -0.3872  0.0942
  177SOPE   H2R20121   6.898   2.800  10.526  0.6367  1.6843  0.5516
  177SOPE   H2S20122   7.014   2.697  10.423  4.4318 -2.7318  1.8900
  177SOPE    C320123   6.789   2.333  10.638 -0.0046 -0.5279 -0.8577
  177SOPE    HX20124   6.770   2.255  10.716 -0.5417 -2.0478 -2.4550
  177SOPE    HY20125   6.851   2.291  10.556  0.7127  0.3204 -0.7666
  177SOPE   O3120126   6.663   2.389  10.594 -0.3853 -0.0169  0.0356
  177SOPE   C3120127   6.565   2.305  10.576 -0.0453 -0.0663  0.4423
  177SOPE   O3220128   6.566   2.187  10.601 -0.4269  0.0190  0.4687
  177SOPE   C3220129   6.439   2.375  10.524 -0.4607 -0.3869 -0.9489
  177SOPE   H2X20130   6.462   2.481  10.499 -3.1012  0.8789  1.4361
  177SOPE   H2Y20131   6.377   2.374  10.617  1.7458 -0.5940  0.5993
  177SOPE   C2320132   7.103   2.859  10.543 -0.7525 -0.0817 -0.0587
  177SOPE   H3R20133   7.206   2.818  10.545 -0.0332  1.6600  0.7130
  177SOPE   H3S20134   7.091   2.901  10.646  0.4277  0.3917 -0.1000
  177SOPE   C2420135   7.090   2.982  10.442  0.0375  0.8588 -0.4483
  177SOPE   H4R20136   6.992   3.034  10.439 -0.6617 -0.2982  0.9196
  177SOPE   H4S20137   7.154   3.066  10.477  0.0875  1.4801 -1.9707
  177SOPE   C2520138   7.150   2.944  10.302 -0.4300  0.4367  0.0371
  177SOPE   H5R20139   7.216   2.857  10.323 -0.7673  0.1231 -0.1864
  177SOPE   H5S20140   7.062   2.904  10.247 -1.2600  0.8669  1.0257
  177SOPE   C2620141   7.227   3.051  10.222 -0.1239  0.4801  0.4209
  177SOPE   H6R20142   7.192   3.156  10.225  0.6141  0.7464 -0.0769
  177SOPE   H6S20143   7.327   3.057  10.269  0.0861  1.8851 -0.1559
  177SOPE   C2720144   7.248   3.022  10.073 -1.0128 -0.1876 -0.1199
  177SOPE   H7R20145   7.312   2.931  10.071  0.4804  0.7646  1.3047
  177SOPE   H7S20146   7.151   3.012  10.021 -0.6714 -0.7102 -0.6653
  177SOPE   C2820147   7.332   3.135  10.007 -0.4420 -0.3266  0.9312
  177SOPE   H8R20148   7.273   3.227  10.026 -0.8806 -0.3017 -0.4755
  177SOPE   H8S20149   7.429   3.146  10.061  0.5114 -0.7937 -0.6376
  177SOPE   C2920150   7.358   3.110   9.861 -0.3844  0.3412  1.0167
  177SOPE   H9120151   7.445   3.045   9.841 -1.8765 -1.4032 -0.1469
  177SOPE  C21020152   7.279   3.154   9.758 -0.6912 -1.1598 -0.0758
  177SOPE  H10120153   7.303   3.131   9.653  0.7827 -0.8344  0.1694
  177SOPE  C21120154   7.156   3.226   9.777 -0.1417 -0.0704 -0.0133
  177SOPE  H11R20155   7.177   3.333   9.796 -2.1185  0.5999 -1.3109
  177SOPE  H11S20156   7.104   3.198   9.872  0.4068  0.9745  0.6144
  177SOPE  C21220157   7.054   3.201   9.671  0.0660 -0.7866  0.0472
  177SOPE  H12R20158   6.958   3.249   9.697 -0.6194 -2.3387  0.4766
  177SOPE  H12S20159   7.047   3.094   9.645  2.2455 -0.7795 -0.8158
  177SOPE  C21320160   7.106   3.257   9.536  0.2006 -0.4137  0.4128
  177SOPE  H13R20161   7.216   3.243   9.526  0.7996  2.3066  2.1687
  177SOPE  H13S20162   7.091   3.367   9.535  1.3334 -0.2022 -2.1255
  177SOPE  C21420163   7.048   3.193   9.411 -0.4779  0.5551  0.0350
  177SOPE  H14R20164   7.041   3.083   9.425  2.3952  0.2520 -0.1424
  177SOPE  H14S20165   7.120   3.195   9.326  0.3358 -2.3691  0.5323
  177SOPE  C21520166   6.918   3.258   9.367  0.5336  0.3857 -0.4791
  177SOPE  H15R20167   6.945   3.357   9.324  4.7463 -0.7231 -0.8886
  177SOPE  H15S20168   6.851   3.263   9.456 -0.0485  0.3702 -0.9171
  177SOPE  C21620169   6.845   3.179   9.257 -0.0022 -0.1053 -0.6610
  177SOPE  H16R20170   6.739   3.209   9.265 -0.4280 -2.0575  3.3291
  177SOPE  H16S20171   6.853   3.072   9.285  2.3316  0.4014  0.9353
  177SOPE  C21720172   6.903   3.205   9.115 -0.1621 -0.3267  0.2622
  177SOPE  H17R20173   7.004   3.163   9.135  0.9671  1.0473 -2.0859
  177SOPE  H17S20174   6.918   3.314   9.098  1.1947 -0.8699 -2.8793
  177SOPE  C21820175   6.822   3.151   8.998 -0.2004 -0.5188  0.5393
  177SOPE  H18R20176   6.883   3.162   8.906  1.0351 -0.0039  1.3988
  177SOPE  H18S20177   6.732   3.215   8.987  0.2542  0.0465  0.0607
  177SOPE  H18T20178   6.799   3.044   9.019 -0.1592 -0.8219 -0.8527
  177SOPE   C3320179   6.346   2.313  10.416 -0.5203  0.0788  0.4063
  177SOPE   H3X20180   6.254   2.374  10.400 -1.2347 -1.5612 -2.5955
  177SOPE   H3Y20181   6.310   2.210  10.440 -0.1265  0.3915  2.4908
  177SOPE   C3420182   6.423   2.314  10.283  0.1306  0.4098 -0.6422
  177SOPE   H4X20183   6.502   2.237  10.293 -0.3784 -0.1609 -0.9140
  177SOPE   H4Y20184   6.487   2.402  10.258  4.7768 -1.8595  1.9818
  177SOPE   C3520185   6.327   2.267  10.169 -0.2537  0.0965 -0.2542
  177SOPE   H5X20186   6.240   2.335  10.162  0.7168  1.2105 -2.6941
  177SOPE   H5Y20187   6.279   2.171  10.196  1.7449 -1.3803 -1.6027
  177SOPE   C3620188   6.397   2.261  10.035  0.4678 -0.0556  0.3678
  177SOPE   H6X20189   6.478   2.186  10.048 -0.9094 -1.9753 -1.3331
  177SOPE   H6Y20190   6.433   2.364  10.017 -0.8666  0.2549 -0.6475
  177SOPE   C3720191   6.302   2.227   9.922  0.3793  0.1144 -0.1369
  177SOPE   H7X20192   6.228   2.307   9.900  1.0237  1.5620  2.4695
  177SOPE   H7Y20193   6.238   2.142   9.955  0.8588 -0.5073 -0.7774
  177SOPE   C3820194   6.365   2.188   9.788 -0.7754 -0.7487  0.5232
  177SOPE   H8X20195   6.420   2.093   9.808 -0.4958 -0.3460  1.7158
  177SOPE   H8Y20196   6.437   2.266   9.758 -0.0207 -2.1173 -1.4273
  177SOPE   C3920197   6.268   2.170   9.669 -0.6399 -0.3281  0.1044
  177SOPE   H9X20198   6.218   2.266   9.646  1.6880  0.6076 -1.3584
  177SOPE   H9Y20199   6.191   2.096   9.700 -2.0997  1.2663  0.4401
  177SOPE  C31020200   6.344   2.123   9.541 -0.2155  0.1514  0.4211
  177SOPE  H10X20201   6.400   2.035   9.577 -0.9770 -1.5633 -2.3173
  177SOPE  H10Y20202   6.413   2.196   9.493 -0.9407 -0.5561 -1.8574
  177SOPE  C31120203   6.259   2.080   9.420  0.2949 -0.1713  0.0182
  177SOPE  H11X20204   6.190   2.164   9.397 -0.2452  0.2222  2.8129
  177SOPE  H11Y20205   6.200   1.994   9.457  0.2758 -1.1253 -2.0454
  177SOPE  C31220206   6.342   2.048   9.292  0.1103  0.9008  0.2517
  177SOPE  H12X20207   6.436   1.998   9.321  1.2521  3.1447  0.6268
  177SOPE  H12Y20208   6.389   2.131   9.235  0.3149  0.2415 -0.5645
  177SOPE  C31320209   6.248   1.963   9.207 -0.6845 -0.6346 -0.1432
  177SOPE  H13X20210   6.171   2.019   9.149 -1.2715 -1.8931 -0.6045
  177SOPE  H13Y20211   6.185   1.899   9.272 -1.8224 -0.9995 -1.5663
  177SOPE  C31420212   6.326   1.877   9.107  0.9938  0.1093  0.3897
  177SOPE  H14X20213   6.259   1.812   9.046  1.2493  1.7357 -1.7542
  177SOPE  H14Y20214   6.387   1.806   9.166 -0.9734 -1.3297  0.7968
  177SOPE  C31520215   6.426   1.962   9.025  0.7864 -0.3983  0.1687
  177SOPE  H15X20216   6.476   1.893   8.954 -1.0476  0.4674 -2.0863
  177SOPE  H15Y20217   6.503   2.021   9.081  1.5110 -0.0194 -1.1691
  177SOPE  C31620218   6.347   2.049   8.929  0.0626 -0.4298  0.4677
  177SOPE  H16X20219   6.281   2.124   8.978  0.0268 -0.9167  1.1785
  177SOPE  H16Y20220   6.276   1.988   8.868  1.7526 -1.3370 -0.6763
  177SOPE  C31720221   6.437   2.130   8.826 -0.1816  0.6848  0.2406
  177SOPE  H17X20222   6.505   2.203   8.877  0.6079  1.6503 -2.0503
  177SOPE  H17Y20223   6.363   2.187   8.766 -2.0943 -1.2466  0.6674
  177SOPE  C31820224   6.507   2.028   8.731 -0.3680 -0.6114  0.1588
  177SOPE  H18X20225   6.547   2.076   8.639  3.1080 -0.9811  1.3180
  177SOPE  H18Y20226   6.434   1.947   8.708  0.3618 -1.8410  1.9262
  177SOPE  H18Z20227   6.590   1.984   8.790  0.2297 -1.0971 -1.0019
  178SOPE     N20228   6.758   0.242  10.677  0.4372 -0.6734  0.1432
  178SOPE   HN120229   6.698   0.165  10.641 -1.8784  0.8347  0.6518
  178SOPE   HN220230   6.804   0.220  10.768  0.9908  2.1423  0.6245
  178SOPE   HN320231   6.699   0.322  10.705  3.2076  1.1561  1.1608
  178SOPE   C1220232   6.849   0.262  10.565 -0.6933  0.6319 -0.3549
  178SOPE  H12A20233   6.920   0.341  10.599 -1.9432  1.5205  0.2634
  178SOPE  H12B20234   6.787   0.296  10.479 -0.9976  1.1562  0.0677
  178SOPE   C1120235   6.933   0.134  10.534  0.4788  0.0447  0.5634
  178SOPE  H11A20236   7.013   0.170  10.466 -0.6633 -1.3291 -1.6543
  178SOPE  H11B20237   6.872   0.064  10.472 -0.3555 -0.2288  1.6658
  178SOPE     P20238   7.098   0.137  10.733 -0.0744  0.3786 -0.0818
  178SOPE   O1320239   7.145   0.040  10.842 -0.3740 -0.3829 -0.0303
  178SOPE   O1420240   7.056   0.265  10.788  0.3907 -0.1581  0.1598
  178SOPE   O1220241   6.989   0.067  10.646 -0.0035  0.0123  0.4505
  178SOPE   O1120242   7.224   0.156  10.641 -0.4087  0.1032 -0.2003
  178SOPE    C120243   7.328   0.052  10.625  0.0320  0.4019 -0.5302
  178SOPE    HA20244   7.307  -0.040  10.684  0.7323 -0.3749 -1.4628
  178SOPE    HB20245   7.421   0.096  10.668  0.3070 -0.0825 -0.6237
  178SOPE    C220246   7.350   0.009  10.480  0.3413 -0.5142 -0.1541
  178SOPE    HS20247   7.439  -0.056  10.467  0.1088 -1.0814  1.0007
  178SOPE   O2120248   7.369   0.130  10.397  0.8331 -0.2540  0.2968
  178SOPE   C2120249   7.485   0.181  10.404 -0.9250  0.0116 -0.0089
  178SOPE   O2220250   7.582   0.133  10.466  0.5835 -0.6166  0.6044
  178SOPE   C2220251   7.484   0.323  10.341  0.4409  0.7333 -0.6298
  178SOPE   H2R20252   7.560   0.377  10.401  2.6982 -2.6620 -0.1585
  178SOPE   H2S20253   7.382   0.366  10.355 -0.0486 -0.8425  1.3485
  178SOPE    C320254   7.226  -0.064  10.423  0.1278 -0.6794  0.5841
  178SOPE    HX20255   7.149   0.016  10.426  0.4501 -0.2976 -0.6140
  178SOPE    HY20256   7.197  -0.152  10.484 -1.3204 -1.4905 -1.1722
  178SOPE   O3120257   7.255  -0.111  10.288  0.3161  0.2532 -0.1450
  178SOPE   C3120258   7.185  -0.052  10.197 -0.5622  0.2605 -0.3238
  178SOPE   O3220259   7.095   0.031  10.212 -0.3784  0.1294  0.4677
  178SOPE   C3220260   7.254  -0.099  10.069 -0.0459 -0.0068  0.2853
  178SOPE   H2X20261   7.295  -0.201  10.081 -2.1255 -0.9339 -0.1002
  178SOPE   H2Y20262   7.340  -0.030  10.054 -0.6964  1.2748  2.0767
  178SOPE   C2320263   7.527   0.320  10.193  0.2586 -0.1825  0.1082
  178SOPE   H3R20264   7.514   0.421  10.148 -1.1342 -0.7526 -0.8195
  178SOPE   H3S20265   7.463   0.256  10.129 -1.9604 -0.3901  2.3798
  178SOPE   C2420266   7.667   0.275  10.165  0.4537  0.7815 -0.5648
  178SOPE   H4R20267   7.731   0.354  10.211  0.7725  1.0077 -1.3766
  178SOPE   H4S20268   7.679   0.177  10.216 -0.2593  0.5140 -0.9005
  178SOPE   C2520269   7.704   0.254  10.020 -0.4729 -0.0650 -0.5752
  178SOPE   H5R20270   7.625   0.194   9.970 -1.5199  0.2961  0.5722
  178SOPE   H5S20271   7.700   0.351   9.967 -0.7570  0.4372  0.3335
  178SOPE   C2620272   7.839   0.192  10.000  0.3135 -0.1738  0.2056
  178SOPE   H6R20273   7.924   0.241  10.052  0.4280  0.0853 -0.2216
  178SOPE   H6S20274   7.830   0.087  10.034  2.0224 -0.1359  0.8579
  178SOPE   C2720275   7.890   0.203   9.857 -0.1821 -0.2247 -0.6881
  178SOPE   H7R20276   7.893   0.311   9.834 -1.7751 -0.1199 -0.5103
  178SOPE   H7S20277   7.998   0.177   9.855  0.6190  2.7041 -3.1532
  178SOPE   C2820278   7.803   0.138   9.756  0.1030  0.4727 -1.0734
  178SOPE   H8R20279   7.814   0.030   9.778  1.3765  0.6398 -0.8305
  178SOPE   H8S20280   7.701   0.178   9.774 -0.6203 -2.3845  1.9110
  178SOPE   C2920281   7.860   0.155   9.616  1.0828 -0.3190  0.3445
  178SOPE   H9120282   7.970   0.148   9.606  1.1643  0.7226  0.4460
  178SOPE  C21020283   7.795   0.152   9.505 -1.1324 -0.1288  0.6032
  178SOPE  H10120284   7.856   0.156   9.413 -1.3204 -0.2368  0.4751
  178SOPE  C21120285   7.650   0.145   9.493  0.0003 -0.3396  0.4736
  178SOPE  H11R20286   7.609   0.242   9.529  0.1616  0.2829 -0.9297
  178SOPE  H11S20287   7.607   0.059   9.548  0.3061 -1.6936 -1.3075
  178SOPE  C21220288   7.626   0.141   9.338 -0.6019  0.6953  0.2809
  178SOPE  H12R20289   7.680   0.221   9.284 -1.8692  0.5532 -1.2645
  178SOPE  H12S20290   7.520   0.163   9.311 -1.1064 -0.7199  0.9527
  178SOPE  C21320291   7.644   0.003   9.277 -0.5778  0.3050 -0.2421
  178SOPE  H13R20292   7.580  -0.069   9.334 -0.4369 -0.3441 -0.8966
  178SOPE  H13S20293   7.747  -0.034   9.294 -0.7800  0.1949  0.8568
  178SOPE  C21420294   7.588   0.002   9.138 -0.3871 -0.3030 -0.9393
  178SOPE  H14R20295   7.600   0.102   9.093 -1.6317 -0.5937 -1.9509
  178SOPE  H14S20296   7.479  -0.001   9.159 -0.7338 -4.0274 -2.4067
  178SOPE  C21520297   7.624  -0.104   9.042  0.4247  0.1171  0.1146
  178SOPE  H15R20298   7.585  -0.201   9.078  1.7907 -1.1673 -1.6725
  178SOPE  H15S20299   7.733  -0.126   9.044  0.2939 -0.6896 -0.9878
  178SOPE  C21620300   7.576  -0.083   8.893 -0.4814 -0.6924 -0.8047
  178SOPE  H16R20301   7.629   0.003   8.846 -1.1003 -0.1142 -0.4661
  178SOPE  H16S20302   7.465  -0.072   8.893 -0.5371 -1.0897  1.0005
  178SOPE  C21720303   7.602  -0.197   8.792  0.0441  0.3982 -0.7735
  178SOPE  H17R20304   7.535  -0.279   8.828  0.2331  1.9341  3.7364
  178SOPE  H17S20305   7.703  -0.239   8.810 -0.1866  0.5065  1.0127
  178SOPE  C21820306   7.561  -0.155   8.657  0.0022  0.1158 -0.8087
  178SOPE  H18R20307   7.468  -0.096   8.645 -0.3964 -0.6087 -1.3855
  178SOPE  H18S20308   7.554  -0.240   8.585  0.7650 -1.2337  0.6626
  178SOPE  H18T20309   7.633  -0.084   8.611 -0.8191  0.0136 -2.3324
  178SOPE   C3320310   7.163  -0.086   9.938  0.8102 -0.1102 -0.2776
  178SOPE   H3X20311   7.102   0.006   9.943  1.6601  0.4049  1.4974
  178SOPE   H3Y20312   7.092  -0.172   9.934 -0.6802  0.9852  1.2574
  178SOPE   C3420313   7.246  -0.088   9.803 -0.2627  0.4324 -0.3891
  178SOPE   H4X20314   7.286  -0.191   9.790 -1.6936 -0.2216  0.1973
  178SOPE   H4Y20315   7.331  -0.016   9.811 -0.3065  0.2707  2.7610
  178SOPE   C3520316   7.151  -0.067   9.685  0.1237 -0.2617  0.5404
  178SOPE   H5X20317   7.079   0.015   9.705  0.5845 -0.3171  2.6399
  178SOPE   H5Y20318   7.092  -0.159   9.667  1.2921 -1.0420  0.5708
  178SOPE   C3620319   7.227  -0.031   9.554 -0.6684  0.6651  0.2008
  178SOPE   H6X20320   7.293  -0.109   9.510 -0.2108  1.6624 -0.9338
  178SOPE   H6Y20321   7.294   0.052   9.582  1.3330 -0.1231 -1.9210
  178SOPE   C3720322   7.137   0.036   9.454  0.0309 -0.6413  0.2447
  178SOPE   H7X20323   7.060   0.109   9.490  0.8662 -0.4356  1.7169
  178SOPE   H7Y20324   7.071  -0.048   9.424 -0.0841 -1.6132  2.9182
  178SOPE   C3820325   7.209   0.068   9.323  0.4705 -1.0817 -0.1924
  178SOPE   H8X20326   7.272  -0.017   9.289  0.2429 -1.6135  0.6947
  178SOPE   H8Y20327   7.266   0.162   9.338 -0.6971 -0.2655 -0.7410
  178SOPE   C3920328   7.120   0.089   9.195 -0.1249  0.4677  0.4573
  178SOPE   H9X20329   7.042   0.165   9.210 -1.0568  0.6672 -4.0575
  178SOPE   H9Y20330   7.066  -0.006   9.176  1.0500 -0.0992 -0.2135
  178SOPE  C31020331   7.210   0.117   9.076  0.5253  0.6979  0.3002
  178SOPE  H10X20332   7.281   0.031   9.075 -0.3755 -0.1773 -2.8118
  178SOPE  H10Y20333   7.258   0.217   9.079 -1.6645  1.9130 -1.6062
  178SOPE  C31120334   7.132   0.108   8.946  1.1135  0.2971  0.2035
  178SOPE  H11X20335   7.051   0.184   8.951  0.3373 -0.0055 -4.0721
  178SOPE  H11Y20336   7.082   0.009   8.935  0.1135  0.9094 -0.9735
  178SOPE  C31220337   7.213   0.149   8.824  0.0435  0.3851  0.2890
  178SOPE  H12X20338   7.304   0.088   8.812  0.1534  1.1070 -4.1725
  178SOPE  H12Y20339   7.250   0.253   8.837  0.8490 -0.0994  2.2243
  178SOPE  C31320340   7.137   0.146   8.690 -0.2903 -0.0418 -0.2782
  178SOPE  H13X20341   7.068   0.232   8.672 -0.5333 -0.5065 -1.6745
  178SOPE  H13Y20342   7.077   0.053   8.692 -1.0135  0.4250  0.9275
  178SOPE  C31420343   7.229   0.136   8.570 -0.5386 -0.4852 -0.0122
  178SOPE  H14X20344   7.274   0.036   8.555  1.4187  0.3443  0.0266
  178SOPE  H14Y20345   7.318   0.200   8.589 -0.6675 -1.1065  3.4399
  178SOPE  C31520346   7.156   0.183   8.440 -0.4684 -0.2369  0.4282
  178SOPE  H15X20347   7.120   0.287   8.458 -0.5357 -0.4093  1.3043
  178SOPE  H15Y20348   7.066   0.125   8.412 -0.1912  0.8043 -3.1665
  178SOPE  C31620349   7.250   0.181   8.309  0.2888 -0.4369  0.5538
  178SOPE  H16X20350   7.301   0.083   8.317 -2.5831 -2.0811  0.1653
  178SOPE  H16Y20351   7.325   0.261   8.326  0.4094 -0.7375  1.4707
  178SOPE  C31720352   7.181   0.216   8.174 -0.2179 -0.2150 -0.0591
  178SOPE  H17X20353   7.109   0.138   8.144 -0.4519 -0.3250  0.7715
  178SOPE  H17Y20354   7.267   0.216   8.104  1.3481  1.4856  1.7539
  178SOPE  C31820355   7.101   0.343   8.182  0.1178  0.0613 -0.1700
  178SOPE  H18X20356   7.150   0.408   8.257 -0.4422 -0.4222  0.6302
  178SOPE  H18Y20357   7.002   0.328   8.229  0.4792  1.8292  1.2865
  178SOPE  H18Z20358   7.088   0.382   8.079 -0.1740  2.6439  0.7894
  179SOPE     N20359   0.840   3.065   6.296  0.8757 -0.2568  0.0229
  179SOPE   HN120360   0.914   2.999   6.267 -0.3334 -0.4617 -2.8904
  179SOPE   HN220361   0.768   3.059   6.221  1.4347  0.1266 -0.5536
  179SOPE   HN320362   0.885   3.159   6.302  0.1723  0.0187  1.7356
  179SOPE   C1220363   0.782   3.056   6.432  0.5805 -0.0332 -0.4333
  179SOPE  H12A20364   0.865   3.046   6.506 -0.1030 -0.2050  0.3224
  179SOPE  H12B20365   0.725   2.961   6.434  0.2873  0.0813 -2.0909
  179SOPE   C1120366   0.683   3.176   6.452  0.5057 -0.0372 -0.2393
  179SOPE  H11A20367   0.747   3.264   6.429  1.7356 -0.2698  1.9908
  179SOPE  H11B20368   0.642   3.196   6.553 -2.4939 -1.2229 -1.1054
  179SOPE     P20369   0.440   3.093   6.397 -0.1051 -0.1761 -0.1607
  179SOPE   O1320370   0.415   2.995   6.288 -0.2814  0.2637 -0.4461
  179SOPE   O1420371   0.328   3.186   6.428  0.2730  0.3017 -0.9548
  179SOPE   O1220372   0.570   3.175   6.363 -0.0871 -0.3299  0.0947
  179SOPE   O1120373   0.477   3.023   6.525 -0.3739 -0.2593  0.6513
  179SOPE    C120374   0.436   2.886   6.556  0.1042 -0.4388 -0.1957
  179SOPE    HA20375   0.505   2.810   6.512  0.8421 -1.4313  2.4889
  179SOPE    HB20376   0.332   2.863   6.527 -0.7777  1.1592  1.5209
  179SOPE    C220377   0.450   2.867   6.709 -0.5087  0.2321 -0.1842
  179SOPE    HS20378   0.409   2.767   6.734 -0.2629 -0.2865 -1.7336
  179SOPE   O2120379   0.400   2.974   6.781  0.1982 -0.1789 -0.2254
  179SOPE   C2120380   0.271   2.961   6.815 -0.2135 -0.2072 -0.6341
  179SOPE   O2220381   0.205   2.858   6.806 -0.5849  0.0835  0.4487
  179SOPE   C2220382   0.223   3.087   6.881  0.1407 -0.5226 -0.8863
  179SOPE   H2R20383   0.237   3.173   6.812  0.4356  0.6946  0.6273
  179SOPE   H2S20384   0.284   3.111   6.971 -1.2823 -1.8447  0.4823
  179SOPE    C320385   0.603   2.863   6.736  0.3243  0.4867 -0.0333
  179SOPE    HX20386   0.654   2.952   6.692  0.5695 -0.4368 -1.6830
  179SOPE    HY20387   0.644   2.778   6.678  0.0469  0.1806  0.2176
  179SOPE   O3120388   0.620   2.828   6.878  0.3700  0.0977 -0.0614
  179SOPE   C3120389   0.631   2.933   6.949 -0.2567  0.0993 -0.1935
  179SOPE   O3220390   0.659   3.047   6.904 -0.2831  0.1605 -0.1336
  179SOPE   C3220391   0.608   2.887   7.091  0.0801 -0.0640  0.7538
  179SOPE   H2X20392   0.676   2.801   7.107 -1.7367 -1.5726  0.6730
  179SOPE   H2Y20393   0.507   2.841   7.093  0.2543 -0.4493  0.8827
  179SOPE   C2320394   0.075   3.090   6.913  0.2006  0.0167  0.2778
  179SOPE   H3R20395   0.025   3.053   6.821 -0.5638 -0.4495  0.8657
  179SOPE   H3S20396   0.058   3.198   6.932  0.4613  0.2258 -0.6123
  179SOPE   C2420397   0.027   3.015   7.046  0.2526  0.6791  0.8172
  179SOPE   H4R20398  -0.083   3.032   7.045  0.3368  1.2328  0.1718
  179SOPE   H4S20399   0.039   2.906   7.024 -0.0318  1.1080 -1.7650
  179SOPE   C2520400   0.109   3.063   7.165  0.6548 -0.3371  0.9613
  179SOPE   H5R20401   0.216   3.033   7.158  0.6217 -0.5077  1.2008
  179SOPE   H5S20402   0.104   3.174   7.166  1.8338 -0.2757  0.9438
  179SOPE   C2620403   0.050   3.010   7.292  0.8401  0.0601  1.1535
  179SOPE   H6R20404  -0.004   2.914   7.278 -2.6516  2.1600 -1.0127
  179SOPE   H6S20405   0.127   2.994   7.371  1.9680  0.0334  0.0896
  179SOPE   C2720406  -0.055   3.112   7.350 -0.6317  0.2172  0.3446
  179SOPE   H7R20407  -0.007   3.212   7.358 -1.1208  0.3846  1.3006
  179SOPE   H7S20408  -0.136   3.128   7.275  1.1512  3.6867 -1.0712
  179SOPE   C2820409  -0.111   3.082   7.488 -0.4042  0.3563  0.2358
  179SOPE   H8R20410  -0.182   3.162   7.518 -0.2231  0.7188 -0.3032
  179SOPE   H8S20411  -0.155   2.980   7.489 -1.3470  0.4608 -5.0601
  179SOPE   C2920412  -0.002   3.104   7.591 -0.4868 -0.4512 -0.8382
  179SOPE   H9120413   0.067   3.188   7.575  0.1416 -0.6363  0.7587
  179SOPE  C21020414   0.022   3.029   7.696  0.0968 -0.6577  0.0668
  179SOPE  H10120415   0.100   3.067   7.764 -0.9028 -1.2312  1.5918
  179SOPE  C21120416  -0.064   2.917   7.749 -0.3057 -0.0808  0.3440
  179SOPE  H11R20417   0.001   2.866   7.823 -1.0413 -0.1790  0.9360
  179SOPE  H11S20418  -0.080   2.841   7.670 -0.1159  0.8326 -0.6044
  179SOPE  C21220419  -0.198   2.943   7.817 -0.2465 -0.2409  0.1686
  179SOPE  H12R20420  -0.237   2.839   7.816  2.9267 -1.5392 -0.3072
  179SOPE  H12S20421  -0.257   2.999   7.742 -0.7453 -1.2021 -0.1846
  179SOPE  C21320422  -0.196   3.002   7.955  0.2241 -0.3699 -0.3291
  179SOPE  H13R20423  -0.293   3.051   7.975  0.3642  0.4263 -1.5434
  179SOPE  H13S20424  -0.118   3.079   7.968  1.3489 -1.4534 -0.4172
  179SOPE  C21420425  -0.155   2.903   8.056  0.2126 -0.8423 -0.3030
  179SOPE  H14R20426  -0.055   2.860   8.034  0.0630 -1.6752  0.5162
  179SOPE  H14S20427  -0.235   2.825   8.059 -0.9180  0.3000  0.9644
  179SOPE  C21520428  -0.161   2.963   8.194  0.3328 -0.3964 -0.3354
  179SOPE  H15R20429  -0.269   2.966   8.219 -0.6599 -1.3129 -3.8994
  179SOPE  H15S20430  -0.128   3.068   8.181 -0.1236 -0.1967  0.0850
  179SOPE  C21620431  -0.061   2.896   8.295  0.0880 -1.0405 -0.1289
  179SOPE  H16R20432   0.045   2.915   8.266 -0.0035 -0.8068 -0.3231
  179SOPE  H16S20433  -0.081   2.787   8.300  1.3413 -1.3483 -1.2432
  179SOPE  C21720434  -0.080   2.967   8.432 -0.4413 -0.1390 -0.4300
  179SOPE  H17R20435  -0.021   2.903   8.502  0.2513  0.2779 -0.6198
  179SOPE  H17S20436  -0.182   2.946   8.470 -0.4036  2.2795  1.2217
  179SOPE  C21820437  -0.043   3.114   8.446  0.4207  0.1527 -0.1144
  179SOPE  H18R20438  -0.061   3.142   8.552  0.7693 -1.8611  0.5032
  179SOPE  H18S20439  -0.107   3.170   8.374  0.2393 -2.8187 -2.4633
  179SOPE  H18T20440   0.062   3.144   8.425  0.8946  0.8631  2.8334
  179SOPE   C3320441   0.607   2.995   7.199 -0.2458 -0.1494 -0.2032
  179SOPE   H3X20442   0.552   3.085   7.162  1.4966  0.9217 -0.3337
  179SOPE   H3Y20443   0.711   3.030   7.216  0.0747 -0.8665 -0.6380
  179SOPE   C3420444   0.547   2.939   7.327 -0.0112 -0.2246  0.1737
  179SOPE   H4X20445   0.622   2.872   7.375  0.0054 -0.5511 -0.3012
  179SOPE   H4Y20446   0.466   2.868   7.300 -0.9896  0.7435  0.5124
  179SOPE   C3520447   0.485   3.049   7.416 -0.0037 -1.0512 -0.1264
  179SOPE   H5X20448   0.378   3.063   7.388  0.7974  1.1873 -2.4731
  179SOPE   H5Y20449   0.532   3.147   7.392 -1.7291 -0.2939 -0.5520
  179SOPE   C3620450   0.522   3.020   7.560 -0.7047  0.5318  0.7331
  179SOPE   H6X20451   0.622   3.058   7.588 -0.3866  0.7999 -0.6997
  179SOPE   H6Y20452   0.526   2.910   7.570 -1.7829  0.2216 -1.6318
  179SOPE   C3720453   0.434   3.067   7.670  0.9572  0.5536 -0.1436
  179SOPE   H7X20454   0.335   3.071   7.621  0.9822 -1.6367 -0.4436
  179SOPE   H7Y20455   0.463   3.174   7.685  0.5395  0.8752 -1.5486
  179SOPE   C3820456   0.439   2.977   7.799 -1.0928 -0.5183 -0.4189
  179SOPE   H8X20457   0.536   3.007   7.844  0.3345 -1.0176 -2.9582
  179SOPE   H8Y20458   0.449   2.869   7.775  2.7660 -0.0046 -1.9049
  179SOPE   C3920459   0.333   3.011   7.910 -0.3869  1.2291  0.5576
  179SOPE   H9X20460   0.360   2.968   8.009 -2.1682  1.5278  1.2031
  179SOPE   H9Y20461   0.240   2.969   7.868 -0.5739  1.4771  0.7188
  179SOPE  C31020462   0.305   3.163   7.914 -0.0694 -0.1796 -0.1263
  179SOPE  H10X20463   0.255   3.211   7.827 -1.1216 -0.8728  0.0771
  179SOPE  H10Y20464   0.407   3.208   7.909 -0.3081  0.4653  0.8352
  179SOPE  C31120465   0.241   3.206   8.052 -0.2322  0.3396 -0.6019
  179SOPE  H11X20466   0.308   3.166   8.131 -0.1550 -2.9179 -2.1480
  179SOPE  H11Y20467   0.146   3.148   8.053 -0.3391  0.4911  1.0821
  179SOPE  C31220468   0.195   3.347   8.059 -0.2065 -0.2759  0.7002
  179SOPE  H12X20469   0.103   3.378   8.006 -0.2855 -0.7639  0.5476
  179SOPE  H12Y20470   0.277   3.398   8.004 -0.8545  1.2189  1.0972
  179SOPE  C31320471   0.187   3.399   8.206  0.0136 -0.2847 -1.2171
  179SOPE  H13X20472   0.287   3.398   8.256  1.0867  2.5670 -2.9947
  179SOPE  H13Y20473   0.117   3.338   8.266  1.4976 -0.1816  0.7192
  179SOPE  C31420474   0.142   3.543   8.221 -0.0781  0.0504 -0.1534
  179SOPE  H14X20475   0.032   3.557   8.214  0.2537  2.6346 -1.2909
  179SOPE  H14Y20476   0.184   3.620   8.153 -1.3891  0.2926 -0.7103
  179SOPE  C31520477   0.181   3.590   8.362  0.0804 -0.6996  0.2734
  179SOPE  H15X20478   0.292   3.589   8.358  0.0962 -0.0713  0.4717
  179SOPE  H15Y20479   0.144   3.519   8.439 -2.9569 -0.4510 -0.8106
  179SOPE  C31620480   0.137   3.737   8.401  0.0331 -0.8509  0.1881
  179SOPE  H16X20481   0.030   3.748   8.429  0.1405  1.4139 -0.0474
  179SOPE  H16Y20482   0.153   3.808   8.317  1.9572  0.6426  1.7451
  179SOPE  C31720483   0.216   3.802   8.513  0.2081 -0.3166 -0.1200
  179SOPE  H17X20484   0.318   3.826   8.476 -0.5561 -1.3214 -3.1910
  179SOPE  H17Y20485   0.231   3.724   8.590  0.1131  0.4314  0.6724
  179SOPE  C31820486   0.139   3.924   8.576 -0.1988  0.3960  0.8228
  179SOPE  H18X20487   0.114   4.009   8.508 -0.0379  2.2081  2.9025
  179SOPE  H18Y20488   0.193   3.980   8.655 -0.8033 -0.1281  1.6277
  179SOPE  H18Z20489   0.041   3.901   8.622 -0.7076  1.0130  0.0865
  180SOPE     N20490   6.147   1.540   6.242 -0.1106 -0.2485 -0.1768
  180SOPE   HN120491   6.092   1.604   6.182  1.6133  1.4641 -0.0738
  180SOPE   HN220492   6.131   1.438   6.228  0.8803 -0.5723  0.8297
  180SOPE   HN320493   6.135   1.565   6.342  0.6796  2.5290 -0.6710
  180SOPE   C1220494   6.291   1.558   6.213 -0.3115  0.4377 -0.2508
  180SOPE  H12A20495   6.314   1.651   6.269 -2.6397  0.9513 -0.0542
  180SOPE  H12B20496   6.294   1.577   6.104 -0.3745 -1.1289 -0.5399
  180SOPE   C1120497   6.370   1.434   6.254 -0.2576  0.0607  0.0986
  180SOPE  H11A20498   6.470   1.434   6.207 -0.1483  1.8004  0.2411
  180SOPE  H11B20499   6.332   1.337   6.216  0.3525  0.2638 -1.0825
  180SOPE     P20500   6.499   1.529   6.469  0.1866 -0.2341 -0.2196
  180SOPE   O1320501   6.440   1.660   6.500 -0.1930 -0.1784  0.0533
  180SOPE   O1420502   6.619   1.518   6.384 -0.6453  0.2347  0.2575
  180SOPE   O1220503   6.388   1.433   6.398  0.7239  0.0336  0.6916
  180SOPE   O1120504   6.526   1.465   6.614  0.5359 -0.4772 -0.6862
  180SOPE    C120505   6.412   1.419   6.699 -1.4194  0.3065 -1.3237
  180SOPE    HA20506   6.396   1.309   6.686 -2.9248  0.6291 -2.5211
  180SOPE    HB20507   6.319   1.465   6.659 -1.6088  0.4532 -0.7318
  180SOPE    C220508   6.432   1.461   6.854  0.6145 -0.6289 -0.3215
  180SOPE    HS20509   6.347   1.415   6.908  0.3756 -1.4636 -1.4012
  180SOPE   O2120510   6.438   1.609   6.856  0.7532 -0.8086 -0.1575
  180SOPE   C2120511   6.399   1.666   6.973  0.3669  1.3701 -0.0291
  180SOPE   O2220512   6.335   1.602   7.060 -0.2715 -0.3171 -0.2460
  180SOPE   C2220513   6.427   1.819   6.978 -0.4248  0.2538 -0.2404
  180SOPE   H2R20514   6.341   1.879   6.943 -0.9425  1.5195  2.9149
  180SOPE   H2S20515   6.517   1.837   6.914  0.8310 -1.7269  0.8356
  180SOPE    C320516   6.561   1.402   6.910 -0.2284  0.3105 -0.0307
  180SOPE    HX20517   6.643   1.452   6.853  3.8012 -0.5759  4.3268
  180SOPE    HY20518   6.564   1.291   6.899  0.0763  0.1228  1.6227
  180SOPE   O3120519   6.579   1.435   7.045 -0.1419 -0.5493  0.0669
  180SOPE   C3120520   6.517   1.361   7.135 -0.0933  0.0209 -0.2651
  180SOPE   O3220521   6.465   1.252   7.111 -0.4497  0.1113  0.1510
  180SOPE   C3220522   6.530   1.435   7.272  0.1889  0.5182 -0.1908
  180SOPE   H2X20523   6.473   1.529   7.259 -1.5633 -0.2685  1.3255
  180SOPE   H2Y20524   6.635   1.468   7.290  0.1448  0.0820  0.9897
  180SOPE   C2320525   6.482   1.865   7.112  0.3837  0.3197 -0.0368
  180SOPE   H3R20526   6.512   1.972   7.104  1.4285  0.0914  0.6790
  180SOPE   H3S20527   6.577   1.816   7.141  0.2853  0.0658 -0.1408
  180SOPE   C2420528   6.369   1.869   7.221 -0.4025  0.2480  0.1881
  180SOPE   H4R20529   6.280   1.915   7.172 -1.2997 -0.3743  1.2173
  180SOPE   H4S20530   6.344   1.770   7.264  1.2167  0.4272  1.6484
  180SOPE   C2520531   6.406   1.967   7.334 -0.0749  0.2485  0.1970
  180SOPE   H5R20532   6.431   2.067   7.293 -1.0584  0.3186 -0.2479
  180SOPE   H5S20533   6.320   1.971   7.403 -1.2333  1.3828 -1.2298
  180SOPE   C2620534   6.523   1.921   7.418  0.5499  0.2737 -0.0236
  180SOPE   H6R20535   6.605   1.916   7.343 -0.0115 -1.7063 -0.5733
  180SOPE   H6S20536   6.554   1.997   7.493  0.6594  0.8437 -0.6458
  180SOPE   C2720537   6.514   1.788   7.491 -0.1409  0.2704  0.4968
  180SOPE   H7R20538   6.440   1.793   7.573  1.0124  0.4582  1.5688
  180SOPE   H7S20539   6.495   1.705   7.419  0.1837 -1.1545  1.9785
  180SOPE   C2820540   6.645   1.742   7.562 -0.0085 -0.2903 -0.1343
  180SOPE   H8R20541   6.606   1.659   7.625 -0.9869 -0.8612 -1.4523
  180SOPE   H8S20542   6.720   1.692   7.497  1.3489  0.3530  0.8866
  180SOPE   C2920543   6.722   1.843   7.639  0.5053 -0.1300 -0.6638
  180SOPE   H9120544   6.799   1.903   7.588 -0.1525  1.6459  0.3106
  180SOPE  C21020545   6.701   1.870   7.771  0.8589  0.1619  0.4234
  180SOPE  H10120546   6.759   1.945   7.827  0.3395  0.6842  0.2577
  180SOPE  C21120547   6.603   1.800   7.856  0.5961  0.0595 -0.9561
  180SOPE  H11R20548   6.578   1.697   7.826 -2.9110  0.3815  0.4076
  180SOPE  H11S20549   6.510   1.860   7.860  2.4965  3.3632 -1.9676
  180SOPE  C21220550   6.657   1.786   8.000 -0.1034  0.0311 -0.1623
  180SOPE  H12R20551   6.581   1.730   8.058 -0.0644 -1.4704 -1.4632
  180SOPE  H12S20552   6.670   1.889   8.039 -1.3599  0.6816 -1.3898
  180SOPE  C21320553   6.783   1.696   8.016 -0.0482 -0.0005  0.6122
  180SOPE  H13R20554   6.872   1.738   7.964 -0.7409 -0.0880 -0.6826
  180SOPE  H13S20555   6.780   1.604   7.955  0.2885 -0.5240  1.3637
  180SOPE  C21420556   6.836   1.667   8.159 -0.1798 -1.3062 -1.2543
  180SOPE  H14R20557   6.827   1.754   8.227  0.1787 -1.8597 -0.4794
  180SOPE  H14S20558   6.941   1.630   8.153 -0.4047 -1.9016 -1.7354
  180SOPE  C21520559   6.760   1.550   8.231 -0.5299 -0.0178 -0.7876
  180SOPE  H15R20560   6.747   1.466   8.160  1.1704 -0.2582 -0.8650
  180SOPE  H15S20561   6.661   1.588   8.265 -0.0908 -0.7799  1.5564
  180SOPE  C21620562   6.828   1.498   8.363  0.4650 -0.6195 -0.1553
  180SOPE  H16R20563   6.866   1.580   8.427  0.5736 -0.3678 -0.5422
  180SOPE  H16S20564   6.922   1.446   8.334  1.5325  1.2936 -0.3006
  180SOPE  C21720565   6.729   1.413   8.444 -0.0116 -0.2823  0.1263
  180SOPE  H17R20566   6.693   1.336   8.373 -1.0007 -0.3233  0.6547
  180SOPE  H17S20567   6.652   1.484   8.482  1.4009  1.3027  0.1296
  180SOPE  C21820568   6.801   1.330   8.550  0.6021  0.0401 -0.1186
  180SOPE  H18R20569   6.846   1.405   8.618 -0.5364 -0.3476  1.0841
  180SOPE  H18S20570   6.874   1.254   8.514  0.9260  0.0250  0.5628
  180SOPE  H18T20571   6.741   1.254   8.605  2.2044 -2.3606 -1.4546
  180SOPE   C3320572   6.468   1.354   7.382 -0.7657  0.2640 -0.3955
  180SOPE   H3X20573   6.506   1.250   7.396 -2.8077 -0.3661  0.8747
  180SOPE   H3Y20574   6.362   1.341   7.352 -0.4611 -1.2258 -0.9030
  180SOPE   C3420575   6.489   1.419   7.520  0.0378  0.6564 -0.1815
  180SOPE   H4X20576   6.414   1.501   7.527 -0.9634 -0.2562  0.0200
  180SOPE   H4Y20577   6.591   1.457   7.543 -0.3820 -0.2674  4.0531
  180SOPE   C3520578   6.450   1.322   7.632  0.4885  0.4943  0.5969
  180SOPE   H5X20579   6.504   1.228   7.611 -1.0759 -0.8666  2.3471
  180SOPE   H5Y20580   6.342   1.299   7.621  0.7926 -0.3247 -0.8721
  180SOPE   C3620581   6.467   1.378   7.776  0.0723 -0.3442  0.3632
  180SOPE   H6X20582   6.443   1.486   7.774 -0.2586 -0.4104 -1.4296
  180SOPE   H6Y20583   6.577   1.381   7.791  0.0805 -2.1211  0.9691
  180SOPE   C3720584   6.381   1.305   7.882  0.3297  0.6843  0.8107
  180SOPE   H7X20585   6.405   1.197   7.879  2.3613  1.1101  0.4339
  180SOPE   H7Y20586   6.273   1.325   7.864 -0.0463 -1.5044  0.4501
  180SOPE   C3820587   6.411   1.353   8.022  0.3011  0.5662 -0.2143
  180SOPE   H8X20588   6.411   1.463   8.038 -2.6124  0.7459 -0.8129
  180SOPE   H8Y20589   6.508   1.309   8.052 -0.4605 -1.5702 -0.7322
  180SOPE   C3920590   6.302   1.306   8.119  0.0721  0.6696  0.1329
  180SOPE   H9X20591   6.264   1.206   8.090  2.5279 -1.2096  2.8266
  180SOPE   H9Y20592   6.206   1.363   8.121 -2.0482 -2.6672  1.5602
  180SOPE  C31020593   6.346   1.299   8.266 -0.7157  0.1997  0.6608
  180SOPE  H10X20594   6.390   1.395   8.300 -2.2477  0.9954  0.5219
  180SOPE  H10Y20595   6.431   1.228   8.264 -1.6835 -0.9852 -0.6644
  180SOPE  C31120596   6.245   1.252   8.363  0.3672  0.0406  0.3204
  180SOPE  H11X20597   6.158   1.321   8.369  0.7162  0.5370 -0.1858
  180SOPE  H11Y20598   6.294   1.271   8.460  0.4369  0.8338  0.1384
  180SOPE  C31220599   6.190   1.114   8.354 -0.3971  0.1196 -0.1717
  180SOPE  H12X20600   6.246   1.044   8.421 -1.6415 -0.2913  0.4799
  180SOPE  H12Y20601   6.195   1.070   8.252 -1.3897 -1.2295  0.3282
  180SOPE  C31320602   6.038   1.101   8.399 -0.9080 -0.5669 -0.3297
  180SOPE  H13X20603   6.034   1.132   8.506  0.8141 -1.5831  0.0631
  180SOPE  H13Y20604   6.014   0.993   8.386 -0.3975 -0.4967 -2.1274
  180SOPE  C31420605   5.944   1.171   8.297  0.0693  0.4812 -0.2380
  180SOPE  H14X20606   5.978   1.158   8.192  0.4102  1.9343 -0.3301
  180SOPE  H14Y20607   5.954   1.282   8.296  0.0238  0.5122 -2.8014
  180SOPE  C31520608   5.793   1.135   8.313  0.1452 -0.2978  0.1323
  180SOPE  H15X20609   5.759   1.192   8.402  1.7211  0.0311  0.5601
  180SOPE  H15Y20610   5.786   1.029   8.345 -1.0542 -0.3423 -0.2225
  180SOPE  C31620611   5.706   1.162   8.193  0.2970  0.3557 -0.0444
  180SOPE  H16X20612   5.732   1.094   8.109  0.0964  0.1677  0.0432
  180SOPE  H16Y20613   5.715   1.266   8.156 -1.2336  0.0630 -1.4001
  180SOPE  C31720614   5.557   1.138   8.229 -0.6134 -0.1835 -0.1254
  180SOPE  H17X20615   5.547   1.177   8.332  1.6017 -0.8861  0.3984
  180SOPE  H17Y20616   5.539   1.029   8.240  0.6651 -0.5626 -1.4353
  180SOPE  C31820617   5.457   1.199   8.133  0.7244  0.4850  0.6418
  180SOPE  H18X20618   5.355   1.213   8.176 -1.3099 -1.3457 -3.0885
  180SOPE  H18Y20619   5.440   1.132   8.046 -1.4646  0.1645  1.2533
  180SOPE  H18Z20620   5.490   1.301   8.106 -0.0296  0.8829  1.1844
  181SOPE     N20621   1.098   5.807   6.407 -0.1125  0.3912 -0.5417
  181SOPE   HN120622   1.198   5.835   6.406  0.1125 -0.1638  1.3060
  181SOPE   HN220623   1.067   5.815   6.506 -0.1072  1.0466 -0.5848
  181SOPE   HN320624   1.093   5.706   6.385  1.6884 -0.5104  2.5592
  181SOPE   C1220625   1.009   5.887   6.325  0.0772 -0.1669 -0.6876
  181SOPE  H12A20626   0.921   5.825   6.297  2.3433 -3.7000 -0.5967
  181SOPE  H12B20627   1.054   5.911   6.226  0.8429 -1.1812 -0.5957
  181SOPE   C1120628   0.975   6.027   6.390 -0.6988 -0.5486 -0.0682
  181SOPE  H11A20629   1.064   6.086   6.418 -1.0140 -0.3737  0.5726
  181SOPE  H11B20630   0.921   6.027   6.487  0.0546 -0.4757  0.3607
  181SOPE     P20631   0.751   6.099   6.284 -0.4593 -0.0999  0.2300
  181SOPE   O1320632   0.738   6.009   6.172  0.0109  0.3218 -0.0209
  181SOPE   O1420633   0.692   6.230   6.268 -0.0587 -0.3597  0.1100
  181SOPE   O1220634   0.909   6.115   6.299  0.3014  0.0868 -0.6103
  181SOPE   O1120635   0.703   6.029   6.416 -0.3134 -0.4233  0.5989
  181SOPE    C120636   0.657   5.891   6.424 -0.1143 -0.2101  0.1905
  181SOPE    HA20637   0.748   5.829   6.436 -0.0602 -0.9605 -3.0629
  181SOPE    HB20638   0.604   5.863   6.331 -0.8213 -0.2287  0.5941
  181SOPE    C220639   0.563   5.880   6.547  0.8706  0.7197  0.8693
  181SOPE    HS20640   0.488   5.961   6.537  1.1378  0.8060 -0.5837
  181SOPE   O2120641   0.634   5.883   6.665  0.2442  0.6345 -1.0906
  181SOPE   C2120642   0.664   6.001   6.709  0.2926  0.0131  0.1446
  181SOPE   O2220643   0.597   6.101   6.682 -0.2165 -0.0162  0.7694
  181SOPE   C2220644   0.775   5.992   6.816  0.1496  0.0442 -0.0230
  181SOPE   H2R20645   0.827   6.090   6.816 -1.3350  0.8710 -0.7633
  181SOPE   H2S20646   0.843   5.908   6.791 -1.2005 -0.8906 -0.6951
  181SOPE    C320647   0.482   5.747   6.538 -0.3215  0.0178  0.4632
  181SOPE    HX20648   0.546   5.658   6.518 -1.9590 -1.2363  0.6734
  181SOPE    HY20649   0.422   5.765   6.447  0.3164 -0.0822  0.0128
  181SOPE   O3120650   0.395   5.721   6.645  0.1825 -0.3126 -0.1186
  181SOPE   C3120651   0.450   5.629   6.728 -0.0010 -0.1334 -0.0179
  181SOPE   O3220652   0.551   5.562   6.706  0.4002  0.3133 -0.2664
  181SOPE   C3220653   0.363   5.615   6.850  0.2397 -0.0474  0.1198
  181SOPE   H2X20654   0.255   5.610   6.823 -0.5947 -2.6046  3.2172
  181SOPE   H2Y20655   0.387   5.700   6.918  0.3129 -2.0710  2.7877
  181SOPE   C2320656   0.721   5.962   6.954 -0.2298 -0.2390 -0.2253
  181SOPE   H3R20657   0.811   5.946   7.018 -0.8177 -1.3416  0.3626
  181SOPE   H3S20658   0.663   5.868   6.942 -0.8056  0.2865 -1.7531
  181SOPE   C2420659   0.615   6.067   7.008  0.4876  0.7839 -1.4303
  181SOPE   H4R20660   0.662   6.167   7.018 -2.3556  2.3388 -2.4883
  181SOPE   H4S20661   0.530   6.090   6.940 -0.3875 -0.4518 -0.8034
  181SOPE   C2520662   0.562   6.012   7.145 -0.4371 -0.7890  0.6374
  181SOPE   H5R20663   0.487   6.086   7.179 -1.0068 -1.5631  1.0640
  181SOPE   H5S20664   0.526   5.908   7.149  0.3598 -1.1543 -0.7401
  181SOPE   C2620665   0.670   6.011   7.250  0.1819  0.4831  0.3201
  181SOPE   H6R20666   0.745   5.935   7.221  0.5963 -0.0100  2.4690
  181SOPE   H6S20667   0.728   6.106   7.240 -0.2483  0.4877 -3.2340
  181SOPE   C2720668   0.613   5.998   7.391 -0.2214  0.4941 -0.0823
  181SOPE   H7R20669   0.550   6.081   7.430  0.6145 -0.6521  4.3009
  181SOPE   H7S20670   0.546   5.909   7.390  0.0301  0.2503  1.4841
  181SOPE   C2820671   0.726   5.992   7.493 -0.1154  1.0053 -0.2657
  181SOPE   H8R20672   0.765   5.888   7.506 -1.0980  0.9539  3.2960
  181SOPE   H8S20673   0.811   6.057   7.463  0.9981 -1.1678 -2.1972
  181SOPE   C2920674   0.687   6.017   7.638  0.0162 -0.1052  0.3055
  181SOPE   H9120675   0.610   5.952   7.681 -0.7385 -0.6150 -1.6877
  181SOPE  C21020676   0.733   6.120   7.710 -0.0405 -0.8949  0.6883
  181SOPE  H10120677   0.691   6.134   7.811 -1.7238  0.1345 -0.1110
  181SOPE  C21120678   0.828   6.223   7.667 -0.6561  0.5172  0.5765
  181SOPE  H11R20679   0.803   6.238   7.560  2.5466  0.4550 -0.2647
  181SOPE  H11S20680   0.933   6.189   7.668 -0.4198  1.1586 -0.6816
  181SOPE  C21220681   0.827   6.346   7.763  0.2800  0.3820 -0.3352
  181SOPE  H12R20682   0.831   6.297   7.862  0.1558 -1.0278 -1.0154
  181SOPE  H12S20683   0.729   6.398   7.770 -0.4720 -1.1502  1.0791
  181SOPE  C21320684   0.942   6.439   7.727  0.2965 -0.7670 -1.2699
  181SOPE  H13R20685   1.038   6.385   7.736  0.4147 -0.3774 -0.0600
  181SOPE  H13S20686   0.952   6.527   7.794 -0.1198 -0.1597 -1.9820
  181SOPE  C21420687   0.933   6.511   7.593  0.5265  0.4385  0.2764
  181SOPE  H14R20688   0.822   6.516   7.581  0.2880 -0.3515  1.8060
  181SOPE  H14S20689   0.984   6.445   7.520 -0.5378 -0.7055  0.5299
  181SOPE  C21520690   1.009   6.652   7.595  0.0164 -0.5187  0.4322
  181SOPE  H15R20691   1.116   6.637   7.621  0.3870 -0.2699 -0.8710
  181SOPE  H15S20692   0.959   6.712   7.675  0.5208  0.8738 -0.2629
  181SOPE  C21620693   1.007   6.730   7.464  0.0066 -0.5151  0.4436
  181SOPE  H16R20694   1.065   6.821   7.487  0.2371 -0.5915  0.1713
  181SOPE  H16S20695   0.912   6.779   7.435  0.8890  1.2786  0.5029
  181SOPE  C21720696   1.078   6.664   7.341  0.6263  0.3161  0.1660
  181SOPE  H17R20697   1.019   6.583   7.294  0.3057  1.2462 -1.0810
  181SOPE  H17S20698   1.168   6.621   7.389  0.7599 -3.0526 -2.6689
  181SOPE  C21820699   1.111   6.763   7.230 -0.0712 -0.0606  0.7490
  181SOPE  H18R20700   1.026   6.834   7.219  0.0119  0.4487  2.8942
  181SOPE  H18S20701   1.144   6.726   7.131  1.5082  0.4252  1.0641
  181SOPE  H18T20702   1.193   6.829   7.265  0.0231  0.3270 -0.1807
  181SOPE   C3320703   0.417   5.488   6.919 -0.2784  0.0642 -0.5740
  181SOPE   H3X20704   0.526   5.477   6.936 -0.3230  3.3603  3.5238
  181SOPE   H3Y20705   0.386   5.401   6.857 -1.5339 -0.4920  0.7566
  181SOPE   C3420706   0.349   5.458   7.055  0.1414  0.3122 -0.2207
  181SOPE   H4X20707   0.339   5.351   7.086 -0.8029  0.4877  0.1130
  181SOPE   H4Y20708   0.255   5.516   7.045  0.2351  0.0452 -3.5801
  181SOPE   C3520709   0.432   5.519   7.177  0.4941  0.0063 -0.2179
  181SOPE   H5X20710   0.485   5.613   7.150  1.6124 -0.3162  0.7899
  181SOPE   H5Y20711   0.506   5.453   7.227  2.1840  3.2077  1.8822
  181SOPE   C3620712   0.333   5.554   7.289  0.4357 -0.0475 -0.2230
  181SOPE   H6X20713   0.329   5.472   7.364  3.0632  0.0679  0.1348
  181SOPE   H6Y20714   0.233   5.583   7.249 -0.5662  0.3248  2.3615
  181SOPE   C3720715   0.381   5.683   7.360 -0.0814 -0.1383 -0.6863
  181SOPE   H7X20716   0.384   5.767   7.287  0.3770  1.0870  0.6896
  181SOPE   H7Y20717   0.480   5.689   7.411 -0.0649  2.2885 -0.8883
  181SOPE   C3820718   0.283   5.715   7.474  0.3191  0.8664  0.1808
  181SOPE   H8X20719   0.295   5.638   7.554 -1.7388 -0.8624 -1.0484
  181SOPE   H8Y20720   0.180   5.689   7.441 -0.1929  0.1056  2.1801
  181SOPE   C3920721   0.293   5.853   7.527 -0.2370  0.3531 -0.1134
  181SOPE   H9X20722   0.280   5.928   7.446  2.5703  2.6145  1.3231
  181SOPE   H9Y20723   0.392   5.876   7.573  0.3868 -0.7263 -0.8494
  181SOPE  C31020724   0.184   5.882   7.629 -0.0096 -0.0009  0.1566
  181SOPE  H10X20725   0.203   5.808   7.710  0.6772  0.4588  0.4270
  181SOPE  H10Y20726   0.085   5.864   7.581 -0.7321 -1.3204  2.0180
  181SOPE  C31120727   0.200   6.022   7.688  1.1237 -1.1824  0.1567
  181SOPE  H11X20728   0.169   6.101   7.617  3.3205 -1.2273 -0.9483
  181SOPE  H11Y20729   0.308   6.043   7.701  1.4366 -2.6783  0.2511
  181SOPE  C31220730   0.137   6.041   7.828 -0.0636 -0.2767 -0.2960
  181SOPE  H12X20731   0.176   6.138   7.865 -0.1528 -0.1013 -0.6693
  181SOPE  H12Y20732   0.177   5.958   7.891  2.9440  1.5838  0.4581
  181SOPE  C31320733  -0.016   6.050   7.839 -0.0731  0.3198 -0.1997
  181SOPE  H13X20734  -0.063   5.952   7.814 -1.5396  1.5372 -2.6615
  181SOPE  H13Y20735  -0.052   6.124   7.764  1.6953  2.4878  0.9945
  181SOPE  C31420736  -0.060   6.127   7.966  0.6213  0.2521  0.4611
  181SOPE  H14X20737  -0.009   6.225   7.973 -1.6672  1.6408 -0.8961
  181SOPE  H14Y20738  -0.037   6.064   8.054 -0.9222 -1.2547 -0.1448
  181SOPE  C31520739  -0.206   6.155   7.966  0.3252  0.3268  0.2204
  181SOPE  H15X20740  -0.263   6.059   7.968  3.1633 -1.5601 -1.8032
  181SOPE  H15Y20741  -0.237   6.215   7.878  0.1251 -2.4654 -1.7124
  181SOPE  C31620742  -0.251   6.234   8.090 -0.3998  0.3194  0.5910
  181SOPE  H16X20743  -0.180   6.319   8.098  0.1673  0.2272 -2.2409
  181SOPE  H16Y20744  -0.246   6.164   8.176 -0.3877 -1.2306 -0.6111
  181SOPE  C31720745  -0.398   6.292   8.085  0.3470  0.3474  0.5645
  181SOPE  H17X20746  -0.471   6.214   8.053 -0.1942  0.5924  1.1951
  181SOPE  H17Y20747  -0.399   6.363   8.000 -1.4607 -0.1826  0.1058
  181SOPE  C31820748  -0.441   6.366   8.205 -0.0118 -0.1544  0.2981
  181SOPE  H18X20749  -0.381   6.458   8.222 -1.3251  1.3010 -2.3284
  181SOPE  H18Y20750  -0.451   6.294   8.288  1.7988 -2.4022 -1.2991
  181SOPE  H18Z20751  -0.541   6.411   8.186 -0.2098  0.2904  2.2102
  182SOPE     N20752   4.498   6.621   6.119 -0.9088  0.3641  0.4080
  182SOPE   HN120753   4.597   6.596   6.098 -0.9987  1.3385 -1.3022
  182SOPE   HN220754   4.442   6.633   6.033  1.9584 -1.1908 -1.8588
  182SOPE   HN320755   4.510   6.717   6.157  0.3873 -0.6703  2.8770
  182SOPE   C1220756   4.427   6.532   6.218  0.0524  0.2063 -1.2807
  182SOPE  H12A20757   4.430   6.431   6.171  0.7461 -0.2660 -0.2653
  182SOPE  H12B20758   4.322   6.566   6.230  0.0960 -0.5747  2.6331
  182SOPE   C1120759   4.508   6.538   6.345  0.4216  0.3993 -0.3390
  182SOPE  H11A20760   4.454   6.476   6.420 -0.7651 -0.5515 -1.9161
  182SOPE  H11B20761   4.499   6.643   6.381  3.3367  0.2776  1.0498
  182SOPE     P20762   4.692   6.354   6.354  0.0153 -0.4861 -0.3376
  182SOPE   O1320763   4.826   6.340   6.296  0.3547 -0.5691  0.3912
  182SOPE   O1420764   4.587   6.265   6.310 -0.1580  0.5820 -0.0464
  182SOPE   O1220765   4.638   6.499   6.328 -0.0387  0.6839 -1.0492
  182SOPE   O1120766   4.706   6.338   6.512 -0.2609 -0.4499  0.0616
  182SOPE    C120767   4.785   6.432   6.589 -0.6398  0.1276 -0.5963
  182SOPE    HA20768   4.728   6.452   6.681 -0.7056  0.4835 -0.7129
  182SOPE    HB20769   4.812   6.524   6.533 -1.9904 -0.1228 -1.7245
  182SOPE    C220770   4.920   6.373   6.625  0.3686 -0.6097  0.0959
  182SOPE    HS20771   4.975   6.349   6.532 -0.7482 -0.8338 -0.5243
  182SOPE   O2120772   4.893   6.253   6.705  0.0098  0.2625  0.3527
  182SOPE   C2120773   4.913   6.135   6.644 -0.4199 -0.0068  0.3720
  182SOPE   O2220774   4.947   6.124   6.527 -0.0387  0.4948  0.1677
  182SOPE   C2220775   4.875   6.021   6.741 -0.0065 -0.3532 -0.5053
  182SOPE   H2R20776   4.924   6.044   6.838 -1.0659  0.3624 -0.1201
  182SOPE   H2S20777   4.918   5.926   6.702  1.1118  0.4671 -1.3301
  182SOPE    C320778   5.007   6.468   6.715  0.2499  0.2126 -0.3018
  182SOPE    HX20779   4.946   6.486   6.806 -0.4220  3.3461 -1.2428
  182SOPE    HY20780   5.027   6.567   6.670  0.4242 -0.2345 -1.2348
  182SOPE   O3120781   5.134   6.404   6.747  0.0696 -0.2162  0.2973
  182SOPE   C3120782   5.224   6.382   6.656  0.2937 -0.1213 -0.0248
  182SOPE   O3220783   5.215   6.386   6.533 -0.6028  0.1836 -0.4094
  182SOPE   C3220784   5.354   6.356   6.727 -0.4970  0.3098  0.0909
  182SOPE   H2X20785   5.345   6.382   6.835  0.7423 -0.9741  0.5298
  182SOPE   H2Y20786   5.431   6.421   6.681  0.3274  0.3033  1.4094
  182SOPE   C2320787   4.725   6.016   6.763  0.0412  0.0260 -1.1527
  182SOPE   H3R20788   4.683   5.973   6.670  2.1526 -0.5247 -1.9111
  182SOPE   H3S20789   4.692   6.120   6.784 -0.2092 -0.4305  0.8654
  182SOPE   C2420790   4.687   5.916   6.874 -0.2865 -0.1469  0.0773
  182SOPE   H4R20791   4.578   5.899   6.884 -0.1643 -1.2542 -0.3837
  182SOPE   H4S20792   4.727   5.817   6.844 -1.0919 -0.7046  0.7815
  182SOPE   C2520793   4.750   5.955   7.009 -0.3906 -0.0427  0.2225
  182SOPE   H5R20794   4.812   5.868   7.040  1.3970  0.6527 -1.2365
  182SOPE   H5S20795   4.810   6.048   6.997  0.5177 -0.6037  0.3040
  182SOPE   C2620796   4.634   5.980   7.111 -0.0806  0.2464 -0.9023
  182SOPE   H6R20797   4.568   6.059   7.069  1.1297  3.0120  1.9406
  182SOPE   H6S20798   4.573   5.888   7.122 -0.7726  0.5011 -2.4056
  182SOPE   C2720799   4.690   6.009   7.259 -0.1777 -0.5391 -0.3286
  182SOPE   H7R20800   4.774   5.941   7.281 -0.7529 -1.3320 -0.5334
  182SOPE   H7S20801   4.744   6.106   7.264  4.0448 -2.7252  0.5315
  182SOPE   C2820802   4.589   6.002   7.360  0.1654 -0.2444 -0.3293
  182SOPE   H8R20803   4.623   6.063   7.446  0.3805  1.2108 -1.4147
  182SOPE   H8S20804   4.491   6.047   7.334 -0.2794  0.9856  2.9969
  182SOPE   C2920805   4.558   5.856   7.395  0.5610 -0.1762  0.1452
  182SOPE   H9120806   4.512   5.796   7.314  0.3139 -0.2932  0.3706
  182SOPE  C21020807   4.559   5.805   7.521 -0.0986 -0.6624  0.0782
  182SOPE  H10120808   4.528   5.700   7.536  1.3542 -1.1794 -0.3014
  182SOPE  C21120809   4.586   5.888   7.648  1.1977  0.2306 -0.2485
  182SOPE  H11R20810   4.563   5.996   7.632 -0.1264 -0.4309 -3.7573
  182SOPE  H11S20811   4.696   5.884   7.664  1.2839  0.8224 -0.6469
  182SOPE  C21220812   4.504   5.859   7.775 -0.9078 -0.1861  1.0045
  182SOPE  H12R20813   4.529   5.753   7.797 -0.2491  0.0240  1.2682
  182SOPE  H12S20814   4.397   5.865   7.744 -0.6248 -1.2876 -0.2907
  182SOPE  C21320815   4.535   5.950   7.890 -0.2275  0.6285  0.3416
  182SOPE  H13R20816   4.518   6.057   7.865 -0.4005  0.8905  1.5287
  182SOPE  H13S20817   4.645   5.942   7.906 -0.2223 -0.7118 -0.2007
  182SOPE  C21420818   4.455   5.908   8.008 -0.3465  0.1176  1.2515
  182SOPE  H14R20819   4.494   5.810   8.041  2.7541  0.0595 -1.9043
  182SOPE  H14S20820   4.345   5.910   7.996 -0.4706 -2.2007  1.6175
  182SOPE  C21520821   4.487   6.014   8.116  0.2939  0.2161  0.6345
  182SOPE  H15R20822   4.440   6.109   8.083 -0.9705 -0.5953  0.0111
  182SOPE  H15S20823   4.597   6.027   8.116  0.1365  1.6984  0.4282
  182SOPE  C21620824   4.440   5.976   8.255 -0.1328 -0.2646  0.2732
  182SOPE  H16R20825   4.478   5.874   8.277 -1.5194 -0.8380  0.0750
  182SOPE  H16S20826   4.331   5.978   8.274 -0.0961  0.3114  0.4426
  182SOPE  C21720827   4.507   6.062   8.365 -0.0299  0.3779  0.1519
  182SOPE  H17R20828   4.467   6.165   8.348  0.1734  0.2126 -1.4635
  182SOPE  H17S20829   4.617   6.071   8.352  0.0004 -1.3416 -1.0686
  182SOPE  C21820830   4.473   6.005   8.504 -0.1814  0.3009 -0.6542
  182SOPE  H18R20831   4.376   6.049   8.538 -0.3349 -1.2182  1.0054
  182SOPE  H18S20832   4.553   6.037   8.574  1.9234  2.1113 -3.6481
  182SOPE  H18T20833   4.468   5.894   8.501 -1.6046  0.3496 -0.9354
  182SOPE   C3320834   5.392   6.211   6.712 -0.8123  0.7076  0.5844
  182SOPE   H3X20835   5.495   6.199   6.751 -0.2226 -1.1366 -1.3805
  182SOPE   H3Y20836   5.396   6.177   6.607 -2.1665 -1.6454  1.2317
  182SOPE   C3420837   5.298   6.110   6.786 -0.0416 -0.4385  0.3914
  182SOPE   H4X20838   5.314   6.013   6.734 -0.9017 -0.9938  1.1347
  182SOPE   H4Y20839   5.193   6.135   6.757  0.7791  1.4951 -1.1617
  182SOPE   C3520840   5.318   6.098   6.934 -0.5019 -0.3395 -0.4546
  182SOPE   H5X20841   5.300   6.198   6.977 -2.0132  0.5145 -2.8921
  182SOPE   H5Y20842   5.423   6.060   6.932 -1.7774 -4.5958  1.1035
  182SOPE   C3620843   5.242   5.989   7.008 -0.1729 -0.1471 -0.0493
  182SOPE   H6X20844   5.276   5.891   6.970 -1.9764 -0.8000 -0.0687
  182SOPE   H6Y20845   5.141   6.006   6.967  0.3648  0.5943 -1.1183
  182SOPE   C3720846   5.264   6.000   7.157 -0.1140  0.3362  0.4766
  182SOPE   H7X20847   5.239   6.105   7.183  3.3242  1.3401  0.2995
  182SOPE   H7Y20848   5.373   6.002   7.177 -0.0566  0.8392  0.1617
  182SOPE   C3820849   5.199   5.895   7.240 -0.4505 -0.0506 -0.4361
  182SOPE   H8X20850   5.219   5.797   7.191 -1.5060  1.0546 -3.3281
  182SOPE   H8Y20851   5.089   5.908   7.231 -1.0368 -2.0159  2.5280
  182SOPE   C3920852   5.226   5.897   7.391 -0.5469 -0.2112 -0.2873
  182SOPE   H9X20853   5.325   5.865   7.430 -1.3031  1.0403  2.9418
  182SOPE   H9Y20854   5.156   5.826   7.441  0.0587  0.2331  1.2534
  182SOPE  C31020855   5.195   6.043   7.443  0.3534 -0.1450 -0.5238
  182SOPE  H10X20856   5.099   6.079   7.400 -1.7016 -2.2073  1.9609
  182SOPE  H10Y20857   5.278   6.114   7.426  0.7371 -0.8989 -1.9303
  182SOPE  C31120858   5.162   6.039   7.596  0.3276  0.1858  0.7785
  182SOPE  H11X20859   5.223   6.122   7.637  1.2678 -0.1730  0.1319
  182SOPE  H11Y20860   5.198   5.944   7.640  0.3000 -1.0506 -1.6927
  182SOPE  C31220861   5.014   6.065   7.629 -0.3049 -0.1801 -0.3713
  182SOPE  H12X20862   4.955   5.974   7.607  1.4368 -1.8602  1.5248
  182SOPE  H12Y20863   4.973   6.131   7.549 -0.7314 -1.5067 -1.2661
  182SOPE  C31320864   4.977   6.129   7.764 -0.7903 -0.3103  0.5451
  182SOPE  H13X20865   4.867   6.127   7.774 -0.7276  0.7983  1.6602
  182SOPE  H13Y20866   5.005   6.235   7.775 -2.2296  0.2372 -0.6977
  182SOPE  C31420867   5.028   6.045   7.880 -0.4159 -0.3813 -0.0233
  182SOPE  H14X20868   5.139   6.054   7.882 -0.0700 -0.7804 -4.7872
  182SOPE  H14Y20869   5.007   5.938   7.859 -2.2322  0.1628 -1.2458
  182SOPE  C31520870   4.970   6.071   8.018 -0.1294  0.8180 -0.0210
  182SOPE  H15X20871   5.022   5.993   8.078  1.2268  1.1298 -0.7367
  182SOPE  H15Y20872   4.864   6.039   8.020  0.3147 -0.7229 -0.3407
  182SOPE  C31620873   5.001   6.217   8.054  0.1773  0.3711  0.0048
  182SOPE  H16X20874   4.942   6.291   7.995  1.3342  1.1964 -0.1441
  182SOPE  H16Y20875   5.109   6.235   8.037  0.8451 -2.9570 -0.0085
  182SOPE  C31720876   4.971   6.252   8.204 -0.8293 -0.0429 -0.3098
  182SOPE  H17X20877   5.029   6.187   8.274  3.0612  2.2565 -1.1012
  182SOPE  H17Y20878   4.863   6.237   8.227 -0.8474  0.5962  0.0336
  182SOPE  C31820879   5.017   6.389   8.241  0.0823 -0.9525 -0.9133
  182SOPE  H18X20880   4.981   6.416   8.343  1.1547 -0.6045 -0.6171
  182SOPE  H18Y20881   4.963   6.464   8.181  0.9914  0.4104 -0.0845
  182SOPE  H18Z20882   5.128   6.394   8.235  0.7736 -2.4122  4.5927
  183SOPE     N20883   3.305   0.526   6.278  0.2119  0.7721 -0.2517
  183SOPE   HN120884   3.315   0.423   6.279  2.4518  0.9016  1.8872
  183SOPE   HN220885   3.283   0.555   6.375  1.0146  1.1061 -0.1558
  183SOPE   HN320886   3.230   0.553   6.211  0.9916 -0.7083 -1.7964
  183SOPE   C1220887   3.436   0.588   6.238 -0.0888  0.0577  0.5031
  183SOPE  H12A20888   3.465   0.540   6.142  1.5148  0.0399  0.9640
  183SOPE  H12B20889   3.516   0.560   6.310  0.6473  0.9860  0.0652
  183SOPE   C1120890   3.425   0.744   6.224  0.0204  0.1269  0.6551
  183SOPE  H11A20891   3.399   0.788   6.322 -0.6462  2.0198 -0.3145
  183SOPE  H11B20892   3.342   0.765   6.153 -0.5554 -1.7155  0.7463
  183SOPE     P20893   3.614   0.927   6.244  0.0891 -0.1657 -0.0306
  183SOPE   O1320894   3.515   1.031   6.229  0.1179 -0.8613 -0.5273
  183SOPE   O1420895   3.744   0.944   6.177  0.1776 -0.1661 -0.0205
  183SOPE   O1220896   3.551   0.797   6.177  0.5806  0.6458  0.5196
  183SOPE   O1120897   3.630   0.894   6.398  0.0717  0.0924  0.1308
  183SOPE    C120898   3.711   0.785   6.433 -0.5338 -0.9331  0.1327
  183SOPE    HA20899   3.818   0.808   6.412 -0.9070 -1.3067 -2.5847
  183SOPE    HB20900   3.690   0.694   6.373  1.5329 -3.8504  3.4525
  183SOPE    C220901   3.694   0.744   6.579 -0.1057  0.3570 -0.0421
  183SOPE    HS20902   3.696   0.633   6.583 -0.4753  0.3668  2.9569
  183SOPE   O2120903   3.573   0.798   6.640  0.0689  0.1153  0.3336
  183SOPE   C2120904   3.471   0.709   6.650 -0.2475  0.4030  0.5643
  183SOPE   O2220905   3.456   0.609   6.580  0.4261  0.0818  0.8783
  183SOPE   C2220906   3.384   0.746   6.761  0.0633  0.2353 -0.6824
  183SOPE   H2R20907   3.313   0.661   6.772  1.5405 -0.8976  0.8575
  183SOPE   H2S20908   3.330   0.841   6.744 -0.0815  0.6664  1.7172
  183SOPE    C320909   3.806   0.791   6.673  0.5168 -0.3989  0.1590
  183SOPE    HX20910   3.806   0.902   6.680 -1.5961 -0.4243  1.5276
  183SOPE    HY20911   3.898   0.754   6.623  1.4130 -0.1891  1.6173
  183SOPE   O3120912   3.791   0.747   6.806  0.1412 -0.0471 -0.1325
  183SOPE   C3120913   3.879   0.780   6.895  0.1959 -0.4074 -0.7040
  183SOPE   O3220914   3.971   0.858   6.867 -0.1306  0.0937 -0.0510
  183SOPE   C3220915   3.848   0.711   7.029 -0.6920  0.0829 -0.6789
  183SOPE   H2X20916   3.925   0.631   7.028  0.0474  0.6806  1.8860
  183SOPE   H2Y20917   3.746   0.667   7.032 -1.2376  1.3999  1.0990
  183SOPE   C2320918   3.467   0.773   6.890  0.1666  0.1819  0.0110
  183SOPE   H3R20919   3.530   0.859   6.859  0.2295  0.0894 -0.1188
  183SOPE   H3S20920   3.519   0.675   6.898 -1.6898 -0.8266  0.1722
  183SOPE   C2420921   3.381   0.791   7.016 -0.4223  0.0552 -0.4570
  183SOPE   H4R20922   3.316   0.880   7.003 -2.6170 -0.5120  4.3440
  183SOPE   H4S20923   3.302   0.713   7.027 -2.0290  1.8018  0.9673
  183SOPE   C2520924   3.472   0.803   7.142  0.1186  0.2270 -0.7620
  183SOPE   H5R20925   3.533   0.712   7.159 -0.0584  0.5464  2.0916
  183SOPE   H5S20926   3.539   0.890   7.124 -0.8650  0.8609 -1.4634
  183SOPE   C2620927   3.383   0.849   7.264  0.2348  0.5213  0.6940
  183SOPE   H6R20928   3.344   0.951   7.243 -0.5426  0.0678 -0.1589
  183SOPE   H6S20929   3.304   0.771   7.261  1.9356 -1.2900  1.3838
  183SOPE   C2720930   3.458   0.830   7.395  0.4842 -0.7683 -0.7944
  183SOPE   H7R20931   3.494   0.727   7.376  0.7739 -0.7854 -0.1546
  183SOPE   H7S20932   3.543   0.901   7.400  0.2745 -0.6381  1.7796
  183SOPE   C2820933   3.375   0.824   7.528  0.0661  0.3551  0.2972
  183SOPE   H8R20934   3.327   0.924   7.534  1.7828  1.3037 -0.9096
  183SOPE   H8S20935   3.300   0.742   7.516 -0.1469  0.7076 -0.9435
  183SOPE   C2920936   3.464   0.791   7.647  0.5416  0.9990 -0.6464
  183SOPE   H9120937   3.556   0.733   7.631  0.8481  1.1855  0.3717
  183SOPE  C21020938   3.455   0.850   7.769  0.5839  0.2965 -0.2451
  183SOPE  H10120939   3.530   0.819   7.843  0.6957 -1.3850 -1.0193
  183SOPE  C21120940   3.344   0.943   7.799  0.1196 -0.5694  0.0536
  183SOPE  H11R20941   3.249   0.898   7.764  0.2662 -1.1408  0.3857
  183SOPE  H11S20942   3.357   1.047   7.762  2.7337 -1.5736 -2.1953
  183SOPE  C21220943   3.331   0.956   7.951  0.0620 -0.3233 -0.2303
  183SOPE  H12R20944   3.309   0.855   7.993 -0.1512 -0.4343 -0.6010
  183SOPE  H12S20945   3.244   1.020   7.976  0.7640  0.3426  0.5618
  183SOPE  C21320946   3.458   1.017   8.025 -0.1068  0.1454  0.1775
  183SOPE  H13R20947   3.495   1.105   7.969 -0.5890 -0.6721 -1.4599
  183SOPE  H13S20948   3.539   0.941   8.031  0.6629  0.7632 -1.8079
  183SOPE  C21420949   3.417   1.043   8.172 -0.4625  0.6002  0.4131
  183SOPE  H14R20950   3.514   1.070   8.219 -1.2592  2.2287  1.2337
  183SOPE  H14S20951   3.395   0.949   8.228  2.0994  0.1341  0.7475
  183SOPE  C21520952   3.328   1.162   8.183 -0.0688 -0.3599  0.1661
  183SOPE  H15R20953   3.220   1.135   8.177 -0.0536 -0.7397  1.2927
  183SOPE  H15S20954   3.352   1.224   8.094  0.0088  1.5858  1.4822
  183SOPE  C21620955   3.354   1.246   8.309 -0.4072 -0.6677  0.2582
  183SOPE  H16R20956   3.291   1.337   8.310 -0.0538 -0.3893 -0.8725
  183SOPE  H16S20957   3.456   1.290   8.307 -0.4942 -0.2991  2.0950
  183SOPE  C21720958   3.345   1.172   8.441 -0.4005  0.8343  0.5292
  183SOPE  H17R20959   3.343   1.249   8.521  2.6710  0.9606  0.6105
  183SOPE  H17S20960   3.433   1.104   8.437 -2.3112 -1.7331 -0.1760
  183SOPE  C21820961   3.211   1.085   8.449  0.3048 -0.8803  0.3320
  183SOPE  H18R20962   3.236   0.984   8.410  0.7990 -1.1338  1.2699
  183SOPE  H18S20963   3.136   1.132   8.382 -0.7683 -1.5251  1.0589
  183SOPE  H18T20964   3.187   1.073   8.557 -2.5752  0.3569 -0.0784
  183SOPE   C3320965   3.865   0.800   7.159  0.7384 -0.2233  0.4677
  183SOPE   H3X20966   3.793   0.884   7.149  1.4570  0.2011 -2.0181
  183SOPE   H3Y20967   3.963   0.853   7.156  0.8565 -0.4469 -1.4696
  183SOPE   C3420968   3.843   0.729   7.293  1.1132 -0.1898 -0.3389
  183SOPE   H4X20969   3.912   0.642   7.300 -0.1215 -1.2437 -0.8448
  183SOPE   H4Y20970   3.738   0.693   7.296  0.5097  1.4636  2.2980
  183SOPE   C3520971   3.874   0.834   7.397  0.4289  0.5678 -0.0137
  183SOPE   H5X20972   3.790   0.907   7.398 -0.6299 -0.5413 -2.2094
  183SOPE   H5Y20973   3.968   0.888   7.370  0.1378  0.0163 -2.3131
  183SOPE   C3620974   3.871   0.768   7.535 -0.0826 -1.1327 -0.2502
  183SOPE   H6X20975   3.962   0.705   7.546  1.8505  1.5909  0.4773
  183SOPE   H6Y20976   3.782   0.702   7.540  0.4496 -1.8197  0.2268
  183SOPE   C3720977   3.866   0.868   7.652 -0.5080 -0.4336 -0.4184
  183SOPE   H7X20978   3.775   0.932   7.650  0.2854  1.0026  2.5479
  183SOPE   H7Y20979   3.955   0.935   7.646 -0.4147 -0.4673  0.4065
  183SOPE   C3820980   3.881   0.797   7.789 -0.2137 -0.0875 -0.5452
  183SOPE   H8X20981   3.827   0.700   7.788 -0.2510 -0.1815  2.4816
  183SOPE   H8Y20982   3.837   0.862   7.867 -0.5477 -1.3157  0.3261
  183SOPE   C3920983   4.029   0.761   7.816 -0.0644 -0.1989 -0.4736
  183SOPE   H9X20984   4.076   0.847   7.868  1.0369 -0.9259 -0.2251
  183SOPE   H9Y20985   4.081   0.726   7.724 -0.9759 -1.6302 -0.4745
  183SOPE  C31020986   4.046   0.636   7.897 -0.3392 -0.1108 -0.2048
  183SOPE  H10X20987   4.134   0.574   7.871 -1.0756 -1.3946  0.2475
  183SOPE  H10Y20988   3.956   0.571   7.900 -0.2171 -0.3840 -1.8755
  183SOPE  C31120989   4.074   0.681   8.049  0.3726 -0.4257  0.2637
  183SOPE  H11X20990   3.996   0.757   8.069  1.0904  0.1098  1.0835
  183SOPE  H11Y20991   4.169   0.738   8.064 -0.4119  1.4681 -1.4806
  183SOPE  C31220992   4.077   0.571   8.150 -0.2375  0.0267  0.1585
  183SOPE  H12X20993   4.070   0.476   8.093  3.5461 -1.3425  1.6674
  183SOPE  H12Y20994   3.994   0.569   8.223 -0.4563  0.1168 -0.0841
  183SOPE  C31320995   4.208   0.556   8.230  0.3542  0.4658  0.0038
  183SOPE  H13X20996   4.219   0.643   8.298 -1.4580  2.1433 -1.7112
  183SOPE  H13Y20997   4.294   0.564   8.159 -0.6923  0.9030 -1.2568
  183SOPE  C31420998   4.198   0.431   8.316  0.4207 -0.0141  1.2898
  183SOPE  H14X20999   4.208   0.343   8.249 -1.0588  1.8731 -1.5779
  183SOPE  H14Y21000   4.103   0.435   8.373  0.7890 -0.2120  1.9333
  183SOPE  C31521001   4.310   0.410   8.427  0.2741  0.4682  0.1874
  183SOPE  H15X21002   4.298   0.490   8.504 -3.5160  0.5707 -0.3326
  183SOPE  H15Y21003   4.406   0.422   8.372  0.2785  0.5948  0.2194
  183SOPE  C31621004   4.290   0.272   8.497  0.7547 -0.8201 -0.5916
  183SOPE  H16X21005   4.317   0.202   8.416  0.9830 -0.6820 -0.6342
  183SOPE  H16Y21006   4.184   0.258   8.527  1.0220 -2.2637 -0.2301
  183SOPE  C31721007   4.371   0.261   8.626 -0.6087 -0.0119  0.2808
  183SOPE  H17X21008   4.360   0.159   8.669 -1.4970  0.5121  1.3405
  183SOPE  H17Y21009   4.329   0.331   8.701  0.0662  0.2503  0.4280
  183SOPE  C31821010   4.528   0.276   8.609  0.6248 -0.3626  0.1340
  183SOPE  H18X21011   4.584   0.247   8.700 -2.0059 -0.9699  1.6783
  183SOPE  H18Y21012   4.549   0.385   8.601 -0.1009 -0.1465  0.9888
  183SOPE  H18Z21013   4.552   0.219   8.517 -0.3993  0.4421 -0.6607
  184SOPE     N21014   1.660   0.327   6.220  0.1524 -0.4534 -0.0800
  184SOPE   HN121015   1.665   0.251   6.291  1.5137 -0.0848  0.2450
  184SOPE   HN221016   1.568   0.336   6.172  0.8168  1.6061 -1.0799
  184SOPE   HN321017   1.726   0.307   6.143  0.5452 -1.6416  0.5310
  184SOPE   C1221018   1.692   0.458   6.274  0.1776  0.3682  0.3434
  184SOPE  H12A21019   1.705   0.520   6.183  0.6862  1.1927  0.9687
  184SOPE  H12B21020   1.785   0.451   6.335 -0.8595 -2.2266  1.8189
  184SOPE   C1121021   1.579   0.521   6.365  0.8529  0.2858  0.1505
  184SOPE  H11A21022   1.620   0.619   6.397  0.6705  0.7199 -0.9051
  184SOPE  H11B21023   1.572   0.450   6.450  2.7458 -0.4561 -0.2728
  184SOPE     P21024   1.433   0.672   6.199  0.1289 -0.4240  0.3025
  184SOPE   O1321025   1.328   0.651   6.098  0.7699  0.3214  0.1804
  184SOPE   O1421026   1.560   0.724   6.143  0.2904  0.4726  0.3891
  184SOPE   O1221027   1.457   0.534   6.285 -0.0500 -0.2886 -0.5862
  184SOPE   O1121028   1.379   0.780   6.307  0.2809  0.2438  0.1023
  184SOPE    C121029   1.270   0.749   6.403 -0.0859 -0.1469  0.5323
  184SOPE    HA21030   1.249   0.640   6.403 -2.8182  0.2480 -1.6330
  184SOPE    HB21031   1.172   0.798   6.387 -1.0888 -1.6085  1.9370
  184SOPE    C221032   1.297   0.785   6.552 -0.2393 -0.4444 -0.0364
  184SOPE    HS21033   1.202   0.796   6.608 -0.3646 -1.8840  0.0850
  184SOPE   O2121034   1.375   0.906   6.561 -0.2693  0.0162  0.2573
  184SOPE   C2121035   1.345   0.981   6.662 -0.3946  0.9553  0.1726
  184SOPE   O2221036   1.254   0.966   6.736  0.3270 -0.4862  0.1026
  184SOPE   C2221037   1.469   1.072   6.689  0.1484  0.3814 -0.6428
  184SOPE   H2R21038   1.480   1.136   6.599  0.2592 -1.6126 -2.1243
  184SOPE   H2S21039   1.559   1.008   6.700  1.7112  2.7556  1.2054
  184SOPE    C321040   1.385   0.674   6.621  0.2051  0.3186 -0.5975
  184SOPE    HX21041   1.485   0.671   6.573  0.7115  0.5145  0.4052
  184SOPE    HY21042   1.344   0.573   6.599  1.9863 -0.7943  0.8501
  184SOPE   O3121043   1.400   0.705   6.765 -0.0289  0.0100  0.3592
  184SOPE   C3121044   1.300   0.661   6.842  0.5224 -0.3989  0.7792
  184SOPE   O3221045   1.190   0.623   6.802 -0.0223 -0.1974 -0.0692
  184SOPE   C3221046   1.335   0.684   6.989 -0.4087 -0.0941  0.0931
  184SOPE   H2X21047   1.380   0.786   6.989 -1.5832  0.4732 -2.0109
  184SOPE   H2Y21048   1.414   0.614   7.024 -0.9422 -0.0412  1.4805
  184SOPE   C2321049   1.457   1.158   6.816  0.0298 -0.2307 -0.1502
  184SOPE   H3R21050   1.367   1.221   6.826 -0.1401 -0.5117  0.0933
  184SOPE   H3S21051   1.542   1.229   6.821  0.6688 -0.9690 -0.1695
  184SOPE   C2421052   1.477   1.076   6.947  0.2078  0.2417  0.1809
  184SOPE   H4R21053   1.406   0.990   6.946 -1.5321  1.5983  0.8548
  184SOPE   H4S21054   1.583   1.043   6.944  0.4211  0.9756 -1.2595
  184SOPE   C2521055   1.450   1.173   7.064 -0.3566 -0.2147  0.1870
  184SOPE   H5R21056   1.531   1.248   7.051 -0.0752 -0.7118 -1.0671
  184SOPE   H5S21057   1.348   1.216   7.058 -0.5171 -0.0271  2.9029
  184SOPE   C2621058   1.460   1.104   7.206  0.0711  0.1506  0.1727
  184SOPE   H6R21059   1.410   1.005   7.203  1.0384 -0.3744  0.9425
  184SOPE   H6S21060   1.569   1.091   7.221  0.1741 -0.3097 -0.9026
  184SOPE   C2721061   1.385   1.184   7.321  0.2601 -0.1343 -0.6607
  184SOPE   H7R21062   1.432   1.284   7.333 -2.0819  0.9961 -0.4107
  184SOPE   H7S21063   1.282   1.201   7.283  0.1078 -0.1253 -0.2466
  184SOPE   C2821064   1.384   1.115   7.455  0.5528 -0.0814  0.3732
  184SOPE   H8R21065   1.321   1.024   7.457 -0.2220  0.4406  0.4916
  184SOPE   H8S21066   1.486   1.072   7.456  1.6861  2.4072 -0.4569
  184SOPE   C2921067   1.356   1.199   7.575 -0.1743  0.6305 -0.6619
  184SOPE   H9121068   1.409   1.296   7.572  1.0424 -0.0121 -0.5602
  184SOPE  C21021069   1.276   1.173   7.683  0.3854  0.4535 -0.1299
  184SOPE  H10121070   1.250   1.254   7.752  0.5624  2.3559 -2.1845
  184SOPE  C21121071   1.184   1.048   7.694 -0.4349  0.2800 -0.2361
  184SOPE  H11R21072   1.229   0.967   7.633 -0.9973  0.5756 -1.0681
  184SOPE  H11S21073   1.079   1.062   7.658 -0.4370  1.8485  0.3003
  184SOPE  C21221074   1.161   1.004   7.838 -0.0792  0.6076 -0.2488
  184SOPE  H12R21075   1.064   1.043   7.876  0.3680  1.0041  0.5145
  184SOPE  H12S21076   1.238   1.045   7.907  0.2540  0.0416 -0.2791
  184SOPE  C21321077   1.173   0.862   7.868  0.2641  0.3143 -0.1197
  184SOPE  H13R21078   1.278   0.844   7.836  0.8422  5.9515 -2.6203
  184SOPE  H13S21079   1.101   0.796   7.815  0.9035 -0.8433  0.4160
  184SOPE  C21421080   1.170   0.837   8.023 -0.4538 -0.5019  0.1947
  184SOPE  H14R21081   1.078   0.884   8.066 -1.2391 -0.6475 -1.2717
  184SOPE  H14S21082   1.250   0.894   8.076 -1.2073  0.9322 -0.1486
  184SOPE  C21521083   1.171   0.694   8.056  0.6669 -0.8041 -0.2401
  184SOPE  H15R21084   1.266   0.648   8.020  2.1276  1.2751  0.7829
  184SOPE  H15S21085   1.091   0.630   8.013 -1.3420  1.5115 -0.1470
  184SOPE  C21621086   1.172   0.673   8.202 -0.5482 -0.0296 -0.3218
  184SOPE  H16R21087   1.078   0.719   8.240 -1.1345 -2.5546  1.5345
  184SOPE  H16S21088   1.256   0.728   8.252 -1.0751 -0.2599  0.8679
  184SOPE  C21721089   1.181   0.532   8.243 -0.3690 -0.4575  0.3552
  184SOPE  H17R21090   1.279   0.493   8.208 -0.7777  0.8046 -2.4034
  184SOPE  H17S21091   1.115   0.460   8.189  2.3408 -0.9583 -2.5830
  184SOPE  C21821092   1.178   0.506   8.388  0.1473  0.1751 -0.6990
  184SOPE  H18R21093   1.086   0.454   8.421 -0.9481  2.7233  0.5352
  184SOPE  H18S21094   1.176   0.602   8.444  1.5917 -0.1000 -0.1220
  184SOPE  H18T21095   1.266   0.453   8.432 -1.7233 -1.1089  1.7759
  184SOPE   C3321096   1.214   0.677   7.086 -0.4381  0.4147  0.1517
  184SOPE   H3X21097   1.159   0.582   7.076  0.1766 -0.0451  1.0271
  184SOPE   H3Y21098   1.140   0.756   7.061 -1.1006 -0.9471 -2.6118
  184SOPE   C3421099   1.259   0.692   7.230 -0.4462 -0.3905 -0.2914
  184SOPE   H4X21100   1.296   0.795   7.246 -1.6887 -0.1511  1.3636
  184SOPE   H4Y21101   1.321   0.607   7.265 -0.9271 -1.2102 -1.3712
  184SOPE   C3521102   1.143   0.672   7.330 -0.3070 -0.1824  0.2419
  184SOPE   H5X21103   1.191   0.678   7.430 -1.1961  1.5283  0.5966
  184SOPE   H5Y21104   1.099   0.573   7.304  1.6838 -0.6722 -1.5614
  184SOPE   C3621105   1.030   0.776   7.309 -0.2552 -0.7863 -1.0443
  184SOPE   H6X21106   0.959   0.738   7.232 -0.8756 -0.8377 -0.4548
  184SOPE   H6Y21107   1.083   0.871   7.285 -1.2226  0.2381  0.6771
  184SOPE   C3721108   0.944   0.805   7.436  0.1670  0.1844 -0.3008
  184SOPE   H7X21109   0.873   0.883   7.402 -0.0075  0.2722  0.2605
  184SOPE   H7Y21110   1.011   0.838   7.519  0.4468  0.3057 -0.5702
  184SOPE   C3821111   0.860   0.688   7.483  0.2298  0.9550  0.0573
  184SOPE   H8X21112   0.839   0.627   7.393  2.8119  1.0876 -0.7223
  184SOPE   H8Y21113   0.773   0.738   7.530  0.4462  1.7061 -0.3317
  184SOPE   C3921114   0.927   0.599   7.593 -0.9827  0.3399  0.5067
  184SOPE   H9X21115   1.035   0.622   7.605 -0.9197  1.1183 -1.2199
  184SOPE   H9Y21116   0.918   0.491   7.568 -3.5518  0.0526  2.3480
  184SOPE  C31021117   0.853   0.608   7.723  0.2909  0.9440 -0.4391
  184SOPE  H10X21118   0.906   0.537   7.789  0.1522  1.8054  0.6235
  184SOPE  H10Y21119   0.761   0.549   7.701  0.6465  0.7454 -1.4807
  184SOPE  C31121120   0.824   0.743   7.787  0.0263 -0.1040  0.2116
  184SOPE  H11X21121   0.735   0.786   7.736  0.4779  0.5678 -0.0366
  184SOPE  H11Y21122   0.898   0.819   7.753  0.6007 -1.9899 -3.1732
  184SOPE  C31221123   0.800   0.743   7.938  1.3217  0.6497  0.0694
  184SOPE  H12X21124   0.897   0.716   7.984  2.1505  1.8285 -0.9256
  184SOPE  H12Y21125   0.723   0.663   7.947  0.6861  1.2860  0.4466
  184SOPE  C31321126   0.737   0.878   7.981 -0.2884 -0.1796 -0.3461
  184SOPE  H13X21127   0.651   0.910   7.919 -3.3744 -1.6846  2.8448
  184SOPE  H13Y21128   0.817   0.954   7.965 -1.2868  0.3975 -3.2070
  184SOPE  C31421129   0.679   0.873   8.127 -0.2052  0.2956 -0.1807
  184SOPE  H14X21130   0.623   0.777   8.125  0.0186  0.1733 -1.1543
  184SOPE  H14Y21131   0.622   0.963   8.156 -0.0995 -0.3085  2.1091
  184SOPE  C31521132   0.792   0.874   8.232 -0.2454 -0.0390 -0.1666
  184SOPE  H15X21133   0.861   0.960   8.232 -0.9989  0.6587  2.6185
  184SOPE  H15Y21134   0.845   0.777   8.220  1.2943  0.7366  0.1155
  184SOPE  C31621135   0.729   0.867   8.370  0.6050 -0.2745 -0.2743
  184SOPE  H16X21136   0.650   0.789   8.382  0.9121 -0.3261  1.6803
  184SOPE  H16Y21137   0.690   0.967   8.399  2.2508  0.8859 -1.8209
  184SOPE  C31721138   0.837   0.820   8.466  0.6675  0.4990 -0.4799
  184SOPE  H17X21139   0.878   0.917   8.501 -3.9618  2.7831 -0.6889
  184SOPE  H17Y21140   0.915   0.762   8.411 -1.6457 -0.0567 -3.4531
  184SOPE  C31821141   0.784   0.735   8.583  0.0884  0.4141  0.2148
  184SOPE  H18X21142   0.714   0.799   8.641  0.2356 -0.5324  1.4618
  184SOPE  H18Y21143   0.870   0.699   8.643  0.9871 -1.2608 -1.9187
  184SOPE  H18Z21144   0.739   0.647   8.531  2.4468  0.4055 -2.0393
  185SAPI   C1221145   1.006   3.767  11.088  0.5084 -0.6041 -0.9012
  185SAPI    H221146   1.010   3.844  11.008 -0.5851 -1.3507 -1.7143
  185SAPI    O221147   0.882   3.696  11.071 -0.1499  0.2689 -0.6228
  185SAPI   HO221148   0.830   3.728  10.997 -0.0871 -0.8905 -1.1904
  185SAPI   C1321149   1.131   3.690  11.077  0.1313 -0.0837 -0.4066
  185SAPI    H321150   1.218   3.754  11.103 -1.3721  2.2033 -0.7999
  185SAPI    O321151   1.135   3.641  10.948  0.0269 -0.6558  0.0756
  185SAPI   HO321152   1.057   3.588  10.931 -0.6045  0.6085 -1.1798
  185SAPI   C1421153   1.134   3.583  11.185  0.2055  0.6894 -0.3558
  185SAPI    H421154   1.051   3.511  11.169 -1.3935  1.7776  2.2680
  185SAPI    O421155   1.248   3.500  11.162  0.2927 -0.0836 -0.3510
  185SAPI   HO421156   1.288   3.473  11.246 -1.1110 -0.7555  0.1263
  185SAPI   C1521157   1.126   3.642  11.320  0.3419  0.7616 -0.2294
  185SAPI    H521158   1.220   3.694  11.347  0.4219 -0.5189  2.2665
  185SAPI    O521159   1.107   3.542  11.418  0.1606 -0.1074 -0.0039
  185SAPI   HO521160   1.142   3.562  11.506  0.9864 -2.0472  0.1566
  185SAPI   C1621161   1.006   3.741  11.331 -0.7425  0.4256 -0.1586
  185SAPI    H621162   0.912   3.687  11.309 -0.9549  0.3598  0.8531
  185SAPI    O621163   0.995   3.802  11.466 -0.6739  0.3322  0.1977
  185SAPI   HO621164   0.904   3.790  11.494 -0.2356  0.3711  1.6860
  185SAPI   C1121165   1.012   3.841  11.219 -0.2479  0.5053 -0.5845
  185SAPI    H121166   1.115   3.884  11.220  0.3677 -0.8774 -1.4689
  185SAPI     P21167   0.940   4.091  11.154 -0.3748  0.2615 -0.1590
  185SAPI   O1321168   1.083   4.123  11.159 -0.4318  0.0166  0.2139
  185SAPI   O1421169   0.843   4.189  11.202 -0.2432  0.2873  0.2850
  185SAPI   O1221170   0.916   3.948  11.232 -0.9203  0.5844 -0.5411
  185SAPI   O1121171   0.896   4.041  11.006  0.3426 -0.7146 -0.0473
  185SAPI    C121172   0.877   4.145  10.904  0.0261  0.0507 -0.4066
  185SAPI    HA21173   0.769   4.146  10.877 -1.0021 -0.5703  3.0995
  185SAPI    HB21174   0.903   4.248  10.936 -1.1622  0.3014 -0.1884
  185SAPI    C221175   0.941   4.108  10.768  0.1655 -0.5926 -0.6914
  185SAPI    HS21176   0.921   4.195  10.702 -1.3120  0.5580  1.1619
  185SAPI   O2121177   0.868   3.991  10.716 -0.1345 -1.0724 -0.8556
  185SAPI   C2121178   0.885   3.974  10.587 -0.0680 -0.5551 -0.0908
  185SAPI   O2221179   0.930   4.059  10.509 -0.0795  0.4404  0.3270
  185SAPI   C2221180   0.816   3.847  10.547 -0.1196 -1.1571 -0.1031
  185SAPI   H2R21181   0.894   3.795  10.486  0.8925 -2.0465  1.8481
  185SAPI   H2S21182   0.808   3.776  10.632 -1.9440 -1.2907 -0.3477
  185SAPI    C321183   1.092   4.084  10.789 -0.7204 -0.0899 -0.1473
  185SAPI    HX21184   1.117   4.006  10.865 -2.1457  0.5948  1.0772
  185SAPI    HY21185   1.125   4.173  10.847 -1.1767  0.0206 -0.0550
  185SAPI   O3121186   1.169   4.057  10.667 -0.2734  0.7386  0.1841
  185SAPI   C3121187   1.181   4.163  10.592  0.4356 -0.6750  0.2960
  185SAPI   O3221188   1.148   4.281  10.622  0.0083  0.1775 -0.0995
  185SAPI   C3221189   1.238   4.128  10.454 -0.0646  0.4587 -0.2241
  185SAPI   H2X21190   1.179   4.037  10.432  0.8490  0.0600 -1.0936
  185SAPI   H2Y21191   1.344   4.103  10.479 -1.0484 -1.0824  2.7679
  185SAPI   C2321192   0.691   3.877  10.474  0.1258 -0.4045  0.0561
  185SAPI   H3R21193   0.712   3.945  10.388  0.2696 -1.7258 -0.9847
  185SAPI   H3S21194   0.620   3.938  10.534  0.9076 -0.2497  0.8354
  185SAPI   C2421195   0.610   3.759  10.412 -0.4666  1.1166 -0.2786
  185SAPI   H4R21196   0.564   3.705  10.498  0.0214 -1.5957 -1.5919
  185SAPI   H4S21197   0.672   3.691  10.349 -4.0298 -2.3172 -0.4985
  185SAPI   C2521198   0.496   3.811  10.333  0.1277  0.7650  0.1438
  185SAPI   H5R21199   0.416   3.855  10.394 -0.1075 -0.9650  1.1502
  185SAPI   C2621200   0.485   3.806  10.198  0.3528 -0.2956  0.1056
  185SAPI   H6R21201   0.391   3.838  10.151 -0.6932 -2.9278  0.2602
  185SAPI   C2721202   0.580   3.766  10.091  0.2499  0.3166  0.2831
  185SAPI   H7R21203   0.683   3.765  10.134 -0.4215 -2.5128  2.1352
  185SAPI   H7S21204   0.571   3.838  10.007 -1.0305 -1.0446 -0.8054
  185SAPI   C2821205   0.563   3.622  10.051 -0.3142 -0.6182  0.4291
  185SAPI   H8R21206   0.538   3.551  10.132 -2.5503 -1.3520 -0.8067
  185SAPI   C2921207   0.569   3.571   9.928 -0.5832  0.5342  0.6632
  185SAPI   H9R21208   0.548   3.464   9.914 -1.7078  0.8202  0.0263
  185SAPI  C21021209   0.608   3.643   9.802 -0.4807  0.0788  0.6354
  185SAPI  H10R21210   0.630   3.563   9.728 -0.7924  0.7486 -0.1972
  185SAPI  H10S21211   0.705   3.695   9.817 -1.1920  1.5220  0.4574
  185SAPI  C21121212   0.514   3.747   9.745  0.5363 -0.3042 -0.2236
  185SAPI  H11R21213   0.428   3.776   9.807  1.0256  1.9571 -0.5396
  185SAPI  C21221214   0.517   3.800   9.625  0.2606  0.0529  0.5515
  185SAPI  H12R21215   0.429   3.854   9.587 -1.6479 -3.2200 -0.0664
  185SAPI  C21321216   0.622   3.753   9.524  0.6429 -0.4454 -0.2675
  185SAPI  H13R21217   0.622   3.642   9.523 -0.1314 -0.4925 -2.8016
  185SAPI  H13S21218   0.721   3.780   9.566  1.4056  1.6322 -3.0360
  185SAPI  C21421219   0.612   3.810   9.381 -0.8126  0.1878  0.0996
  185SAPI  H14R21220   0.586   3.917   9.382  0.0905  0.4152  1.1556
  185SAPI  C21521221   0.621   3.743   9.261 -0.6735  0.1859 -0.4410
  185SAPI  H15R21222   0.607   3.793   9.164  0.0598  0.8803 -0.1986
  185SAPI  C21621223   0.655   3.603   9.245 -1.0321  0.0030 -0.6407
  185SAPI  H16R21224   0.673   3.548   9.340  1.4604 -0.3310 -1.2334
  185SAPI  H16S21225   0.752   3.583   9.194 -0.1740  1.3758  0.3707
  185SAPI  C21721226   0.538   3.526   9.183 -0.4166 -0.0343  0.2047
  185SAPI  H17R21227   0.442   3.542   9.237 -0.7565 -1.5171  0.0840
  185SAPI  H17S21228   0.554   3.417   9.195 -1.2013  0.0204  2.0250
  185SAPI  C21821229   0.520   3.562   9.031 -0.1174 -0.4975 -0.4119
  185SAPI  H18R21230   0.621   3.529   9.000  1.3364 -0.3111  3.5496
  185SAPI  H18S21231   0.517   3.669   8.999  0.6269  0.3010  1.9559
  185SAPI  C21921232   0.410   3.483   8.954 -0.2588 -0.6308  0.4928
  185SAPI  H19R21233   0.433   3.492   8.846  0.9615  1.7278  0.8723
  185SAPI  H19S21234   0.312   3.533   8.968  0.1978  0.7367 -0.9578
  185SAPI  C22021235   0.398   3.336   8.981  0.6592 -0.2052 -0.0475
  185SAPI  H20R21236   0.491   3.281   8.953  1.0058  0.4364 -0.1910
  185SAPI  H20S21237   0.321   3.279   8.924  0.5742 -1.2534  1.0725
  185SAPI  H20T21238   0.378   3.330   9.090 -1.6443  0.9572 -0.3408
  185SAPI   C3321239   1.220   4.237  10.345  0.2185  0.6710 -0.0468
  185SAPI   H3X21240   1.271   4.335  10.337  1.0762  0.0926 -2.7618
  185SAPI   H3Y21241   1.111   4.262  10.346 -0.2835 -1.3282 -0.2019
  185SAPI   C3421242   1.245   4.174  10.206 -0.4739 -0.8920 -0.4680
  185SAPI   H4X21243   1.171   4.091  10.208 -2.1783  0.5344  2.7220
  185SAPI   H4Y21244   1.346   4.129  10.198 -0.6417 -1.2066 -0.8338
  185SAPI   C3521245   1.216   4.264  10.078 -0.2902 -0.2513 -0.5269
  185SAPI   H5X21246   1.295   4.339  10.062  0.0499 -0.9620 -2.4110
  185SAPI   H5Y21247   1.124   4.325  10.091 -0.2052 -0.5227  1.8956
  185SAPI   C3621248   1.233   4.181   9.945 -0.0562  0.1351 -0.8390
  185SAPI   H6X21249   1.162   4.096   9.947  3.1655 -2.8058  2.5272
  185SAPI   H6Y21250   1.335   4.137   9.944  0.9160  2.2774 -1.2860
  185SAPI   C3721251   1.230   4.268   9.818  0.8908  0.1977 -0.0617
  185SAPI   H7X21252   1.314   4.341   9.824  1.8674 -0.7626 -1.4142
  185SAPI   H7Y21253   1.130   4.316   9.811  0.5005 -0.5181  0.5220
  185SAPI   C3821254   1.236   4.192   9.691 -0.6304 -0.0823 -0.2041
  185SAPI   H8X21255   1.152   4.125   9.664 -0.3614 -0.9168  0.9496
  185SAPI   H8Y21256   1.323   4.124   9.701 -1.2347 -1.0625 -1.3566
  185SAPI   C3921257   1.272   4.284   9.581  0.3627 -0.0152  0.8166
  185SAPI   H9X21258   1.359   4.351   9.600  0.6104 -0.1260  0.1123
  185SAPI   H9Y21259   1.188   4.356   9.566 -1.7781 -2.6609 -0.8462
  185SAPI  C31021260   1.300   4.210   9.448 -0.8349  0.3348 -0.3728
  185SAPI  H10X21261   1.218   4.139   9.423 -1.8256  0.6596  1.7893
  185SAPI  H10Y21262   1.402   4.165   9.445 -1.1062 -0.2860 -2.8188
  185SAPI  C31121263   1.299   4.314   9.333 -0.0493 -0.0730 -0.6131
  185SAPI  H11X21264   1.355   4.401   9.373 -0.7261 -0.7468  1.9828
  185SAPI  H11Y21265   1.192   4.344   9.333  0.2962  1.2508 -0.8439
  185SAPI  C31221266   1.357   4.261   9.198  0.3812 -0.5674  0.3861
  185SAPI  H12X21267   1.321   4.159   9.173  1.2140 -0.6126 -0.6594
  185SAPI  H12Y21268   1.468   4.261   9.207  0.7243  1.3348 -2.6177
  185SAPI  C31321269   1.311   4.359   9.090  0.5890 -0.3395 -0.1984
  185SAPI  H13X21270   1.346   4.463   9.107 -1.7843  0.4236  0.4655
  185SAPI  H13Y21271   1.204   4.382   9.107  0.1062 -1.3615 -1.6149
  185SAPI  C31421272   1.328   4.321   8.947 -0.3052  0.2294 -0.3194
  185SAPI  H14X21273   1.283   4.220   8.936 -0.8641  0.4965 -0.5328
  185SAPI  H14Y21274   1.435   4.308   8.920 -0.0590  1.1549  0.1710
  185SAPI  C31521275   1.256   4.407   8.841 -0.1149  0.2531  0.1013
  185SAPI  H15X21276   1.301   4.373   8.745 -0.6362 -0.0944 -0.0220
  185SAPI  H15Y21277   1.284   4.514   8.852 -1.3287  0.6622 -0.6166
  185SAPI  C31621278   1.107   4.391   8.838  0.8337 -0.7246 -0.1935
  185SAPI  H16X21279   1.064   4.427   8.934 -0.4521 -1.2372 -0.5511
  185SAPI  H16Y21280   1.073   4.285   8.841  1.0741 -0.8507 -1.5380
  185SAPI  C31721281   1.047   4.465   8.718  0.4301 -0.7532 -0.6409
  185SAPI  H17X21282   1.097   4.415   8.632  2.7274 -1.6904  1.1052
  185SAPI  H17Y21283   1.071   4.573   8.721 -1.7391 -0.2569  1.7155
  185SAPI  C31821284   0.899   4.461   8.700 -0.0498 -0.0720  0.2709
  185SAPI  H18X21285   0.857   4.358   8.698 -0.8937  0.2492  0.8011
  185SAPI  H18Y21286   0.872   4.492   8.597  0.5767 -1.9281 -0.5025
  185SAPI  H18Z21287   0.850   4.529   8.772  0.6025  0.9624 -0.2371
  186SAPI   C1221288   6.656   1.094  10.655 -0.1106  0.8278  0.1487
  186SAPI    H221289   6.723   1.083  10.567 -0.4316  0.2875 -0.0350
  186SAPI    O221290   6.727   1.029  10.767  0.0205 -0.1369  0.0481
  186SAPI   HO221291   6.814   0.989  10.758 -0.2014 -0.4028 -1.0221
  186SAPI   C1321292   6.626   1.237  10.671  0.2713 -0.2066 -0.0077
  186SAPI    H321293   6.575   1.274  10.579 -2.1793  0.2600  1.4419
  186SAPI    O321294   6.754   1.306  10.687 -0.2032 -0.6485 -0.0428
  186SAPI   HO321295   6.778   1.300  10.780 -1.5835  1.2621  0.4910
  186SAPI   C1421296   6.523   1.265  10.785 -0.2267 -0.4051  0.3398
  186SAPI    H421297   6.572   1.235  10.880  0.8856 -2.5221 -0.8305
  186SAPI    O421298   6.496   1.408  10.793  0.7035  0.2939 -0.2928
  186SAPI   HO421299   6.518   1.425  10.884 -0.1459 -1.7811  0.3703
  186SAPI   C1521300   6.403   1.184  10.765  0.0933 -0.2067  0.7669
  186SAPI    H521301   6.358   1.220  10.670  1.6290  0.4177  0.2501
  186SAPI    O521302   6.300   1.201  10.866 -0.3458  0.6564 -0.2110
  186SAPI   HO521303   6.245   1.122  10.866 -0.7867  0.9650  0.1132
  186SAPI   C1621304   6.432   1.039  10.738 -0.2716 -0.0511  0.0629
  186SAPI    H621305   6.479   0.992  10.827  2.6346 -0.3441 -1.5157
  186SAPI    O621306   6.307   0.975  10.715 -0.4397  0.0874  0.2311
  186SAPI   HO621307   6.280   1.001  10.627 -0.3767 -0.4658  0.0419
  186SAPI   C1121308   6.528   1.021  10.619  0.6108 -0.0836 -0.1896
  186SAPI    H121309   6.488   1.076  10.532 -0.1113  1.2101  0.9217
  186SAPI     P21310   6.521   0.814  10.452 -0.1521  0.0460  0.1527
  186SAPI   O1321311   6.374   0.823  10.435  0.0857 -0.6212 -0.2491
  186SAPI   O1421312   6.588   0.680  10.453 -0.3460 -0.1475 -0.5032
  186SAPI   O1221313   6.561   0.881  10.594 -0.3248 -0.5200 -0.1234
  186SAPI   O1121314   6.603   0.901  10.349 -0.1710  0.3691 -0.0542
  186SAPI    C121315   6.538   0.996  10.263 -0.2844 -0.3476 -0.0670
  186SAPI    HA21316   6.536   0.964  10.156  0.1363 -0.7832  0.0540
  186SAPI    HB21317   6.434   1.022  10.294 -0.0959  1.4624 -0.8118
  186SAPI    C221318   6.626   1.131  10.259 -0.2432 -0.4047  0.1807
  186SAPI    HS21319   6.629   1.166  10.364  0.6026 -0.3834  0.1566
  186SAPI   O2121320   6.567   1.237  10.170  0.6122  0.0127  0.1072
  186SAPI   C2121321   6.488   1.322  10.237 -0.4547  0.1891 -0.4034
  186SAPI   O2221322   6.474   1.323  10.359  0.0655 -0.5258 -0.2846
  186SAPI   C2221323   6.423   1.420  10.139 -0.1512  0.8485  0.5556
  186SAPI   H2R21324   6.499   1.442  10.061 -1.3599  2.7356 -0.1530
  186SAPI   H2S21325   6.348   1.351  10.094  2.8312 -1.5768 -1.0502
  186SAPI    C321326   6.768   1.114  10.212 -0.3630  0.5048  0.3882
  186SAPI    HX21327   6.806   1.024  10.266 -0.6057 -0.4656 -1.0078
  186SAPI    HY21328   6.814   1.205  10.255 -0.0770  0.2898  0.5355
  186SAPI   O3121329   6.784   1.111  10.071 -0.3677  0.1057 -0.2536
  186SAPI   C3121330   6.907   1.088  10.028 -0.4636 -0.1706 -0.6098
  186SAPI   O3221331   6.999   1.056  10.097 -0.8780  0.1747 -0.2400
  186SAPI   C3221332   6.912   1.105   9.881  0.7386 -0.2538 -0.0851
  186SAPI   H2X21333   6.897   1.211   9.849  1.2211 -0.6814 -1.8711
  186SAPI   H2Y21334   6.825   1.043   9.850  0.5425 -0.5422  1.0225
  186SAPI   C2321335   6.364   1.545  10.203 -0.6658 -0.2488  1.1585
  186SAPI   H3R21336   6.441   1.593  10.266 -1.3766  0.7492  1.2876
  186SAPI   H3S21337   6.262   1.535  10.246 -1.5734  1.1357 -0.5491
  186SAPI   C2421338   6.325   1.652  10.092  0.0764  0.0607  0.5267
  186SAPI   H4R21339   6.277   1.732  10.153  1.1104  1.4830 -0.4812
  186SAPI   H4S21340   6.257   1.601  10.021 -0.0875 -1.3907  1.6666
  186SAPI   C2521341   6.447   1.707  10.025  0.4021  0.6520  0.1719
  186SAPI   H5R21342   6.531   1.750  10.083  0.5194  1.1778 -0.3821
  186SAPI   C2621343   6.467   1.710   9.886 -0.4980  0.4171 -0.3108
  186SAPI   H6R21344   6.556   1.764   9.851 -0.5537  0.8290  0.1780
  186SAPI   C2721345   6.368   1.641   9.793 -0.4836 -0.2875  0.5363
  186SAPI   H7R21346   6.326   1.555   9.849 -1.7206 -0.3201 -0.3954
  186SAPI   H7S21347   6.426   1.607   9.705 -0.1091 -0.5607  0.8898
  186SAPI   C2821348   6.255   1.726   9.735  0.3617 -0.6327  0.1753
  186SAPI   H8R21349   6.204   1.792   9.806  0.4233  1.3785 -1.5284
  186SAPI   C2921350   6.211   1.726   9.608  0.7670 -0.0872 -0.0580
  186SAPI   H9R21351   6.124   1.786   9.579  0.1451 -0.1533  1.6083
  186SAPI  C21021352   6.250   1.645   9.485  0.2150 -0.1678 -0.1458
  186SAPI  H10R21353   6.348   1.594   9.496  0.8876  0.7792 -1.6088
  186SAPI  H10S21354   6.264   1.712   9.398  0.2195  1.1304  0.8313
  186SAPI  C21121355   6.138   1.543   9.465 -0.1724 -0.5146  0.3361
  186SAPI  H11R21356   6.128   1.466   9.543  0.0884 -0.2987  0.5860
  186SAPI  C21221357   6.051   1.530   9.364 -0.2761 -0.4536 -0.1150
  186SAPI  H12R21358   5.974   1.451   9.369  1.2054 -2.1473 -2.5067
  186SAPI  C21321359   6.042   1.616   9.238  0.5406 -0.1238  0.4519
  186SAPI  H13R21360   6.104   1.569   9.158  0.9438 -0.7139  1.1005
  186SAPI  H13S21361   6.089   1.716   9.244  0.8739 -0.1113 -1.6067
  186SAPI  C21421362   5.896   1.640   9.195 -0.2335  0.0692 -0.0469
  186SAPI  H14R21363   5.835   1.692   9.271  0.3101  0.4819  0.1140
  186SAPI  C21521364   5.839   1.632   9.075  0.0317  0.0660  0.4028
  186SAPI  H15R21365   5.731   1.649   9.063 -0.0384  0.6874  1.7324
  186SAPI  C21621366   5.906   1.586   8.953  0.0561  0.0855 -0.0773
  186SAPI  H16R21367   5.828   1.532   8.895 -1.9775  1.0460  1.6308
  186SAPI  H16S21368   5.998   1.526   8.970  1.2151  2.1929  1.6263
  186SAPI  C21721369   5.960   1.705   8.872  0.6522  0.2708  0.3269
  186SAPI  H17R21370   5.990   1.787   8.941  4.8659 -1.4539  0.8105
  186SAPI  H17S21371   5.871   1.737   8.813  0.3150  0.6748  1.0483
  186SAPI  C21821372   6.067   1.663   8.766 -0.2782  0.4214 -0.2893
  186SAPI  H18R21373   6.022   1.594   8.692  4.5382 -0.9275 -2.3555
  186SAPI  H18S21374   6.148   1.603   8.814  0.2731  0.7297 -0.8152
  186SAPI  C21921375   6.141   1.773   8.685  0.0573 -0.0038  0.1056
  186SAPI  H19R21376   6.244   1.736   8.667  0.2643  1.6316 -2.6440
  186SAPI  H19S21377   6.162   1.863   8.747  2.3432 -0.9602  0.8288
  186SAPI  C22021378   6.078   1.806   8.552  0.1794  0.0306  0.1360
  186SAPI  H20R21379   6.043   1.716   8.496  0.5462 -0.1034  0.1147
  186SAPI  H20S21380   6.157   1.857   8.492 -0.6124  0.3572 -0.6480
  186SAPI  H20T21381   5.993   1.873   8.575  2.5327  2.2647  3.2963
  186SAPI   C3321382   7.041   1.051   9.809 -0.1184  0.0336 -0.4034
  186SAPI   H3X21383   7.039   0.940   9.817 -3.3576  0.0843  0.9051
  186SAPI   H3Y21384   7.135   1.088   9.856 -0.7523 -1.3369  2.1367
  186SAPI   C3421385   7.048   1.082   9.666  0.0204  0.5815  0.2169
  186SAPI   H4X21386   7.052   1.193   9.656  2.5816  0.5218 -0.0629
  186SAPI   H4Y21387   6.961   1.036   9.613  1.8482 -1.5756 -1.0880
  186SAPI   C3521388   7.168   1.032   9.585  0.0265 -0.1715 -0.1553
  186SAPI   H5X21389   7.197   0.928   9.610  0.6317  0.3551  1.4268
  186SAPI   H5Y21390   7.265   1.076   9.616 -1.5716  2.7735  1.1483
  186SAPI   C3621391   7.162   1.049   9.429  0.1053  0.6507  0.5552
  186SAPI   H6X21392   7.107   1.142   9.406  2.0704  1.1871 -2.7160
  186SAPI   H6Y21393   7.098   0.961   9.405  0.1533  0.1016  2.2570
  186SAPI   C3721394   7.307   1.046   9.362  0.1376 -0.0037  0.6928
  186SAPI   H7X21395   7.358   0.947   9.369  2.1134  0.9925  1.2300
  186SAPI   H7Y21396   7.380   1.109   9.417  0.6980  0.8400 -0.9547
  186SAPI   C3821397   7.291   1.086   9.212 -0.6690  0.1049  0.4221
  186SAPI   H8X21398   7.208   1.155   9.189  0.1761  0.2449 -2.6734
  186SAPI   H8Y21399   7.262   1.000   9.147 -1.5128 -0.9380  2.1168
  186SAPI   C3921400   7.420   1.145   9.150  0.1117 -0.0973 -0.6520
  186SAPI   H9X21401   7.507   1.092   9.195 -2.0722 -2.2871  1.3179
  186SAPI   H9Y21402   7.416   1.252   9.180  1.8574 -0.2585  0.2790
  186SAPI  C31021403   7.425   1.150   8.992  0.0942  0.4303  0.0536
  186SAPI  H10X21404   7.490   1.229   8.946  0.7154  0.8504  1.6069
  186SAPI  H10Y21405   7.320   1.165   8.957  0.2075 -1.9795 -1.5276
  186SAPI  C31121406   7.490   1.024   8.942  0.4489  0.0544  0.2605
  186SAPI  H11X21407   7.468   1.001   8.836  0.3011  0.9511  0.0836
  186SAPI  H11Y21408   7.447   0.936   8.993 -1.2625  0.1454 -0.9301
  186SAPI  C31221409   7.640   1.020   8.967 -0.4140  0.7325  0.0446
  186SAPI  H12X21410   7.660   0.985   9.071  1.6300  0.2524 -0.4463
  186SAPI  H12Y21411   7.690   1.118   8.951  0.7168  0.2443  0.4228
  186SAPI  C31321412   7.725   0.934   8.874  0.2378 -0.3410  0.3246
  186SAPI  H13X21413   7.712   0.975   8.772 -1.4925 -0.7341  0.3559
  186SAPI  H13Y21414   7.670   0.838   8.876  1.6852 -1.2001  0.6212
  186SAPI  C31421415   7.872   0.933   8.901  0.0583  0.1741  0.5283
  186SAPI  H14X21416   7.904   0.851   8.832  4.0014 -0.2213  2.5007
  186SAPI  H14Y21417   7.885   0.907   9.008 -1.7075  2.0738  1.2611
  186SAPI  C31521418   7.947   1.069   8.878 -0.4256  0.2917  0.1457
  186SAPI  H15X21419   7.931   1.133   8.967 -0.7786  2.3416 -1.3160
  186SAPI  H15Y21420   7.897   1.119   8.792 -0.5367 -1.5067 -0.8972
  186SAPI  C31621421   8.090   1.050   8.846  0.8073 -0.7739  0.2833
  186SAPI  H16X21422   8.103   0.974   8.766 -0.9770  1.5743 -2.4319
  186SAPI  H16Y21423   8.146   1.017   8.936 -0.2055 -2.6731  0.2546
  186SAPI  C31721424   8.156   1.180   8.796  0.2257 -0.1018  0.1770
  186SAPI  H17X21425   8.109   1.259   8.858 -1.3663 -0.2988 -0.7434
  186SAPI  H17Y21426   8.126   1.208   8.693  0.6005  0.5749  0.2466
  186SAPI  C31821427   8.310   1.178   8.812 -0.1435 -0.5874 -0.3692
  186SAPI  H18X21428   8.358   1.093   8.759  0.2396 -1.0545  0.7067
  186SAPI  H18Y21429   8.329   1.156   8.919 -0.3297  1.5471  0.1316
  186SAPI  H18Z21430   8.351   1.277   8.784 -2.0596  0.7683  1.3597
  187SAPI   C1221431   2.784   3.789   6.463 -0.0631  0.3112  0.1127
  187SAPI    H221432   2.783   3.754   6.568  4.0001  1.3351  0.6726
  187SAPI    O221433   2.881   3.896   6.460  0.1874  0.2617 -0.2280
  187SAPI   HO221434   2.851   3.958   6.526  2.0617 -0.1956  1.1457
  187SAPI   C1321435   2.837   3.673   6.385  0.7318  0.5735  0.2863
  187SAPI    H321436   2.766   3.589   6.401  0.7891  0.2417 -1.1302
  187SAPI    O321437   2.961   3.631   6.439 -0.0421  0.7231 -0.3697
  187SAPI   HO321438   3.010   3.713   6.447 -0.2546  0.9078 -0.9365
  187SAPI   C1421439   2.842   3.703   6.241  0.4491 -0.1678 -0.4129
  187SAPI    H421440   2.914   3.785   6.218 -1.6553  1.3554 -1.9632
  187SAPI    O421441   2.896   3.587   6.177 -0.0071 -0.5958 -0.5197
  187SAPI   HO421442   2.982   3.562   6.212 -0.7963 -0.0107  2.1046
  187SAPI   C1521443   2.704   3.739   6.183 -0.1014  0.6082  0.8890
  187SAPI    H521444   2.638   3.654   6.214 -2.3342  2.9592  3.1254
  187SAPI    O521445   2.706   3.752   6.043  0.1300  0.1162 -0.3894
  187SAPI   HO521446   2.624   3.779   6.000  0.8169 -0.6911 -2.3067
  187SAPI   C1621447   2.648   3.857   6.259  0.0893  0.0589 -0.5724
  187SAPI    H621448   2.730   3.931   6.244  1.0449 -0.8909 -0.1114
  187SAPI    O621449   2.527   3.906   6.206  0.6111 -0.0173  0.0424
  187SAPI   HO621450   2.465   3.950   6.266 -1.8362 -0.8127 -1.7304
  187SAPI   C1121451   2.644   3.826   6.413  0.3430  0.0477 -0.2736
  187SAPI    H121452   2.574   3.743   6.436 -0.3752  1.0264  1.1850
  187SAPI     P21453   2.452   3.995   6.529  0.0465  0.6084 -0.2684
  187SAPI   O1321454   2.363   3.949   6.423 -0.1575  0.4373  0.1796
  187SAPI   O1421455   2.453   4.142   6.562 -0.5870  0.8264  0.4787
  187SAPI   O1221456   2.603   3.949   6.486 -0.0250  0.0686 -0.7975
  187SAPI   O1121457   2.429   3.913   6.667 -0.1573  0.5917 -0.2098
  187SAPI    C121458   2.442   3.980   6.790  0.2650  0.2135 -0.4955
  187SAPI    HA21459   2.412   4.087   6.784  0.0120  0.1430 -0.4793
  187SAPI    HB21460   2.381   3.929   6.867  0.0918 -1.2166 -1.5361
  187SAPI    C221461   2.594   3.984   6.837 -0.2274  0.2199 -0.5795
  187SAPI    HS21462   2.644   4.032   6.750  0.4680 -0.7974 -0.7679
  187SAPI   O2121463   2.648   3.850   6.858  0.2033  0.4129  0.0663
  187SAPI   C2121464   2.780   3.842   6.840  0.2415 -0.5393 -0.2456
  187SAPI   O2221465   2.855   3.935   6.814 -0.8367  0.4797 -0.2230
  187SAPI   C2221466   2.816   3.690   6.858  0.0448 -0.0367  0.2930
  187SAPI   H2R21467   2.722   3.631   6.860 -0.8116  1.1921 -1.2212
  187SAPI   H2S21468   2.864   3.663   6.762 -0.3465  1.2299 -0.2861
  187SAPI    C321469   2.592   4.076   6.960 -0.3864  0.2245  0.1644
  187SAPI    HX21470   2.520   4.032   7.032  2.7686 -3.3588  1.4604
  187SAPI    HY21471   2.560   4.178   6.928  0.0156  2.0771  4.8530
  187SAPI   O3121472   2.717   4.091   7.027 -0.0371  0.0835 -0.3283
  187SAPI   C3121473   2.810   4.180   6.984 -0.1157  0.6381  0.2627
  187SAPI   O3221474   2.793   4.245   6.886  0.7431  0.3227  0.1306
  187SAPI   C3221475   2.937   4.166   7.061 -0.0673 -0.4876  0.3329
  187SAPI   H2X21476   2.977   4.063   7.048  1.3957  0.1643 -0.5507
  187SAPI   H2Y21477   2.927   4.185   7.170 -0.4166  2.7900 -0.1692
  187SAPI   C2321478   2.916   3.655   6.979  0.6639  0.4732  0.0428
  187SAPI   H3R21479   2.998   3.730   6.982 -0.9275  2.7966 -4.1872
  187SAPI   H3S21480   2.970   3.561   6.956  0.6611  0.0796  1.5778
  187SAPI   C2421481   2.825   3.631   7.096  0.6379 -0.0991 -0.0194
  187SAPI   H4R21482   2.754   3.709   7.132  1.5497  0.3895  0.7877
  187SAPI   H4S21483   2.889   3.625   7.187  0.3685  2.3974  0.4137
  187SAPI   C2521484   2.755   3.498   7.093  0.5452 -0.2773 -0.2143
  187SAPI   H5R21485   2.714   3.456   7.000 -2.4741  3.3596 -0.7547
  187SAPI   C2621486   2.731   3.419   7.203  0.0786 -0.0392 -0.2821
  187SAPI   H6R21487   2.679   3.323   7.190 -1.0593  0.7007 -1.4975
  187SAPI   C2721488   2.768   3.454   7.349 -0.3961 -0.5196  0.3178
  187SAPI   H7R21489   2.791   3.562   7.360 -0.0677 -0.1849 -2.6007
  187SAPI   H7S21490   2.863   3.400   7.369  0.1668  0.9375  1.7717
  187SAPI   C2821491   2.662   3.424   7.449 -0.5805  0.0895 -0.3495
  187SAPI   H8R21492   2.589   3.351   7.411  0.5441  0.5218 -3.7483
  187SAPI   C2921493   2.631   3.496   7.563 -0.1344 -0.1533  0.3383
  187SAPI   H9R21494   2.550   3.453   7.624 -2.2921 -0.5594 -2.6310
  187SAPI  C21021495   2.720   3.607   7.613  0.0569 -0.0245 -0.0306
  187SAPI  H10R21496   2.660   3.658   7.691 -0.8255  1.1950 -1.4297
  187SAPI  H10S21497   2.757   3.681   7.538  2.1392 -2.3245 -1.4148
  187SAPI  C21121498   2.853   3.548   7.667  0.7175 -0.2624  0.9726
  187SAPI  H11R21499   2.928   3.520   7.592  1.2136 -0.2913  1.4674
  187SAPI  C21221500   2.874   3.521   7.794  0.0321 -0.1089 -0.2823
  187SAPI  H12R21501   2.969   3.471   7.820  1.6417  2.0590 -1.7228
  187SAPI  C21321502   2.787   3.552   7.916  0.0946  0.8886  0.1156
  187SAPI  H13R21503   2.683   3.514   7.906  0.8400 -1.1305 -0.4745
  187SAPI  H13S21504   2.784   3.662   7.933  0.6566  0.7555  1.1731
  187SAPI  C21421505   2.850   3.511   8.047  0.1354  0.1770  0.1845
  187SAPI  H14R21506   2.945   3.457   8.036  0.1089  0.0579  0.5478
  187SAPI  C21521507   2.802   3.542   8.167  0.4071  0.2912 -0.4640
  187SAPI  H15R21508   2.855   3.520   8.261 -0.0204  2.6836  0.4213
  187SAPI  C21621509   2.669   3.614   8.192  0.3897  0.5672 -0.1819
  187SAPI  H16R21510   2.607   3.547   8.255 -0.7447  0.6084 -1.2222
  187SAPI  H16S21511   2.615   3.621   8.095  1.3284 -1.6852 -0.9279
  187SAPI  C21721512   2.673   3.762   8.231 -0.3775  0.2684  0.4481
  187SAPI  H17R21513   2.568   3.799   8.231  0.3401  2.4270  0.3861
  187SAPI  H17S21514   2.735   3.831   8.170 -1.3366  0.2785 -0.5494
  187SAPI  C21821515   2.713   3.770   8.381 -0.0107  0.7168 -0.0193
  187SAPI  H18R21516   2.811   3.719   8.391 -0.9160 -1.3390 -0.9351
  187SAPI  H18S21517   2.646   3.703   8.439  0.0816 -0.3199 -1.0480
  187SAPI  C21921518   2.714   3.918   8.432 -0.4139  0.1361 -1.0904
  187SAPI  H19R21519   2.786   3.980   8.375 -0.1691  2.8594  1.8860
  187SAPI  H19S21520   2.740   3.909   8.540  0.9580  0.8725 -1.3451
  187SAPI  C22021521   2.586   4.002   8.426  0.5899  0.0503 -0.3271
  187SAPI  H20R21522   2.578   4.085   8.500 -0.4632  0.0567 -0.4232
  187SAPI  H20S21523   2.503   3.934   8.455 -0.2742  0.2563 -2.1187
  187SAPI  H20T21524   2.564   4.041   8.324 -0.2995  0.7204  0.1054
  187SAPI   C3321525   3.045   4.265   7.007  0.3505  0.1860 -0.4222
  187SAPI   H3X21526   3.014   4.371   7.025 -3.6552 -0.8129 -0.4156
  187SAPI   H3Y21527   3.057   4.258   6.897 -1.2065  1.4989 -0.7263
  187SAPI   C3421528   3.179   4.239   7.067  0.2012  0.5871 -0.7124
  187SAPI   H4X21529   3.237   4.333   7.052  0.2415  0.8396  0.8803
  187SAPI   H4Y21530   3.231   4.152   7.020 -0.8123 -0.6203  0.3356
  187SAPI   C3521531   3.182   4.217   7.217 -0.0919  0.0429  0.2420
  187SAPI   H5X21532   3.134   4.120   7.241 -1.1312  0.4636 -0.0671
  187SAPI   H5Y21533   3.125   4.300   7.265  1.5494  1.0977  0.4427
  187SAPI   C3621534   3.324   4.194   7.272 -0.2299 -0.4023 -0.2261
  187SAPI   H6X21535   3.391   4.281   7.254 -1.8651  1.5609  2.4112
  187SAPI   H6Y21536   3.377   4.107   7.226 -0.2399 -0.2986 -0.4362
  187SAPI   C3721537   3.318   4.178   7.430  0.3581  0.2489 -0.0233
  187SAPI   H7X21538   3.235   4.105   7.441 -0.3716  1.0932  0.2547
  187SAPI   H7Y21539   3.294   4.262   7.499 -0.0295  0.7387 -0.7381
  187SAPI   C3821540   3.433   4.110   7.500 -0.0102 -0.1707  0.3926
  187SAPI   H8X21541   3.521   4.172   7.476  0.5279 -1.2032 -0.3365
  187SAPI   H8Y21542   3.458   4.009   7.461  1.3446  0.0866  0.5460
  187SAPI   C3921543   3.423   4.104   7.659 -0.1043 -1.0109 -0.6039
  187SAPI   H9X21544   3.340   4.033   7.681 -0.7431 -0.2156 -0.3606
  187SAPI   H9Y21545   3.389   4.203   7.697 -0.3100 -0.9412 -0.9620
  187SAPI  C31021546   3.553   4.076   7.735 -0.2866 -0.2557 -0.6059
  187SAPI  H10X21547   3.638   4.125   7.683 -1.4599  2.1074 -0.3923
  187SAPI  H10Y21548   3.567   3.965   7.734 -0.5530 -0.4343  2.8768
  187SAPI  C31121549   3.564   4.125   7.882  0.0456  0.3368  0.4146
  187SAPI  H11X21550   3.557   4.236   7.889 -0.7277  0.2811  0.5900
  187SAPI  H11Y21551   3.668   4.106   7.917 -0.3340 -2.6478  0.2120
  187SAPI  C31221552   3.471   4.062   7.984 -0.6386  0.1780  0.2170
  187SAPI  H12X21553   3.496   4.102   8.085 -2.5656 -0.7473  1.1106
  187SAPI  H12Y21554   3.492   3.953   7.990 -0.0440  0.1816 -1.2469
  187SAPI  C31321555   3.319   4.072   7.966  0.5399 -0.4415 -0.7784
  187SAPI  H13X21556   3.278   4.001   7.891 -2.4920  0.1099  0.2116
  187SAPI  H13Y21557   3.305   4.180   7.943  2.0813  0.0755  0.5632
  187SAPI  C31421558   3.237   4.048   8.100 -0.1831 -0.0234  0.0893
  187SAPI  H14X21559   3.258   4.132   8.169 -0.2672  1.2518 -1.3931
  187SAPI  H14Y21560   3.263   3.947   8.140 -0.1303 -0.4651 -1.0211
  187SAPI  C31521561   3.089   4.049   8.070 -0.3883 -0.2750 -0.3803
  187SAPI  H15X21562   3.066   3.953   8.020  1.7230 -1.0823  0.0875
  187SAPI  H15Y21563   3.064   4.144   8.018 -2.6176 -0.7054 -0.2185
  187SAPI  C31621564   3.008   4.039   8.201  1.0464 -0.1874  0.1925
  187SAPI  H16X21565   3.046   3.952   8.259 -1.5147 -0.8982  0.9234
  187SAPI  H16Y21566   2.902   4.019   8.175  1.5342 -1.9300 -0.6608
  187SAPI  C31721567   3.011   4.150   8.303 -0.6838  0.4027  0.4529
  187SAPI  H17X21568   3.115   4.174   8.334  0.3665 -3.0111 -0.1090
  187SAPI  H17Y21569   2.946   4.117   8.387  0.8333 -1.6843  0.8788
  187SAPI  C31821570   2.950   4.282   8.249  0.0919 -0.0920 -0.5295
  187SAPI  H18X21571   2.911   4.331   8.341 -0.6374  0.2671 -1.0248
  187SAPI  H18Y21572   2.869   4.271   8.174 -0.5316  0.3834  0.0639
  187SAPI  H18Z21573   3.027   4.346   8.201  0.5244 -1.1931 -1.3540
  188SAPI   C1221574   2.818   6.684   6.334 -0.1334  0.0749 -0.0142
  188SAPI    H221575   2.751   6.657   6.418  2.0445  0.6680  1.9982
  188SAPI    O221576   2.734   6.701   6.219  0.6257  0.0990 -0.0127
  188SAPI   HO221577   2.640   6.682   6.224  1.0127 -1.8681  0.3716
  188SAPI   C1321578   2.881   6.810   6.381 -0.0737 -0.1511 -0.7191
  188SAPI    H321579   2.937   6.784   6.473  0.0077 -2.0866 -1.2674
  188SAPI    O321580   2.783   6.903   6.428  0.2885 -0.5470 -0.9113
  188SAPI   HO321581   2.722   6.917   6.355 -1.1698 -0.9242  0.1913
  188SAPI   C1421582   2.968   6.873   6.271 -0.2606  1.0248  0.1143
  188SAPI    H421583   2.907   6.890   6.179 -1.6276  0.6612  0.9305
  188SAPI    O421584   3.035   6.986   6.327  0.5149 -0.3492 -0.4795
  188SAPI   HO421585   3.105   7.009   6.265  1.6923 -1.8903  0.2248
  188SAPI   C1521586   3.075   6.766   6.229 -0.0941 -1.1321 -0.1594
  188SAPI    H521587   3.142   6.735   6.312 -3.2247  0.0200  3.0556
  188SAPI    O521588   3.152   6.821   6.128 -0.1145  0.5899 -0.2199
  188SAPI   HO521589   3.245   6.818   6.154  0.3277 -1.1669 -1.6924
  188SAPI   C1621590   3.006   6.638   6.191  0.3802 -0.3541 -0.7369
  188SAPI    H621591   2.938   6.659   6.105 -2.3332 -1.8842  0.8856
  188SAPI    O621592   3.101   6.545   6.145  0.0395  0.4274 -0.5914
  188SAPI   HO621593   3.045   6.471   6.119  2.7707 -1.2815 -2.0397
  188SAPI   C1121594   2.926   6.585   6.310  0.1507 -1.0602 -0.2604
  188SAPI    H121595   2.993   6.582   6.399  1.9204  0.5430 -1.4687
  188SAPI     P21596   2.907   6.337   6.384 -0.4263  0.0284  0.1330
  188SAPI   O1321597   3.053   6.330   6.410 -0.6235 -0.4111  0.0953
  188SAPI   O1421598   2.851   6.216   6.326  0.4621  0.0263 -0.1834
  188SAPI   O1221599   2.878   6.457   6.281 -0.3736  0.3397  0.1919
  188SAPI   O1121600   2.824   6.389   6.511 -0.3230  0.1248 -0.3796
  188SAPI    C121601   2.684   6.394   6.508  0.1835  0.1130 -0.7531
  188SAPI    HA21602   2.651   6.424   6.407 -0.0075 -0.4615 -0.8686
  188SAPI    HB21603   2.649   6.291   6.531 -1.4179  1.3443  3.0934
  188SAPI    C221604   2.634   6.496   6.617 -0.5865  0.0150  0.5201
  188SAPI    HS21605   2.702   6.583   6.601 -0.1408 -0.7185 -1.9243
  188SAPI   O2121606   2.676   6.440   6.744 -0.5960 -0.3643 -0.1633
  188SAPI   C2121607   2.663   6.514   6.843  0.3743  0.7250 -0.2906
  188SAPI   O2221608   2.645   6.638   6.847  0.6371 -0.5486  0.0906
  188SAPI   C2221609   2.689   6.433   6.971 -0.4438  0.9812 -0.4903
  188SAPI   H2R21610   2.599   6.369   6.971 -0.7607  1.3675 -2.1709
  188SAPI   H2S21611   2.778   6.368   6.960 -0.9621 -0.2389  1.9013
  188SAPI    C321612   2.478   6.526   6.610 -0.2223 -0.5399 -0.3699
  188SAPI    HX21613   2.459   6.555   6.504  1.4052  0.1067 -0.5115
  188SAPI    HY21614   2.477   6.623   6.664 -2.4896  1.7208 -3.9938
  188SAPI   O3121615   2.408   6.413   6.667  0.2362  0.2670  0.1151
  188SAPI   C3121616   2.280   6.435   6.705  0.3967 -0.6863 -0.1017
  188SAPI   O3221617   2.229   6.546   6.715  0.1090  0.3815 -0.3061
  188SAPI   C3221618   2.215   6.307   6.757  0.7845  0.0801 -0.2663
  188SAPI   H2X21619   2.289   6.224   6.748  0.3311 -0.2901 -0.6037
  188SAPI   H2Y21620   2.141   6.280   6.679  1.7653 -0.2398 -1.1219
  188SAPI   C2321621   2.686   6.517   7.105 -0.2870  0.6910 -0.5214
  188SAPI   H3R21622   2.588   6.570   7.110 -0.3284  0.6479 -0.8774
  188SAPI   H3S21623   2.753   6.605   7.100 -1.5331  1.6795 -0.4818
  188SAPI   C2421624   2.717   6.434   7.228 -1.1606  0.0413  0.3036
  188SAPI   H4R21625   2.737   6.505   7.311 -3.3480  3.2368 -1.6814
  188SAPI   H4S21626   2.797   6.359   7.214 -2.2100 -1.2015  0.7357
  188SAPI   C2521627   2.597   6.352   7.260  0.4898  0.0397 -0.8625
  188SAPI   H5R21628   2.551   6.307   7.171  2.3729 -2.8854 -0.5080
  188SAPI   C2621629   2.548   6.334   7.383 -0.3299  0.0409 -0.2259
  188SAPI   H6R21630   2.455   6.275   7.384  0.9808 -2.1646  1.0329
  188SAPI   C2721631   2.585   6.380   7.523 -0.0679  0.3531 -0.1514
  188SAPI   H7R21632   2.497   6.385   7.592 -0.5496  2.5063 -0.8505
  188SAPI   H7S21633   2.599   6.490   7.524  0.7391  0.3092 -2.2016
  188SAPI   C2821634   2.691   6.305   7.585 -0.4003  0.7752 -0.6646
  188SAPI   H8R21635   2.775   6.273   7.521 -1.2325 -1.4708 -0.7137
  188SAPI   C2921636   2.700   6.267   7.710  1.1812 -0.5585 -0.6677
  188SAPI   H9R21637   2.783   6.201   7.739  1.1247 -2.1828 -3.8586
  188SAPI  C21021638   2.595   6.296   7.817 -0.1830  0.1606  0.0885
  188SAPI  H10R21639   2.503   6.335   7.768 -0.7163  0.4419  1.2903
  188SAPI  H10S21640   2.638   6.380   7.877  0.1941  0.1832 -0.2103
  188SAPI  C21121641   2.559   6.178   7.907 -0.5146  0.5537  0.5513
  188SAPI  H11R21642   2.553   6.081   7.855 -0.0570  0.7716  0.0848
  188SAPI  C21221643   2.553   6.173   8.038  0.5756  0.2873  0.6450
  188SAPI  H12R21644   2.530   6.075   8.083 -0.0578 -1.1573 -2.5509
  188SAPI  C21321645   2.573   6.278   8.145  0.3417 -0.6492  0.8674
  188SAPI  H13R21646   2.665   6.336   8.126  0.3104  0.7985  4.4041
  188SAPI  H13S21647   2.596   6.227   8.241 -0.5182 -1.9737  0.4009
  188SAPI  C21421648   2.455   6.379   8.155  0.5266  0.6161  0.0079
  188SAPI  H14R21649   2.400   6.401   8.062 -0.7083 -0.2467  0.5007
  188SAPI  C21521650   2.413   6.444   8.264 -0.2469  0.2112  0.6279
  188SAPI  H15R21651   2.324   6.510   8.262  0.7284  1.5926  1.2192
  188SAPI  C21621652   2.458   6.423   8.410 -0.1314  0.5332  0.1499
  188SAPI  H16R21653   2.497   6.319   8.421 -1.5356 -0.1662 -1.2093
  188SAPI  H16S21654   2.371   6.425   8.478 -1.3210 -1.3005 -1.2154
  188SAPI  C21721655   2.565   6.526   8.465 -0.1519  0.6204 -0.2455
  188SAPI  H17R21656   2.563   6.520   8.576  0.2981  3.7380  0.0104
  188SAPI  H17S21657   2.531   6.630   8.448  0.7956  0.9737 -0.0648
  188SAPI  C21821658   2.708   6.518   8.412  0.0963  0.0516 -0.9036
  188SAPI  H18R21659   2.718   6.524   8.301 -0.0975  0.3804 -0.9027
  188SAPI  H18S21660   2.746   6.415   8.425  0.3880  0.1726 -0.7847
  188SAPI  C21921661   2.807   6.614   8.478  0.2938  0.1451  0.3651
  188SAPI  H19R21662   2.814   6.591   8.587  0.1475 -1.1629  0.1140
  188SAPI  H19S21663   2.779   6.719   8.455  0.7374  0.1301 -0.2550
  188SAPI  C22021664   2.951   6.590   8.443  0.1182  0.1220  0.5015
  188SAPI  H20R21665   3.008   6.680   8.475 -1.6372  1.8886 -1.0489
  188SAPI  H20S21666   2.969   6.572   8.335 -1.1709  0.3214  0.2436
  188SAPI  H20T21667   2.994   6.502   8.497  1.0766  1.3798  1.8651
  188SAPI   C3321668   2.137   6.314   6.889  0.4126 -0.4497 -0.4277
  188SAPI   H3X21669   2.051   6.244   6.879  0.7584 -0.8336 -0.7882
  188SAPI   H3Y21670   2.095   6.416   6.887  0.6929 -0.2653  1.7231
  188SAPI   C3421671   2.221   6.277   7.013 -0.4926 -0.3505  0.7313
  188SAPI   H4X21672   2.323   6.321   7.020 -1.5151  2.5866 -1.0869
  188SAPI   H4Y21673   2.239   6.168   7.002 -2.6546 -0.7374  0.7740
  188SAPI   C3521674   2.140   6.314   7.133  0.0873  0.1741  0.4325
  188SAPI   H5X21675   2.051   6.248   7.131  0.1467  0.0798  0.7779
  188SAPI   H5Y21676   2.105   6.419   7.123 -2.3673 -0.6767 -0.6911
  188SAPI   C3621677   2.213   6.284   7.264  0.2197 -0.3687 -0.0733
  188SAPI   H6X21678   2.278   6.369   7.296 -3.7875  3.3524 -0.9363
  188SAPI   H6Y21679   2.282   6.198   7.249  0.3374 -0.1954 -0.5215
  188SAPI   C3721680   2.120   6.255   7.389 -0.2393  0.4512  0.0055
  188SAPI   H7X21681   2.056   6.166   7.369 -2.8514  2.5697 -1.9308
  188SAPI   H7Y21682   2.051   6.342   7.397 -2.6746 -0.9586 -3.2962
  188SAPI   C3821683   2.201   6.229   7.523  0.3385 -0.1651  0.1424
  188SAPI   H8X21684   2.268   6.317   7.537 -1.0287  0.7946  0.9268
  188SAPI   H8Y21685   2.259   6.134   7.526  0.0187 -0.4788 -2.0001
  188SAPI   C3921686   2.110   6.213   7.651 -0.3678  0.2229 -0.7622
  188SAPI   H9X21687   2.055   6.118   7.634 -0.4420 -0.1434  1.3484
  188SAPI   H9Y21688   2.043   6.301   7.655 -0.2852  0.3221 -1.4227
  188SAPI  C31021689   2.193   6.208   7.780 -0.2478  0.2110  0.2550
  188SAPI  H10X21690   2.241   6.305   7.799 -0.4102  0.8974 -2.3875
  188SAPI  H10Y21691   2.268   6.129   7.761  0.9638  1.0679  1.3881
  188SAPI  C31121692   2.116   6.159   7.896 -0.0752  0.4192 -0.6996
  188SAPI  H11X21693   2.064   6.069   7.858  2.1025 -0.6786 -1.2492
  188SAPI  H11Y21694   2.038   6.228   7.935  0.6267 -0.0683  1.7480
  188SAPI  C31221695   2.203   6.116   8.021  0.2985  0.2913  0.2456
  188SAPI  H12X21696   2.239   6.217   8.052 -0.7696  1.0200 -0.8139
  188SAPI  H12Y21697   2.285   6.051   7.984  0.1376 -0.3027  0.9187
  188SAPI  C31321698   2.124   6.037   8.129  0.0626  0.2498 -0.4151
  188SAPI  H13X21699   2.086   5.940   8.091  2.8584  0.1468 -3.2692
  188SAPI  H13Y21700   2.038   6.097   8.167 -0.5955 -2.2831  2.5810
  188SAPI  C31421701   2.221   6.025   8.250  0.8270  0.1142  0.4989
  188SAPI  H14X21702   2.271   6.120   8.278 -1.1539  0.8103  1.8478
  188SAPI  H14Y21703   2.307   5.961   8.219 -0.0605 -1.3003  0.8426
  188SAPI  C31521704   2.151   5.982   8.382 -0.3156  0.1960 -0.4247
  188SAPI  H15X21705   2.225   5.976   8.465  1.0873 -0.8574 -1.7027
  188SAPI  H15Y21706   2.125   5.875   8.370 -0.0181 -0.1382  1.4874
  188SAPI  C31621707   2.024   6.062   8.421 -0.0070 -0.4309  0.0824
  188SAPI  H16X21708   1.938   6.027   8.360 -0.5610 -0.8848  1.0975
  188SAPI  H16Y21709   2.055   6.166   8.397  0.4353 -0.4123  0.7203
  188SAPI  C31721710   1.996   6.046   8.569  0.2927  0.5216 -0.2837
  188SAPI  H17X21711   1.899   6.095   8.589 -2.0471 -3.2458 -1.4852
  188SAPI  H17Y21712   2.081   6.094   8.623  0.8538 -1.4070  0.6285
  188SAPI  C31821713   1.973   5.901   8.616  0.1196 -0.2725  0.9909
  188SAPI  H18X21714   2.065   5.839   8.609  0.2887 -0.2145  2.4064
  188SAPI  H18Y21715   1.891   5.868   8.548  2.0984 -1.1465 -1.0983
  188SAPI  H18Z21716   1.936   5.890   8.720 -0.9446  2.9716  1.0956
  189POPC     N21717   3.846   6.610  11.081 -0.2744  0.3073 -0.2483
  189POPC   C1221718   3.808   6.614  10.936  0.8001  1.0489  0.1221
  189POPC  H12A21719   3.792   6.512  10.904  0.2790  1.4883 -1.1040
  189POPC  H12B21720   3.887   6.648  10.871 -0.0827  0.4580 -1.3084
  189POPC   C1321721   3.885   6.751  11.124  0.2402  0.5273 -0.7610
  189POPC  H13A21722   3.811   6.824  11.093 -1.0101  0.1934  1.2358
  189POPC  H13B21723   3.872   6.741  11.231 -0.4832  1.7529 -0.7141
  189POPC  H13C21724   3.989   6.768  11.102  0.8052 -1.8069 -0.1082
  189POPC   C1421725   3.721   6.581  11.163  0.1098 -0.0491 -0.4468
  189POPC  H14A21726   3.651   6.661  11.141 -0.2307 -0.3240 -0.3841
  189POPC  H14B21727   3.673   6.486  11.145 -0.5954  0.2733 -0.3210
  189POPC  H14C21728   3.736   6.594  11.269 -2.1294 -1.0329  0.0493
  189POPC   C1521729   3.951   6.514  11.115 -0.5629  0.3534  0.0790
  189POPC  H15A21730   3.928   6.419  11.068  0.9532 -1.3840  2.5859
  189POPC  H15B21731   3.957   6.501  11.222 -0.6886  0.1602  0.0648
  189POPC  H15C21732   4.052   6.538  11.083  0.1487  0.4793  2.2357
  189POPC   C1121733   3.680   6.695  10.886 -0.6899 -1.0093 -0.3665
  189POPC  H11A21734   3.679   6.691  10.775 -0.8536 -0.1527 -0.4000
  189POPC  H11B21735   3.695   6.800  10.920  1.1565 -1.1022 -0.7614
  189POPC     P21736   3.479   6.528  10.861  0.0307 -0.5391 -0.3277
  189POPC   O1321737   3.351   6.506  10.939  0.0425 -0.1447 -0.1015
  189POPC   O1421738   3.575   6.414  10.860  0.2936  0.0001  0.0188
  189POPC   O1221739   3.557   6.645  10.931 -0.7297 -0.3242  0.0663
  189POPC   O1121740   3.443   6.579  10.721 -0.3427  0.4805 -0.0202
  189POPC    C121741   3.486   6.505  10.597  0.8198 -0.2193 -0.1932
  189POPC    HA21742   3.586   6.460  10.614 -0.0894 -2.0009  0.6778
  189POPC    HB21743   3.492   6.586  10.521  0.5231  1.8685  1.8771
  189POPC    C221744   3.378   6.399  10.558  0.2300  0.4738 -0.2414
  189POPC    HS21745   3.391   6.321  10.636  1.6011 -0.7974 -1.6624
  189POPC   O2121746   3.411   6.350  10.426 -0.7300 -0.3495  0.2900
  189POPC   C2121747   3.389   6.226  10.412 -0.1378  0.1835 -0.0838
  189POPC   O2221748   3.342   6.153  10.497  0.3615 -0.0151  0.7755
  189POPC   C2221749   3.444   6.179  10.284  0.5866 -0.5140  0.9209
  189POPC   H2R21750   3.460   6.069  10.293 -0.0198 -0.6304  0.5907
  189POPC   H2S21751   3.537   6.235  10.259 -0.6788  0.9719 -0.6792
  189POPC    C321752   3.228   6.459  10.562  0.0310  0.4405  0.1315
  189POPC    HX21753   3.196   6.494  10.662 -0.1520 -1.8139  0.9174
  189POPC    HY21754   3.154   6.384  10.528  0.6595 -0.0261 -0.2122
  189POPC   O3121755   3.243   6.574  10.469  0.3517  0.4543 -0.5513
  189POPC   C3121756   3.201   6.559  10.346  0.2439 -0.3808 -0.5251
  189POPC   O3221757   3.142   6.459  10.303 -0.8300  0.2278  0.5822
  189POPC   C3221758   3.228   6.685  10.269  0.0792 -0.0697  1.3163
  189POPC   H2X21759   3.321   6.735  10.304  1.0412 -1.3970  0.7399
  189POPC   H2Y21760   3.139   6.745  10.294  0.5694  0.6123  1.4557
  189POPC   C2321761   3.359   6.216  10.157  0.3186 -0.0942 -0.8142
  189POPC   H3R21762   3.322   6.321  10.163 -1.7908 -0.7996 -0.5437
  189POPC   H3S21763   3.263   6.162  10.165 -0.3186  1.1872  0.7909
  189POPC   C2421764   3.420   6.181  10.026  0.2255  0.4462  0.1027
  189POPC   H4R21765   3.426   6.070  10.018  1.6093  0.4727  0.4749
  189POPC   H4S21766   3.518   6.233  10.027  0.4549  0.0821 -1.1926
  189POPC   C2521767   3.328   6.233   9.915  0.1414  0.2558 -0.3182
  189POPC   H5R21768   3.333   6.344   9.929 -0.3693  0.6523 -2.7813
  189POPC   H5S21769   3.225   6.196   9.932  0.4261  0.2481  1.5608
  189POPC   C2621770   3.373   6.207   9.769  0.4309 -0.1247 -0.7290
  189POPC   H6R21771   3.375   6.098   9.745 -0.0748 -0.2542 -0.2067
  189POPC   H6S21772   3.473   6.252   9.752  1.0197 -1.1315 -0.0621
  189POPC   C2721773   3.278   6.282   9.666  0.0126  0.2820  0.5208
  189POPC   H7R21774   3.277   6.391   9.689 -0.8578  0.5674 -0.8098
  189POPC   H7S21775   3.182   6.233   9.690  0.5253 -0.5900  0.8689
  189POPC   C2821776   3.322   6.269   9.516  0.2228  0.8167  0.0401
  189POPC   H8R21777   3.324   6.163   9.482 -2.3392  0.1968  1.6038
  189POPC   H8S21778   3.426   6.308   9.503 -0.3824  2.0513 -1.3666
  189POPC   C2921779   3.230   6.341   9.420 -0.2522  0.0590 -0.5499
  189POPC   H9121780   3.185   6.431   9.466  2.2724  0.0428  2.3017
  189POPC  C21021781   3.219   6.323   9.288 -0.2271  1.0350  0.1703
  189POPC  H10121782   3.146   6.384   9.233  1.1075  1.0071 -1.7044
  189POPC  C21121783   3.294   6.227   9.204 -0.5151  0.2943  0.3193
  189POPC  H11R21784   3.268   6.123   9.234 -0.4959 -0.2608 -1.4661
  189POPC  H11S21785   3.403   6.232   9.226 -0.1888  0.7369 -1.2390
  189POPC  C21221786   3.279   6.251   9.059  0.1999  0.4612  0.5000
  189POPC  H12R21787   3.316   6.354   9.038  2.2202 -0.3976 -0.3675
  189POPC  H12S21788   3.172   6.233   9.035 -0.6020  0.6770  3.5582
  189POPC  C21321789   3.365   6.160   8.969 -0.6536 -0.7503  0.0605
  189POPC  H13R21790   3.348   6.055   8.999  1.6119 -0.5855  2.2768
  189POPC  H13S21791   3.469   6.176   9.006 -0.7222 -1.4947  0.6107
  189POPC  C21421792   3.356   6.185   8.814  0.5494 -0.2763  0.2088
  189POPC  H14R21793   3.251   6.196   8.780  0.6465  2.3228  0.5801
  189POPC  H14S21794   3.411   6.101   8.766  2.1980  1.2027 -0.5672
  189POPC  C21521795   3.420   6.317   8.752  0.0626 -0.0107  0.1120
  189POPC  H15R21796   3.528   6.311   8.780  0.5414 -0.4197 -1.6391
  189POPC  H15S21797   3.369   6.404   8.797 -0.9123 -0.8596  0.6948
  189POPC  C21621798   3.421   6.306   8.604 -0.1307 -0.1093  0.1523
  189POPC  H16R21799   3.320   6.282   8.565  1.4312 -2.1191 -3.0461
  189POPC  H16S21800   3.489   6.219   8.588  3.3498  1.7394  3.3056
  189POPC  C21721801   3.467   6.431   8.527 -0.8099 -0.3490 -0.4565
  189POPC  H17R21802   3.575   6.441   8.551 -0.8825 -1.0322  0.1901
  189POPC  H17S21803   3.408   6.515   8.569 -2.0637 -0.2054 -2.3839
  189POPC  C21821804   3.456   6.437   8.373  0.4470  0.0365 -0.5327
  189POPC  H18R21805   3.510   6.521   8.325  1.9727 -1.7179 -2.0521
  189POPC  H18S21806   3.354   6.423   8.331  1.6082 -2.2844 -2.8316
  189POPC  H18T21807   3.509   6.346   8.337  2.0230  0.4071  0.7102
  189POPC   C3321808   3.252   6.656  10.122 -0.5417 -1.1549 -0.9929
  189POPC   H3X21809   3.152   6.617  10.095 -1.6727 -1.1194  2.6013
  189POPC   H3Y21810   3.328   6.578  10.101  2.3284  1.1354  0.0783
  189POPC   C3421811   3.285   6.786  10.049  0.2961  0.1889 -0.0741
  189POPC   H4X21812   3.373   6.841  10.088  0.4210  1.0880 -1.5557
  189POPC   H4Y21813   3.194   6.849  10.061 -0.3911 -0.7232 -0.3246
  189POPC   C3521814   3.292   6.770   9.899  0.1452  0.6138 -0.9662
  189POPC   H5X21815   3.390   6.720   9.886  0.5087  0.7490  0.9552
  189POPC   H5Y21816   3.298   6.863   9.839  2.4925 -0.2372 -2.1643
  189POPC   C3621817   3.190   6.678   9.827  0.0381  0.4694 -0.9290
  189POPC   H6X21818   3.088   6.705   9.864  0.2640  1.6390 -1.1111
  189POPC   H6Y21819   3.200   6.571   9.853  0.4910  1.1269  2.0286
  189POPC   C3721820   3.191   6.704   9.679  0.7313  0.2421  0.4393
  189POPC   H7X21821   3.155   6.808   9.663 -0.0929  0.0273  0.8330
  189POPC   H7Y21822   3.119   6.638   9.626 -0.3280  1.2878  0.5222
  189POPC   C3821823   3.318   6.690   9.604 -0.3399  0.0734  0.1714
  189POPC   H8X21824   3.351   6.585   9.611 -1.0729 -0.5053 -3.1139
  189POPC   H8Y21825   3.395   6.750   9.658 -0.8836  2.2754 -1.3204
  189POPC   C3921826   3.313   6.723   9.457 -0.0128 -0.3674 -0.1263
  189POPC   H9X21827   3.282   6.827   9.436 -2.6650 -1.3636 -1.5518
  189POPC   H9Y21828   3.236   6.655   9.414 -0.4330  0.9656 -1.5553
  189POPC  C31021829   3.449   6.698   9.387 -0.3213 -0.3931 -0.0014
  189POPC  H10X21830   3.492   6.604   9.426  0.3547  0.2212  0.7684
  189POPC  H10Y21831   3.524   6.770   9.424 -0.0691 -1.0353  0.7591
  189POPC  C31121832   3.453   6.691   9.232 -0.3839 -0.5677  0.3052
  189POPC  H11X21833   3.391   6.604   9.205  1.3178 -1.7240 -0.0591
  189POPC  H11Y21834   3.556   6.684   9.192 -1.2196  1.3232 -2.4360
  189POPC  C31221835   3.387   6.815   9.166 -0.4918 -0.3529 -0.1786
  189POPC  H12X21836   3.425   6.909   9.212  1.5693 -1.6842  0.9936
  189POPC  H12Y21837   3.277   6.806   9.179 -0.2776  0.3152  2.8214
  189POPC  C31321838   3.436   6.828   9.024  0.5800 -0.4477  0.1098
  189POPC  H13X21839   3.460   6.725   8.990  0.5433 -0.6824  0.7795
  189POPC  H13Y21840   3.530   6.886   9.008  0.7664 -1.3719 -2.6315
  189POPC  C31421841   3.322   6.881   8.926 -0.1117 -0.1681  0.2067
  189POPC  H14X21842   3.223   6.832   8.938 -0.6949  1.1652  1.1600
  189POPC  H14Y21843   3.355   6.857   8.823 -1.0600 -1.3350  0.1420
  189POPC  C31521844   3.293   7.034   8.962 -0.5583 -0.5584 -0.3999
  189POPC  H15X21845   3.394   7.080   8.958  0.5719 -2.8596  0.2054
  189POPC  H15Y21846   3.263   7.041   9.069 -0.1333  3.3108 -0.4005
  189POPC  C31621847   3.198   7.101   8.869  0.9224 -0.1055 -0.1394
  189POPC  H16X21848   3.105   7.042   8.854  0.1177  1.4381 -1.5766
  189POPC  H16Y21849   3.239   7.119   8.767  0.9323 -1.6192 -0.4285
  189POPC  H16Z21850   3.159   7.196   8.911 -1.4282 -0.0252 -2.2673
  190POPC     N21851   1.856   4.827  11.069 -0.0656 -0.6739 -0.1009
  190POPC   C1221852   1.864   4.950  10.976  0.2313  0.9720 -0.3593
  190POPC  H12A21853   1.959   4.947  10.925  0.6438 -0.4681  0.4437
  190POPC  H12B21854   1.847   5.039  11.035 -0.5426  1.4807 -1.3116
  190POPC   C1321855   1.888   4.706  10.993 -0.1273 -0.1327 -0.7011
  190POPC  H13A21856   1.814   4.684  10.917 -0.2873  1.2784 -0.9879
  190POPC  H13B21857   1.983   4.710  10.941  0.9931 -0.4933  1.2139
  190POPC  H13C21858   1.897   4.622  11.059  1.4735  0.7991  0.3287
  190POPC   C1421859   1.952   4.841  11.179 -0.5454 -0.5360 -1.1170
  190POPC  H14A21860   1.948   4.750  11.237 -1.0007 -0.7423 -1.4715
  190POPC  H14B21861   2.053   4.860  11.145 -0.9579  1.6898 -1.2811
  190POPC  H14C21862   1.933   4.928  11.242  0.2359 -1.9641  1.2242
  190POPC   C1521863   1.726   4.810  11.135  0.5495  0.3355 -0.0374
  190POPC  H15A21864   1.709   4.711  11.175  1.1897  0.1044 -0.3270
  190POPC  H15B21865   1.646   4.831  11.065  1.5627  1.5892 -0.8681
  190POPC  H15C21866   1.711   4.885  11.210 -1.0499  0.6444 -0.6072
  190POPC   C1121867   1.747   4.948  10.870 -0.1120 -0.3448 -0.0994
  190POPC  H11A21868   1.753   4.857  10.807 -2.5608 -0.8106  0.2660
  190POPC  H11B21869   1.770   5.025  10.793  0.8807  3.7480  3.8455
  190POPC     P21870   1.576   5.110  10.979  0.3497  0.2075 -0.1863
  190POPC   O1321871   1.633   5.143  11.106  0.4626 -0.4936  0.1879
  190POPC   O1421872   1.431   5.099  10.983  0.1887  0.2864  0.4219
  190POPC   O1221873   1.624   4.968  10.934  0.7897  0.2719  0.1594
  190POPC   O1121874   1.640   5.202  10.863 -0.0545 -0.1566  0.1698
  190POPC    C121875   1.552   5.262  10.759 -0.2230  0.2741  0.2650
  190POPC    HA21876   1.605   5.354  10.726  4.4833 -1.7167  1.4479
  190POPC    HB21877   1.450   5.288  10.794 -1.1375 -0.2876 -1.8306
  190POPC    C221878   1.525   5.176  10.632  0.0679 -0.5956  0.5918
  190POPC    HS21879   1.510   5.074  10.672  1.1391 -0.5047  1.2831
  190POPC   O2121880   1.637   5.191  10.546 -0.2892  0.1856 -0.6148
  190POPC   C2121881   1.657   5.080  10.468 -0.2843 -0.0022 -0.3969
  190POPC   O2221882   1.586   4.980  10.476 -0.1402 -0.0338 -0.5009
  190POPC   C2221883   1.761   5.100  10.353 -0.2232  0.0873 -0.2704
  190POPC   H2R21884   1.846   5.031  10.372 -0.8876 -0.1263  2.1829
  190POPC   H2S21885   1.795   5.205  10.338 -1.5916  0.3403 -1.8740
  190POPC    C321886   1.396   5.229  10.559 -0.1971  0.3739 -0.0866
  190POPC    HX21887   1.422   5.327  10.514  1.8684 -1.0691 -2.2774
  190POPC    HY21888   1.331   5.247  10.648  2.1651  2.1899  1.4077
  190POPC   O3121889   1.331   5.141  10.464  0.0144  0.0865 -0.3064
  190POPC   C3121890   1.273   5.031  10.525  0.6215 -0.0792 -0.3723
  190POPC   O3221891   1.248   5.023  10.646  0.0288  0.3478  0.5071
  190POPC   C3221892   1.235   4.924  10.426  0.5660  0.0439  0.0612
  190POPC   H2X21893   1.226   4.973  10.327 -0.4072  3.0392  1.4969
  190POPC   H2Y21894   1.132   4.896  10.458  0.5339  0.9924  0.8464
  190POPC   C2321895   1.710   5.049  10.218  0.2018  0.2843 -0.9470
  190POPC   H3R21896   1.671   4.945  10.216  2.3682 -0.5821 -2.6192
  190POPC   H3S21897   1.784   5.049  10.136  0.1398  1.4815 -1.0115
  190POPC   C2421898   1.586   5.135  10.181  0.0223 -0.2973 -0.4595
  190POPC   H4R21899   1.623   5.240  10.185 -0.7988 -0.0263  0.9877
  190POPC   H4S21900   1.499   5.127  10.250  0.1941  2.7089  0.2738
  190POPC   C2521901   1.537   5.094  10.039  0.0181  0.2400 -0.2911
  190POPC   H5R21902   1.444   5.156  10.032  0.2975  0.7008  0.0416
  190POPC   H5S21903   1.500   4.989  10.038  0.4866  0.0663  0.2849
  190POPC   C2621904   1.629   5.117   9.921 -0.3262  0.9271  0.4353
  190POPC   H6R21905   1.697   5.030   9.910  1.3578  1.8779  2.6158
  190POPC   H6S21906   1.693   5.206   9.940 -0.0100  1.0018 -0.8801
  190POPC   C2721907   1.566   5.123   9.775  0.3319  0.1030 -0.7272
  190POPC   H7R21908   1.525   5.223   9.748  0.1906 -0.1215 -1.3423
  190POPC   H7S21909   1.469   5.070   9.789  0.9325 -0.4017  2.2078
  190POPC   C2821910   1.649   5.049   9.676  0.4227 -0.0133 -0.6505
  190POPC   H8R21911   1.663   4.943   9.706 -0.9315 -0.7641 -2.4675
  190POPC   H8S21912   1.749   5.096   9.662  0.0906  0.7747 -0.4441
  190POPC   C2921913   1.574   5.046   9.543 -0.2818  0.2234 -0.1582
  190POPC   H9121914   1.525   4.950   9.520  0.5950 -0.1172 -0.6993
  190POPC  C21021915   1.556   5.142   9.450  0.6451  0.0553  0.2473
  190POPC  H10121916   1.491   5.119   9.364  1.3299  1.6020 -0.7275
  190POPC  C21121917   1.596   5.284   9.459  0.4291 -0.0456 -0.0590
  190POPC  H11R21918   1.650   5.307   9.553 -0.3068  0.3831  0.2764
  190POPC  H11S21919   1.505   5.346   9.475  1.3639  1.2044  0.5831
  190POPC  C21221920   1.678   5.334   9.339  0.0802 -0.1168 -0.2706
  190POPC  H12R21921   1.778   5.285   9.344 -0.6526 -1.5103  2.5762
  190POPC  H12S21922   1.692   5.444   9.341  0.1459 -0.1201  1.9759
  190POPC  C21321923   1.607   5.309   9.201 -0.0867  0.6620  0.0979
  190POPC  H13R21924   1.585   5.200   9.193  0.5337  0.5394 -0.0178
  190POPC  H13S21925   1.682   5.346   9.127 -2.1760  2.6065 -1.1811
  190POPC  C21421926   1.494   5.410   9.183 -0.0894  0.0487  0.0666
  190POPC  H14R21927   1.542   5.510   9.174  1.6220 -0.8282 -1.1483
  190POPC  H14S21928   1.414   5.412   9.261 -0.5594  4.1342 -0.2841
  190POPC  C21521929   1.417   5.398   9.043 -0.0680  0.8231 -0.2749
  190POPC  H15R21930   1.378   5.295   9.025 -0.5215  0.8849  0.3349
  190POPC  H15S21931   1.497   5.404   8.966 -2.2067  0.4972 -2.6311
  190POPC  C21621932   1.304   5.498   9.027 -0.0548 -0.1348 -0.2229
  190POPC  H16R21933   1.349   5.599   9.036  0.4103 -0.4298  0.9894
  190POPC  H16S21934   1.225   5.476   9.102 -0.3029  3.1350  0.5831
  190POPC  C21721935   1.228   5.494   8.889 -0.0719 -0.2865 -0.3307
  190POPC  H17R21936   1.180   5.395   8.885  3.9669 -2.4018 -2.3139
  190POPC  H17S21937   1.306   5.513   8.812 -0.8201  0.0075 -1.0309
  190POPC  C21821938   1.127   5.605   8.885  0.5678  0.3058  0.5107
  190POPC  H18R21939   1.052   5.588   8.965  0.6500  0.5632  0.6439
  190POPC  H18S21940   1.064   5.612   8.793 -0.2801  3.4921  1.1933
  190POPC  H18T21941   1.169   5.703   8.915 -0.8202  0.7423  1.1207
  190POPC   C3321942   1.326   4.790  10.426 -0.4745 -1.1204  0.4277
  190POPC   H3X21943   1.354   4.757  10.528  0.8077  1.6450  1.0593
  190POPC   H3Y21944   1.421   4.819  10.376  0.2794  0.2695  2.5312
  190POPC   C3421945   1.269   4.668  10.365  0.9939  0.0487  0.1928
  190POPC   H4X21946   1.162   4.658  10.394  1.1181  2.3333  1.6866
  190POPC   H4Y21947   1.317   4.577  10.407  0.0220 -0.7955 -0.4536
  190POPC   C3521948   1.296   4.655  10.215  0.0436  0.0865  0.5526
  190POPC   H5X21949   1.309   4.546  10.197  0.4881 -0.2231  2.4964
  190POPC   H5Y21950   1.396   4.695  10.188  0.2031 -0.6515  0.0132
  190POPC   C3621951   1.197   4.717  10.126 -0.1485  0.6504 -0.5389
  190POPC   H6X21952   1.236   4.819  10.103 -0.1854  0.2651 -2.4145
  190POPC   H6Y21953   1.106   4.742  10.185  0.0002 -0.4586  0.1964
  190POPC   C3721954   1.177   4.639  10.000 -0.6775 -0.6923 -0.5000
  190POPC   H7X21955   1.137   4.540  10.028  0.3751 -1.3354 -1.1783
  190POPC   H7Y21956   1.272   4.614   9.948  0.7369 -0.4666  1.8467
  190POPC   C3821957   1.112   4.726   9.896  0.5841  0.0475  1.2014
  190POPC   H8X21958   1.146   4.831   9.899  0.6369  0.0445  0.8174
  190POPC   H8Y21959   1.001   4.722   9.896  0.4910 -2.1430 -2.3791
  190POPC   C3921960   1.143   4.677   9.747  0.3576 -0.7375 -0.1309
  190POPC   H9X21961   1.122   4.571   9.722 -2.3035 -0.1712 -0.5274
  190POPC   H9Y21962   1.249   4.706   9.727 -0.2590 -1.0224 -5.0153
  190POPC  C31021963   1.051   4.753   9.646 -0.4908 -0.3100 -0.4078
  190POPC  H10X21964   1.028   4.850   9.695  1.4159 -0.5082  0.9784
  190POPC  H10Y21965   0.954   4.698   9.637 -0.2139 -1.4341  2.3224
  190POPC  C31121966   1.121   4.784   9.513 -0.1370 -0.3739 -1.5473
  190POPC  H11X21967   1.210   4.850   9.526 -0.0665 -0.5319 -1.1989
  190POPC  H11Y21968   1.037   4.823   9.452 -0.0911  0.3279 -1.1715
  190POPC  C31221969   1.169   4.659   9.438 -0.2907 -0.9574 -0.2068
  190POPC  H12X21970   1.085   4.594   9.407 -0.6917 -1.5776  1.9896
  190POPC  H12Y21971   1.240   4.599   9.499  1.3708  2.1791  1.2113
  190POPC  C31321972   1.251   4.709   9.312  0.4616  0.0599  0.5056
  190POPC  H13X21973   1.299   4.614   9.283  3.2781  1.3421  0.6336
  190POPC  H13Y21974   1.334   4.779   9.337 -1.0339  2.5273 -0.9344
  190POPC  C31421975   1.175   4.783   9.195  0.2432 -0.1410 -0.1812
  190POPC  H14X21976   1.114   4.866   9.236 -1.1854 -2.7368  3.4857
  190POPC  H14Y21977   1.101   4.710   9.154 -1.1167  0.6111  0.8562
  190POPC  C31521978   1.265   4.836   9.079 -0.1168  0.1542 -0.1714
  190POPC  H15X21979   1.191   4.885   9.011 -0.5535  0.9606  0.8513
  190POPC  H15Y21980   1.326   4.766   9.018 -2.1342  0.5662 -2.8963
  190POPC  C31621981   1.361   4.936   9.135 -0.3950 -0.1726 -0.1573
  190POPC  H16X21982   1.381   5.012   9.057 -1.2439 -0.7856 -1.0049
  190POPC  H16Y21983   1.452   4.886   9.176 -0.5254  1.5248  2.4446
  190POPC  H16Z21984   1.329   4.995   9.223  2.9669 -1.1913  1.9425
  191POPC     N21985   1.488   5.463   6.207 -0.7634  0.6413  0.4529
  191POPC   C1221986   1.481   5.341   6.296  0.4712  0.0948  0.0310
  191POPC  H12A21987   1.572   5.331   6.353 -0.3544 -0.3974  1.2940
  191POPC  H12B21988   1.483   5.258   6.227 -3.2172 -0.1455  0.0543
  191POPC   C1321989   1.464   5.580   6.287 -0.0578 -0.2018 -1.1398
  191POPC  H13A21990   1.499   5.672   6.243 -4.6777  2.2291 -0.3361
  191POPC  H13B21991   1.360   5.597   6.313  0.0853 -0.3085 -0.4832
  191POPC  H13C21992   1.509   5.559   6.383 -1.1220  1.0140 -0.3539
  191POPC   C1421993   1.618   5.467   6.139 -0.0549  0.1392  0.6170
  191POPC  H14A21994   1.698   5.416   6.189 -0.2501 -1.9144 -1.0290
  191POPC  H14B21995   1.607   5.423   6.041 -0.9932 -1.5315  1.4374
  191POPC  H14C21996   1.654   5.568   6.127  0.6332 -0.2644 -1.0377
  191POPC   C1521997   1.371   5.451   6.108 -0.4039 -0.0403 -0.9422
  191POPC  H15A21998   1.277   5.461   6.161  0.0273 -1.8770  0.2437
  191POPC  H15B21999   1.367   5.354   6.061 -1.7312 -0.5309  0.1299
  191POPC  H15C22000   1.371   5.529   6.032  0.5716  1.5817  0.6468
  191POPC   C1122001   1.355   5.329   6.392 -0.2572 -0.0798  0.3469
  191POPC  H11A22002   1.347   5.430   6.438  0.5025  1.1263 -1.9623
  191POPC  H11B22003   1.371   5.255   6.473  0.0720  0.4465  0.7677
  191POPC     P22004   1.189   5.166   6.259 -0.1284 -0.0883  0.0857
  191POPC   O1322005   1.314   5.087   6.241  0.0917 -0.9115  0.3693
  191POPC   O1422006   1.103   5.184   6.136  0.2012 -0.3183  0.1732
  191POPC   O1222007   1.228   5.311   6.321 -0.1602 -0.2032 -0.2433
  191POPC   O1122008   1.100   5.104   6.373 -0.2282  0.0220 -0.0577
  191POPC    C122009   0.978   5.164   6.426 -0.6018 -0.0977  0.3385
  191POPC    HA22010   0.902   5.088   6.455  1.3649 -1.0608  3.4207
  191POPC    HB22011   0.926   5.238   6.362 -0.2940  1.7892  2.1757
  191POPC    C222012   1.010   5.249   6.553  0.5104 -0.1013 -0.2401
  191POPC    HS22013   1.070   5.335   6.517 -0.4547 -0.0643 -1.8477
  191POPC   O2122014   1.077   5.169   6.651 -0.3370  0.4208 -0.1244
  191POPC   C2122015   1.164   5.239   6.724  0.0089  0.0287  0.3127
  191POPC   O2222016   1.194   5.358   6.705  0.1675 -0.0468  0.4009
  191POPC   C2222017   1.203   5.164   6.856  0.1853  0.2307  0.2945
  191POPC   H2R22018   1.274   5.081   6.835 -0.6185 -0.1866 -0.8577
  191POPC   H2S22019   1.107   5.123   6.893 -0.1069  1.0648  0.4878
  191POPC    C322020   0.874   5.300   6.599  0.4001  0.1705 -0.3159
  191POPC    HX22021   0.828   5.202   6.624 -0.9978  0.5583 -1.2424
  191POPC    HY22022   0.813   5.339   6.514  0.9832 -3.2603 -2.5303
  191POPC   O3122023   0.874   5.389   6.714  0.3430  0.3697 -0.0919
  191POPC   C3122024   0.877   5.513   6.684  0.0749 -0.3994  0.2303
  191POPC   O3222025   0.902   5.558   6.575  0.5203 -0.1071  0.7000
  191POPC   C3222026   0.854   5.604   6.806  0.3130  0.4078  0.0689
  191POPC   H2X22027   0.761   5.660   6.787  0.0208 -0.3349 -0.7354
  191POPC   H2Y22028   0.942   5.670   6.820  1.0587 -0.4005 -0.6608
  191POPC   C2322029   1.241   5.260   6.973 -0.4008 -0.5892 -0.5634
  191POPC   H3R22030   1.161   5.337   6.977  0.9407  0.8512 -0.2349
  191POPC   H3S22031   1.334   5.310   6.936 -0.2439 -1.2125 -1.0363
  191POPC   C2422032   1.266   5.181   7.106 -0.5452 -0.6116  0.1807
  191POPC   H4R22033   1.210   5.086   7.124 -1.0049 -0.6651 -1.4011
  191POPC   H4S22034   1.238   5.248   7.189 -0.5646 -1.3138  0.7478
  191POPC   C2522035   1.419   5.163   7.124 -0.0786 -0.0935  0.1607
  191POPC   H5R22036   1.466   5.263   7.117 -1.9360  0.7535 -0.7473
  191POPC   H5S22037   1.451   5.100   7.038 -0.9801 -0.9531  0.4352
  191POPC   C2622038   1.467   5.094   7.254 -0.2900 -0.2468 -0.4139
  191POPC   H6R22039   1.578   5.085   7.248 -0.4266 -1.6203 -1.2723
  191POPC   H6S22040   1.429   4.990   7.247  1.5150 -0.8525 -2.4120
  191POPC   C2722041   1.422   5.158   7.385 -0.5724  0.2526 -0.6229
  191POPC   H7R22042   1.314   5.136   7.399 -0.5577  0.5652  0.0247
  191POPC   H7S22043   1.440   5.268   7.384 -0.9677  0.3129 -1.2371
  191POPC   C2822044   1.488   5.103   7.507 -0.0702 -0.2017  0.6289
  191POPC   H8R22045   1.448   5.166   7.590 -2.9747  2.4210 -2.4625
  191POPC   H8S22046   1.597   5.119   7.497  0.2385 -1.6453  1.4312
  191POPC   C2922047   1.464   4.953   7.538 -0.7149  0.0011  0.5161
  191POPC   H9122048   1.462   4.888   7.449  1.7592 -1.3337  1.3280
  191POPC  C21022049   1.443   4.901   7.662  0.1584 -0.1937 -0.3084
  191POPC  H10122050   1.444   4.792   7.672  0.9719 -0.0727  1.0106
  191POPC  C21122051   1.445   4.979   7.790  0.3482 -0.6498  0.2972
  191POPC  H11R22052   1.498   5.075   7.775  2.2889 -1.9098 -1.4428
  191POPC  H11S22053   1.518   4.928   7.856  2.0727 -0.1817 -1.1790
  191POPC  C21222054   1.318   5.011   7.860  0.6207 -0.1199  0.6583
  191POPC  H12R22055   1.277   4.914   7.895  0.4392 -0.2834  0.0005
  191POPC  H12S22056   1.250   5.055   7.784  3.0962  1.6194 -0.6901
  191POPC  C21322057   1.330   5.116   7.974 -0.5931  0.5845  0.0470
  191POPC  H13R22058   1.225   5.140   8.000 -0.5227  1.2342 -0.2408
  191POPC  H13S22059   1.364   5.211   7.927 -1.1130 -0.3068 -2.2672
  191POPC  C21422060   1.402   5.066   8.101 -0.3542 -0.2057 -0.6525
  191POPC  H14R22061   1.506   5.043   8.071 -0.7180 -0.1803 -1.9858
  191POPC  H14S22062   1.351   4.976   8.143  0.9516 -0.3965  0.5873
  191POPC  C21522063   1.403   5.177   8.212 -0.0862  0.3941  0.0801
  191POPC  H15R22064   1.455   5.271   8.183 -2.4065  1.5654 -0.5017
  191POPC  H15S22065   1.465   5.127   8.290 -1.8013 -2.8440 -0.4628
  191POPC  C21622066   1.273   5.219   8.271  0.0038 -0.3658  0.6080
  191POPC  H16R22067   1.206   5.131   8.285 -1.2897  0.8602  2.6305
  191POPC  H16S22068   1.219   5.286   8.201 -0.3688  0.7863  1.9421
  191POPC  C21722069   1.286   5.297   8.400 -0.3449  0.4290  0.3780
  191POPC  H17R22070   1.347   5.251   8.480 -0.9935  1.7812  1.7014
  191POPC  H17S22071   1.184   5.302   8.443 -0.5963 -0.8154 -0.0295
  191POPC  C21822072   1.334   5.441   8.381  0.6147  0.0806  0.4039
  191POPC  H18R22073   1.343   5.512   8.466  0.7674  0.7699 -0.1812
  191POPC  H18S22074   1.271   5.498   8.311  1.1620 -0.2474 -0.3689
  191POPC  H18T22075   1.433   5.435   8.331  0.2042 -0.5991 -0.3545
  191POPC   C3322076   0.844   5.517   6.940 -0.2670  0.0034 -0.3468
  191POPC   H3X22077   0.938   5.461   6.963  0.0758  1.3095  1.6729
  191POPC   H3Y22078   0.769   5.436   6.931 -1.3275  0.9382 -0.0644
  191POPC   C3422079   0.808   5.613   7.058 -0.9445  0.0074  0.5168
  191POPC   H4X22080   0.710   5.659   7.033 -1.1448 -0.7672 -0.1574
  191POPC   H4Y22081   0.881   5.695   7.074 -0.1881 -0.7433  1.0363
  191POPC   C3522082   0.802   5.539   7.190  0.2852 -0.1781 -0.2581
  191POPC   H5X22083   0.895   5.480   7.205  1.1748  1.2665  0.0525
  191POPC   H5Y22084   0.715   5.470   7.197 -1.2120  1.7104  0.4185
  191POPC   C3622085   0.783   5.627   7.310  0.0919  0.1478  0.0426
  191POPC   H6X22086   0.692   5.689   7.293 -1.2855 -1.2529  1.8546
  191POPC   H6Y22087   0.869   5.696   7.323 -0.1138  0.1461  1.6762
  191POPC   C3722088   0.770   5.542   7.442 -0.1491 -0.8002 -0.1625
  191POPC   H7X22089   0.864   5.487   7.462 -0.8450 -1.8936  0.2139
  191POPC   H7Y22090   0.693   5.463   7.427  2.4086 -3.4257 -0.3473
  191POPC   C3822091   0.756   5.646   7.561 -0.2418  0.0338  0.4696
  191POPC   H8X22092   0.672   5.714   7.534 -1.1107 -0.5932  1.5282
  191POPC   H8Y22093   0.850   5.704   7.570 -0.1458  0.1699 -1.1301
  191POPC   C3922094   0.714   5.589   7.700  0.3559  0.3173  0.2601
  191POPC   H9X22095   0.783   5.503   7.716  2.4778  1.7838 -0.5128
  191POPC   H9Y22096   0.614   5.548   7.675 -0.5128  1.0231  2.3674
  191POPC  C31022097   0.719   5.685   7.813  0.0600 -0.4406 -0.1976
  191POPC  H10X22098   0.613   5.717   7.824 -0.2953 -1.4521 -0.6147
  191POPC  H10Y22099   0.768   5.783   7.793 -0.2583 -0.7900 -2.9490
  191POPC  C31122100   0.774   5.635   7.959 -0.4783  0.3060  0.4939
  191POPC  H11X22101   0.879   5.602   7.943 -0.4660  1.6544 -3.1188
  191POPC  H11Y22102   0.697   5.560   7.986 -1.8951  1.2739 -0.7244
  191POPC  C31222103   0.775   5.748   8.065  0.1487  0.5053 -0.4454
  191POPC  H12X22104   0.849   5.825   8.034  0.5003  1.2122  1.9670
  191POPC  H12Y22105   0.810   5.723   8.167 -2.6507 -0.7264  0.3121
  191POPC  C31322106   0.638   5.830   8.076  0.4806  0.3734 -0.7060
  191POPC  H13X22107   0.568   5.758   8.124  1.0623  1.2927  1.6671
  191POPC  H13Y22108   0.605   5.860   7.974 -0.4390  0.1671 -0.4822
  191POPC  C31422109   0.660   5.965   8.146  0.1700 -0.3720  0.1098
  191POPC  H14X22110   0.725   6.024   8.077 -2.5727  1.3122 -1.1971
  191POPC  H14Y22111   0.713   5.954   8.243 -0.9856 -1.2066  0.6641
  191POPC  C31522112   0.539   6.054   8.183 -0.3214 -0.5979 -0.3194
  191POPC  H15X22113   0.577   6.154   8.215 -0.1627 -1.0213  0.8769
  191POPC  H15Y22114   0.488   6.002   8.267 -0.1662  0.5018  0.4901
  191POPC  C31622115   0.435   6.064   8.071  0.3698 -0.5884 -0.5824
  191POPC  H16X22116   0.484   6.112   7.984 -1.3650  1.4552 -0.5109
  191POPC  H16Y22117   0.344   6.124   8.089 -0.3726 -0.8461 -3.0658
  191POPC  H16Z22118   0.398   5.964   8.040 -0.9062 -0.0955 -0.7244
  192POPC     N22119   4.160   0.566   6.063 -0.1207 -0.0912 -0.4359
  192POPC   C1222120   4.101   0.554   6.199 -0.3191  0.6310  0.1492
  192POPC  H12A22121   4.055   0.457   6.207 -1.1002  1.0135  0.3411
  192POPC  H12B22122   4.022   0.628   6.196 -1.8027 -0.8647  0.6450
  192POPC   C1322123   4.058   0.516   5.964 -0.2831  0.1457  0.9260
  192POPC  H13A22124   3.975   0.584   5.979  0.2127  1.3136 -1.1823
  192POPC  H13B22125   4.095   0.525   5.863 -1.0710  1.3288  0.7242
  192POPC  H13C22126   4.023   0.416   5.988  0.6037 -0.4709 -0.2552
  192POPC   C1422127   4.197   0.704   6.033 -0.2960  0.5465  0.5217
  192POPC  H14A22128   4.107   0.760   6.056 -0.1681  1.1406 -0.3926
  192POPC  H14B22129   4.279   0.734   6.096 -0.5087 -1.9448  2.1276
  192POPC  H14C22130   4.208   0.712   5.926 -0.5991  0.3860  0.4756
  192POPC   C1522131   4.280   0.476   6.043 -0.2583  0.4356 -0.4165
  192POPC  H15A22132   4.310   0.491   5.940 -1.8378 -2.4653 -1.4174
  192POPC  H15B22133   4.257   0.371   6.038  0.0117  0.1168  2.7184
  192POPC  H15C22134   4.364   0.493   6.108 -0.0190  4.1515 -1.4888
  192POPC   C1122135   4.181   0.590   6.328  1.4702  0.6944 -0.1301
  192POPC  H11A22136   4.115   0.593   6.418 -0.9793  0.3438 -1.8096
  192POPC  H11B22137   4.225   0.689   6.307  1.2691  0.4331 -1.8647
  192POPC     P22138   4.284   0.353   6.398  0.1111 -0.0013 -0.1189
  192POPC   O1322139   4.396   0.277   6.336 -0.5545  0.1183  0.0291
  192POPC   O1422140   4.149   0.302   6.380  0.5860  0.1173 -0.2281
  192POPC   O1222141   4.289   0.502   6.339 -0.5671 -0.2729 -0.1682
  192POPC   O1122142   4.330   0.382   6.553 -0.0476 -0.8188 -0.1553
  192POPC    C122143   4.435   0.473   6.579 -0.4954 -0.0033  0.1547
  192POPC    HA22144   4.492   0.494   6.486 -3.5976 -0.8323 -2.0871
  192POPC    HB22145   4.503   0.430   6.656 -0.1144 -2.7320 -1.5867
  192POPC    C222146   4.385   0.608   6.640 -0.2430  0.4197 -0.1777
  192POPC    HS22147   4.350   0.665   6.551 -1.9738  1.6691  1.2361
  192POPC   O2122148   4.490   0.671   6.711 -0.2485 -0.3697  0.4440
  192POPC   C2122149   4.475   0.799   6.753 -1.5924  0.6686 -0.1678
  192POPC   O2222150   4.384   0.873   6.720 -0.0099 -0.3368 -0.1639
  192POPC   C2222151   4.595   0.838   6.847  0.1724 -0.5053 -0.0589
  192POPC   H2R22152   4.597   0.949   6.844  0.6708 -0.5160 -0.0599
  192POPC   H2S22153   4.696   0.811   6.811 -0.2089  1.4011 -2.8240
  192POPC    C322154   4.262   0.583   6.730 -0.7105  0.6358  0.4570
  192POPC    HX22155   4.188   0.527   6.669 -0.4816  0.1310  0.6365
  192POPC    HY22156   4.217   0.681   6.755 -0.2626  1.3775 -1.4902
  192POPC   O3122157   4.288   0.528   6.858 -0.6450  0.0432  0.4365
  192POPC   C3122158   4.186   0.484   6.925  0.3684  0.1794  0.4581
  192POPC   O3222159   4.069   0.490   6.881 -0.0312  0.1817  0.2399
  192POPC   C3222160   4.243   0.444   7.055  0.6469 -0.7928 -0.0321
  192POPC   H2X22161   4.325   0.514   7.082 -1.1672  1.1985  0.5463
  192POPC   H2Y22162   4.278   0.339   7.044 -2.2499 -1.7398 -1.0440
  192POPC   C2322163   4.580   0.783   6.990  0.4901  0.7722  0.0597
  192POPC   H3R22164   4.666   0.821   7.050 -0.6988  3.1679  0.3885
  192POPC   H3S22165   4.577   0.674   6.971  0.1421  1.2346 -3.1163
  192POPC   C2422166   4.449   0.830   7.064 -0.0665  0.3227  0.1117
  192POPC   H4R22167   4.354   0.812   7.009  0.1509 -1.7009  0.3255
  192POPC   H4S22168   4.464   0.935   7.095 -2.8356  1.7248 -2.8209
  192POPC   C2522169   4.422   0.750   7.195  1.0194 -0.4450 -0.0704
  192POPC   H5R22170   4.457   0.645   7.189  1.5517 -0.2989  0.3508
  192POPC   H5S22171   4.313   0.759   7.210  1.1780  1.8013  0.0813
  192POPC   C2622172   4.507   0.809   7.307 -0.3903  0.3542 -0.2866
  192POPC   H6R22173   4.491   0.919   7.313 -1.8527  0.2721 -1.9050
  192POPC   H6S22174   4.614   0.790   7.282  0.0722  1.9640  0.3862
  192POPC   C2722175   4.455   0.750   7.434  0.1936  0.0703  0.1969
  192POPC   H7R22176   4.461   0.639   7.430  1.0146  0.1348 -0.6478
  192POPC   H7S22177   4.350   0.784   7.442 -1.1136 -3.1101 -1.3822
  192POPC   C2822178   4.533   0.799   7.558  0.0383  0.5094 -0.1445
  192POPC   H8R22179   4.557   0.907   7.548 -0.9085  0.7798  0.4236
  192POPC   H8S22180   4.630   0.744   7.566 -0.1123  0.5584  3.1377
  192POPC   C2922181   4.459   0.763   7.683  0.0898  1.0560  0.0572
  192POPC   H9122182   4.360   0.718   7.667  0.9790 -1.9979  2.3659
  192POPC  C21022183   4.499   0.779   7.810  0.8262  0.1013 -0.2062
  192POPC  H10122184   4.441   0.740   7.895  0.9484  0.5123  0.0661
  192POPC  C21122185   4.635   0.840   7.852 -0.0422  0.1364 -0.1672
  192POPC  H11R22186   4.604   0.932   7.906 -1.0975 -1.3461  1.8791
  192POPC  H11S22187   4.694   0.870   7.763 -0.9196  2.4890 -0.0308
  192POPC  C21222188   4.725   0.760   7.941  0.1540  0.8628 -0.0391
  192POPC  H12R22189   4.665   0.715   8.023 -1.7702  0.1986 -1.7207
  192POPC  H12S22190   4.793   0.828   7.997  0.1886 -1.1347  2.5182
  192POPC  C21322191   4.798   0.653   7.868  0.0267 -1.1266  0.1529
  192POPC  H13R22192   4.825   0.690   7.767  0.2793  0.0230  0.6279
  192POPC  H13S22193   4.724   0.571   7.862 -0.8113 -0.3828  0.1701
  192POPC  C21422194   4.919   0.602   7.933  0.3486 -0.0390 -0.6148
  192POPC  H14R22195   4.896   0.567   8.036 -1.6148  1.2904 -0.5381
  192POPC  H14S22196   4.984   0.691   7.942 -0.9546  0.7573  1.6666
  192POPC  C21522197   4.995   0.481   7.867 -0.2537  0.7062 -0.9197
  192POPC  H15R22198   4.941   0.384   7.862  0.0468  0.3341  1.6307
  192POPC  H15S22199   5.084   0.470   7.932 -0.4772 -0.7522 -0.8344
  192POPC  C21622200   5.052   0.524   7.733 -0.3325 -0.0154  0.5362
  192POPC  H16R22201   5.095   0.626   7.747 -0.7538 -0.0213  2.1436
  192POPC  H16S22202   4.966   0.533   7.664  0.3311 -0.9566 -0.4491
  192POPC  C21722203   5.145   0.418   7.686  0.1139 -1.3639 -0.3285
  192POPC  H17R22204   5.070   0.337   7.671 -3.3488  1.4722  0.2982
  192POPC  H17S22205   5.203   0.388   7.775  0.3166 -0.8315 -0.2809
  192POPC  C21822206   5.222   0.444   7.559 -0.3935  0.3008 -0.5040
  192POPC  H18R22207   5.296   0.365   7.536  0.3711  0.4601  1.2228
  192POPC  H18S22208   5.272   0.543   7.564 -1.1685  0.6501  1.9142
  192POPC  H18T22209   5.152   0.433   7.473  0.2299 -0.5771 -0.9148
  192POPC   C3322210   4.143   0.444   7.174 -0.7869 -0.0924  0.2502
  192POPC   H3X22211   4.076   0.358   7.155 -0.1055 -0.7667  0.8674
  192POPC   H3Y22212   4.084   0.538   7.164 -1.5574 -0.5839  0.0680
  192POPC   C3422213   4.213   0.434   7.309 -0.1603 -0.2415 -0.1818
  192POPC   H4X22214   4.274   0.526   7.320 -2.8267  1.8776 -1.6728
  192POPC   H4Y22215   4.273   0.341   7.306 -0.0812 -0.1997  0.0999
  192POPC   C3522216   4.115   0.432   7.426  0.1959 -0.2740 -0.6189
  192POPC   H5X22217   4.022   0.479   7.389 -0.4009 -0.3130  0.7859
  192POPC   H5Y22218   4.153   0.496   7.509  1.2510 -1.7304  0.0648
  192POPC   C3622219   4.108   0.296   7.495 -0.1043  0.2433  0.7258
  192POPC   H6X22220   4.078   0.215   7.424 -1.5286 -0.2746  1.8791
  192POPC   H6Y22221   4.044   0.283   7.585  1.9633 -0.7713  2.1339
  192POPC   C3722222   4.234   0.243   7.548 -0.1282 -0.0510  0.5096
  192POPC   H7X22223   4.306   0.216   7.468 -1.0331 -0.2424 -0.2646
  192POPC   H7Y22224   4.195   0.149   7.591 -0.9566 -0.3242 -0.7525
  192POPC   C3822225   4.296   0.333   7.659 -0.1017  0.1199 -0.2380
  192POPC   H8X22226   4.217   0.386   7.715  0.1121  0.7944 -0.5698
  192POPC   H8Y22227   4.378   0.395   7.617  0.7834 -1.2866 -0.6730
  192POPC   C3922228   4.360   0.243   7.770 -0.2929  0.0494 -0.3318
  192POPC   H9X22229   4.451   0.292   7.810  0.0646  1.1903 -2.4150
  192POPC   H9Y22230   4.386   0.139   7.740  0.7873 -0.0175  0.7330
  192POPC  C31022231   4.260   0.222   7.883  0.1056  0.2310  0.3150
  192POPC  H10X22232   4.177   0.163   7.839  0.2530 -0.4843  0.9663
  192POPC  H10Y22233   4.221   0.318   7.923  1.8142  1.1118 -0.0380
  192POPC  C31122234   4.311   0.131   7.997 -0.2922 -0.2705  0.1411
  192POPC  H11X22235   4.336   0.028   7.966 -0.1456 -0.7011  1.5921
  192POPC  H11Y22236   4.230   0.114   8.072  0.8681 -1.3946  1.1862
  192POPC  C31222237   4.441   0.191   8.072  0.1132 -0.0802  0.5265
  192POPC  H12X22238   4.410   0.274   8.140 -0.7388  0.1784 -0.1542
  192POPC  H12Y22239   4.519   0.230   8.003  2.4522 -0.9785  2.5399
  192POPC  C31322240   4.512   0.095   8.164 -0.1808 -0.3629 -0.3478
  192POPC  H13X22241   4.544   0.006   8.104  3.0152  1.7000 -2.0255
  192POPC  H13Y22242   4.444   0.066   8.247  0.2375  1.7984  0.8365
  192POPC  C31422243   4.629   0.158   8.235  0.1665  0.0058  0.0558
  192POPC  H14X22244   4.585   0.243   8.290 -1.4212 -1.4673  1.1303
  192POPC  H14Y22245   4.694   0.199   8.154 -1.7266 -0.3402 -1.7115
  192POPC  C31522246   4.710   0.073   8.332  0.6401 -0.0477 -0.2710
  192POPC  H15X22247   4.744  -0.020   8.281 -0.6587 -0.6897 -0.0092
  192POPC  H15Y22248   4.642   0.029   8.409 -0.4202  1.9827  0.0152
  192POPC  C31622249   4.836   0.144   8.394  0.2854  0.2298  0.0671
  192POPC  H16X22250   4.898   0.182   8.310 -0.1095 -1.4759 -1.0623
  192POPC  H16Y22251   4.904   0.073   8.447  0.4559  0.2909 -0.0707
  192POPC  H16Z22252   4.828   0.227   8.467  2.4497 -1.4163  2.3467
  193SOD    SOD22253   2.372   0.077   5.036  0.0845  0.0175  0.4419
  194SOD    SOD22254   5.966   4.428  15.839  0.0526 -0.4232  0.5296
  195SOD    SOD22255   5.517   6.260   5.653  0.0827  0.3200  0.4455
  196SOD    SOD22256   1.830   0.869   5.593  0.0206  0.1349 -0.2871
  197SOD    SOD22257   4.348   3.488   3.699 -0.2764  0.3361  0.6324
  198SOD    SOD22258   2.526   3.794  13.564 -0.4902 -0.2393 -0.1589
  199SOD    SOD22259   4.962   0.946  17.152  0.2041 -0.4448 -0.0640
  200SOD    SOD22260   6.615   5.782   2.495  0.4829  0.2390 -0.0322
  201SOD    SOD22261   3.189   5.407  10.695 -0.0403  0.5950 -0.7625
  202SOD    SOD22262   3.049   6.434   0.112  0.2506 -0.4224 -0.1546
  203SOD    SOD22263   5.281   3.111   6.457 -0.0104  0.0016  0.0832
  204SOD    SOD22264   1.768   5.426  16.513 -0.4930 -0.0809 -0.0906
  205SOD    SOD22265   0.575   1.498  10.512  0.2608  0.0175  0.1528
  206SOD    SOD22266   2.975   0.445  13.547  0.1458  0.1325 -0.5166
  207SOD    SOD22267   1.375   5.745  12.883  0.0812 -0.3526 -0.6611
  208SOD    SOD22268   0.442   2.839   0.031 -0.2951 -0.4774 -0.0697
  209SOD    SOD22269   0.960   6.628   3.571 -0.0918  0.2579  0.2314
  210SOD    SOD22270   2.347   0.614  16.060  0.0119  0.3072 -0.1486
  211SOD    SOD22271   6.710   4.644  11.653 -0.4745  0.0468 -0.0488
  212SOD    SOD22272   1.687   1.174  13.778  0.2142  0.0697  0.0205
  213SOD    SOD22273   2.610   2.130   5.203  0.2696  0.0458  0.6134
  214SOD    SOD22274   5.572   4.809  11.434  0.2836  0.3280 -0.9272
  215SOD    SOD22275   5.857   2.609   0.716  0.3022  0.2499 -0.0241
  216SOD    SOD22276   4.787   6.737  11.649  0.0663 -0.1652 -0.9264
  217SOD    SOD22277   3.512   4.891   4.080  0.2415 -0.2022 -0.2310
  218SOD    SOD22278   1.191   1.065   6.024  0.2614 -0.0286  0.3713
  219SOD    SOD22279   5.961   2.797  12.044 -0.8341  0.4950  0.4061
  220SOD    SOD22280   3.166   6.306  15.035  0.4313 -0.2089 -0.2767
  221SOD    SOD22281   3.771   6.655   3.628 -0.4419 -0.6688 -0.0692
  222SOD    SOD22282   5.310   2.663  12.245 -0.0149 -0.1767  0.3106
  223SOD    SOD22283   6.361   5.833   3.752  0.3370 -0.4273 -0.0116
  224SOD    SOD22284   5.176   2.438   3.836 -0.2371  0.5227 -0.2631
  225SOD    SOD22285   6.499   3.692  11.921 -0.3568  0.4261  0.3191
  226SOD    SOD22286   2.555   3.038   4.691  0.1515  0.2613 -0.5795
  227SOD    SOD22287   3.008   3.073  13.948  0.2445  0.1774 -0.1845
  228SOD    SOD22288   4.911   4.125  12.985 -0.1645  0.1852 -0.0118
  229SOD    SOD22289   4.044   6.552   0.757  0.5038 -0.0085  0.2394
  230SOD    SOD22290   5.449   3.373  16.380  0.0051  0.2861 -0.6022
  231SOD    SOD22291   0.539   0.230  17.155  0.1246  0.4685  0.3271
  232SOD    SOD22292   3.597   3.668  12.607 -0.1169 -0.3647  0.2163
  233SOD    SOD22293   3.959   1.994   3.670  0.1567  0.1626 -0.0307
  234SOD    SOD22294   1.991   3.728   6.572 -0.1966 -0.5404 -0.4692
  235SOD    SOD22295   2.859   3.620   5.917  0.2441  0.3184  0.2078
  236SOD    SOD22296   4.704   2.161   5.375  0.6797 -0.0998  0.3130
  237SOD    SOD22297   6.092   3.412  13.802 -0.2338  0.4294 -0.1045
  238SOD    SOD22298   1.286   1.968   1.727 -0.0288 -0.2510  0.2020
  239SOD    SOD22299   1.291   3.410   3.679 -0.2238  0.0909  0.5109
  240SOD    SOD22300   6.001   4.372  11.540 -0.3577  0.1638  0.0622
  241SOD    SOD22301   2.691   3.970   3.501  0.3751  0.7357  0.2414
  242SOD    SOD22302   4.626   1.930  11.428 -0.0209  0.3644 -0.5318
  243SOD    SOD22303   5.366   0.237   4.148 -0.1030 -0.3371  0.4468
  244SOD    SOD22304   1.027   0.666  11.953  0.0284 -0.3849  0.0615
  245SOD    SOD22305   0.436   2.065  11.402  0.5070 -0.2449 -0.0162
  246SOD    SOD22306   0.779   4.543  10.999  0.1834 -0.7569  0.3534
  247SOD    SOD22307   0.749   0.425   0.530 -0.7947 -0.2836 -0.2964
  248SOD    SOD22308   1.979   0.952  10.737 -0.5985  0.1987  0.5751
  249SOD    SOD22309   4.545   4.263  11.582 -0.0088 -0.0368 -0.5849
  250SOD    SOD22310   5.840   0.856   3.186  0.2671 -0.2225  0.2083
  251SOD    SOD22311   1.427   4.186  11.718  0.2740  0.5792 -0.4651
  252SOD    SOD22312   3.092   0.986   0.392  0.1868  0.6801 -0.2557
  253SOD    SOD22313   3.611   2.721  15.968  0.1107 -0.0963  0.2053
  254SOD    SOD22314   4.823   1.679  16.608 -0.6006  0.3311 -0.1659
  255SOD    SOD22315   4.210   5.846  13.076 -0.0668 -0.3907  0.6526
  256SOD    SOD22316   5.331   1.232   4.469  0.2568  0.1656  0.4135
  257SOD    SOD22317   3.933   1.551   3.321 -0.2676 -0.5957  0.0872
  258SOD    SOD22318   6.618   1.466  15.601  0.4516 -0.1278 -0.2821
  259SOD    SOD22319   0.485   2.267   5.687 -0.6426  0.0402 -0.5628
  260SOD    SOD22320   0.194   5.004   2.486  0.1042 -0.5303  0.1571
  261SOD    SOD22321   0.808   4.491  16.562 -0.0928  0.5796  0.1243
  262SOD    SOD22322   5.043   4.927   4.894  0.0567 -0.4612 -0.0263
  263SOD    SOD22323   1.015   6.355  11.157 -0.1920 -0.1109 -0.1232
  264SOD    SOD22324   2.242   4.437  16.620  0.3301  0.2640  0.3695
  265SOD    SOD22325   0.078   6.072  14.336  0.1058 -0.3455  0.0058
  266SOD    SOD22326   6.231   4.342   6.202 -0.0216  0.6263 -0.4502
  267SOD    SOD22327   2.383   6.118  12.091 -0.1355  0.1344  0.1383
  268SOD    SOD22328   3.912   1.214  14.839  0.4449  0.4096 -0.5776
  269SOD    SOD22329   4.407   1.323  10.415  0.0293 -0.6240  0.0116
  270CLA    CLA22330   5.963   0.667   0.540 -1.1464  0.1712  0.0336
  271CLA    CLA22331   0.675   0.184  14.530 -0.0084 -0.1420 -0.0441
  272CLA    CLA22332   2.697   2.654   4.448  0.0481 -0.1356 -0.2763
  273CLA    CLA22333   2.546   5.340   2.824  0.2346 -0.1245  0.2620
  274CLA    CLA22334   2.756   3.186   4.868  0.1325  0.4801 -0.0989
  275CLA    CLA22335   1.766   5.244  17.036  0.4561 -0.1448  0.1687
  276CLA    CLA22336   6.064   6.137  14.324  0.2925  0.3579  0.2935
  277CLA    CLA22337   4.691   5.304   3.553 -0.1994  0.2363 -0.3384
  278CLA    CLA22338   4.122   5.960  11.236  0.1259 -0.2076  0.3589
  279CLA    CLA22339   5.198   4.504  14.334 -0.6124 -0.1729  0.4336
  280CLA    CLA22340   6.376   3.508  12.865  0.1413 -0.0308 -0.1411
  281CLA    CLA22341   1.506   2.399   5.118  0.5244 -0.0219 -0.3235
  282CLA    CLA22342   4.707   1.317   3.063  0.4442  0.0981 -0.1152
  283CLA    CLA22343   2.795   1.748   5.391 -0.2585 -0.3868  0.0816
  284CLA    CLA22344   3.343   3.746  14.020  0.0476 -0.2542  0.0632
  285CLA    CLA22345   0.607   6.394   3.304  0.0564  0.1583  0.4920
  286CLA    CLA22346   0.386   2.285  16.726  0.0857 -0.2610  0.2711
  287CLA    CLA22347   4.001   1.502   3.737  0.0843 -0.0321  0.0331
  288CLA    CLA22348   5.059   5.326  16.587 -0.0468 -0.0710  0.1301
  289CLA    CLA22349   4.437   2.952   4.301 -0.6052 -0.3713  0.8010
  290CLA    CLA22350   6.490   3.714  14.849 -0.0287  0.1101  0.0541
  291CLA    CLA22351   3.106   2.764   4.010  0.1237 -0.0643  0.3448
  292CLA    CLA22352   4.634   6.104   0.126  0.5925  0.1363 -0.2451
  293CLA    CLA22353   1.953   3.516   4.749  0.2110  0.1587  0.4305
  294CLA    CLA22354   6.448   2.700  15.958  0.1425  0.0252  0.3180
  295CLA    CLA22355   1.203   5.088  13.723 -0.0383  0.0462 -0.0860
  296CLA    CLA22356   3.221   4.444  16.001 -0.2073  0.3494  0.1116
  297CLA    CLA22357   0.814   4.426  13.628 -0.0277 -0.1526 -0.5866
  298CLA    CLA22358   6.272   0.115   1.039  0.3560  0.0808  0.0592
  299CLA    CLA22359   6.420   6.441  12.973  0.2067 -0.6590 -0.0725
  300CLA    CLA22360   2.765   1.744   0.275  0.5657  0.0467 -0.0181
  301CLA    CLA22361   6.759   2.281  11.902 -0.0273 -0.0354  0.1313
  302CLA    CLA22362   6.309   0.930  16.463 -0.3839 -0.3475 -0.0287
  303CLA    CLA22363   3.248   0.359   0.329  0.1358  0.3755  0.3925
  304CLA    CLA22364   1.641   1.573  13.069 -0.4618 -0.1632 -0.1439
  305CLA    CLA22365   1.700   1.566  12.444  0.5229  0.4306  0.0679
  306CLA    CLA22366   3.500   2.696   2.174 -0.1873  0.2811 -0.4190
  307CLA    CLA22367   6.236   3.697  12.405 -0.3339  0.1929  0.3707
  308CLA    CLA22368   3.682   1.339  12.860 -0.2559  0.2806 -0.0906
  309CLA    CLA22369   3.917   2.944  15.588 -0.0633 -0.1420 -0.1794
  310CLA    CLA22370   2.098   4.071  16.903 -0.5678  0.3022 -0.5614
  311CLA    CLA22371   4.308   3.139  16.448  0.0613 -0.1645  0.1132
  312CLA    CLA22372   1.559   4.333   2.008 -0.2906  0.0322 -0.3618
  313CLA    CLA22373   2.679   3.376   3.090  0.1178  0.2663 -0.1129
  314CLA    CLA22374   4.792   2.494  13.455 -0.1135  0.4239 -0.0602
  315CLA    CLA22375   6.019   6.434   1.572 -0.4085 -0.0502  0.2454
  316CLA    CLA22376   2.753   0.983  16.049 -0.2636 -0.1385  0.3855
  317CLA    CLA22377   5.706   1.507  11.998  0.1197  0.1731 -0.0889
  318CLA    CLA22378   2.178   5.840  11.506  0.0404 -0.1407  0.0015
  319CLA    CLA22379   5.895   3.402  13.991  0.1029  0.5567  0.0225
  320CLA    CLA22380   2.512   0.316  15.467  0.3157 -0.4377 -0.1665
  321CLA    CLA22381   1.200   5.099   0.505 -0.0953  0.2533  0.5477
  322CLA    CLA22382   1.884   5.208   4.673  0.2166  0.6447 -0.5388
  323TIP3   OH222383   0.001   2.223   3.781  0.5172  0.1742 -0.2887
  323TIP3    H122384   0.038   2.160   3.843  0.7137  0.0949 -0.4842
  323TIP3    H222385  -0.001   2.176   3.698 -0.2127  0.1121 -0.2387
  324TIP3   OH222386   2.213   3.656   5.519  0.1034 -0.0443  0.0581
  324TIP3    H122387   2.167   3.678   5.599  0.6831 -1.3465  0.7664
  324TIP3    H222388   2.276   3.589   5.544 -0.1675 -0.9934 -1.6100
  325TIP3   OH222389   3.491   4.688   2.545  0.4129  0.2700  0.0147
  325TIP3    H122390   3.483   4.600   2.509  1.6241  0.0630  0.1989
  325TIP3    H222391   3.488   4.746   2.469  0.0101  0.0471 -0.1429
  326TIP3   OH222392   5.770   5.081  11.784  0.0083  0.4911  0.1325
  326TIP3    H122393   5.829   5.144  11.742  1.3700 -0.3145  0.7743
  326TIP3    H222394   5.695   5.134  11.811  0.2975  1.5028 -0.9159
  327TIP3   OH222395   6.002   0.832   2.722 -0.2346 -0.2575 -0.3854
  327TIP3    H122396   5.921   0.882   2.732 -0.6683 -1.0466  0.1438
  327TIP3    H222397   5.973   0.741   2.716  0.6510 -0.5951  0.3270
  328TIP3   OH222398   1.410   3.616   4.373 -0.4570  0.3738 -0.4107
  328TIP3    H122399   1.367   3.622   4.458  1.0958  1.0006  0.3587
  328TIP3    H222400   1.482   3.678   4.378 -0.3576  0.4459 -2.2111
  329TIP3   OH222401   2.036   4.758  15.147 -0.7389 -0.1126  0.0990
  329TIP3    H122402   2.005   4.844  15.175  0.6339 -0.4897  3.2381
  329TIP3    H222403   1.960   4.701  15.159 -0.7798  0.1387  1.1356
  330TIP3   OH222404   0.152   3.031  13.352 -0.2866 -0.5884 -0.3817
  330TIP3    H122405   0.085   2.970  13.383 -1.2357 -0.3925 -1.9244
  330TIP3    H222406   0.114   3.118  13.364  0.2170 -0.4069 -0.0835
  331TIP3   OH222407   3.866   4.191  11.960  0.2157 -0.2490 -0.1571
  331TIP3    H122408   3.947   4.140  11.972 -0.7090 -1.6377  0.3812
  331TIP3    H222409   3.822   4.150  11.886 -0.7040 -0.4647  0.4906
  332TIP3   OH222410   3.151   2.674  17.160 -0.2147 -0.2814 -0.8824
  332TIP3    H122411   3.192   2.599  17.202 -1.2532 -0.4497 -0.1066
  332TIP3    H222412   3.212   2.701  17.092  1.1887 -0.4787  0.2458
  333TIP3   OH222413   3.965   2.622  13.268 -0.1750  0.1419  0.1742
  333TIP3    H122414   3.881   2.641  13.227 -0.0952 -1.1291 -0.6201
  333TIP3    H222415   3.993   2.539  13.229  0.3621 -0.6417  2.0881
  334TIP3   OH222416   6.432   0.846   4.446  0.3323 -0.2530 -0.1873
  334TIP3    H122417   6.358   0.798   4.483  0.2138 -1.2268 -1.5990
  334TIP3    H222418   6.395   0.929   4.417  0.1942  0.0328  0.7713
  335TIP3   OH222419   4.796   5.478  16.486 -0.4081 -0.4986  0.4284
  335TIP3    H122420   4.777   5.493  16.579  0.3665  1.8078  0.2615
  335TIP3    H222421   4.874   5.422  16.487  0.4041  0.5985  1.2126
  336TIP3   OH222422   6.409   2.202  17.208 -0.1046  0.0460 -0.4865
  336TIP3    H122423   6.495   2.176  17.175  1.1466  4.2068 -1.1037
  336TIP3    H222424   6.427   2.236  17.296 -1.2779  0.2840 -0.3236
  337TIP3   OH222425   3.776   1.364  13.494  0.5208  0.6308  0.0092
  337TIP3    H122426   3.783   1.375  13.399  0.8812  0.1944 -0.0180
  337TIP3    H222427   3.866   1.345  13.523  0.2905  0.0217  0.3383
  338TIP3   OH222428   0.756   2.503  11.807 -0.1749 -0.1112 -0.9829
  338TIP3    H122429   0.777   2.465  11.893  2.6981  1.6283 -0.7894
  338TIP3    H222430   0.683   2.562  11.825  1.9062  2.0904  0.9164
  339TIP3   OH222431   4.719   2.679  13.047 -0.0314 -0.0843  0.2963
  339TIP3    H122432   4.718   2.639  12.959  3.4187  1.3679 -0.5721
  339TIP3    H222433   4.745   2.607  13.105  0.6463 -0.4118 -0.3833
  340TIP3   OH222434   5.450   3.155   4.993  0.1348  0.5934  0.0748
  340TIP3    H122435   5.441   3.140   4.899 -2.6440  1.9594  0.0031
  340TIP3    H222436   5.539   3.189   5.004  1.2972 -1.6202 -1.6840
  341TIP3   OH222437   1.259   0.135   3.797 -0.2820  0.1245 -0.0896
  341TIP3    H122438   1.208   0.162   3.873  0.9985  0.9716  0.4891
  341TIP3    H222439   1.348   0.123   3.830 -0.0585 -1.2245 -1.0980
  342TIP3   OH222440   4.784   4.380  16.051 -0.1704  0.2418 -0.3586
  342TIP3    H122441   4.721   4.312  16.027  0.5500 -0.7216  0.4133
  342TIP3    H222442   4.837   4.393  15.973  0.0295 -0.4889 -0.3527
  343TIP3   OH222443   2.391   3.901   4.881 -0.2387  0.0887  0.1484
  343TIP3    H122444   2.408   3.995   4.892 -2.0085  0.4811 -0.1682
  343TIP3    H222445   2.305   3.888   4.921  1.0224 -1.9233  2.4719
  344TIP3   OH222446   5.167   3.465   3.480 -0.0533  0.2436 -0.2654
  344TIP3    H122447   5.229   3.533   3.456  1.6916 -0.7692  1.1287
  344TIP3    H222448   5.132   3.433   3.397  1.4323  0.7138 -1.0974
  345TIP3   OH222449   3.867   4.824  14.538 -0.1789  0.2831 -0.4296
  345TIP3    H122450   3.872   4.903  14.486  0.5428  0.1753 -0.5308
  345TIP3    H222451   3.941   4.770  14.508 -1.1816 -0.8195 -1.0067
  346TIP3   OH222452   6.216   6.048  17.222 -0.0850 -0.0530 -0.3410
  346TIP3    H122453   6.173   6.114  17.169  0.9391  1.4920  0.6495
  346TIP3    H222454   6.270   5.999  17.161  0.5132  1.2138 -0.8706
  347TIP3   OH222455   0.640   6.470   1.030 -0.5825  0.1729  0.1242
  347TIP3    H122456   0.546   6.456   1.044 -0.2808 -1.4138  0.7751
  347TIP3    H222457   0.679   6.458   1.116  0.3770 -0.6813 -0.4188
  348TIP3   OH222458   4.542   3.181  15.264 -0.0443  0.7314  0.2990
  348TIP3    H122459   4.588   3.242  15.321  0.0308 -0.1003  1.1481
  348TIP3    H222460   4.579   3.095  15.285  0.0827  0.4063 -1.0950
  349TIP3   OH222461   6.069   4.776  14.413  0.7045  0.2375 -1.0055
  349TIP3    H122462   6.156   4.767  14.373  1.2051  0.6345 -0.0510
  349TIP3    H222463   6.045   4.868  14.397  0.0569 -0.1003 -2.0393
  350TIP3   OH222464   4.438   4.776   1.184 -0.4046 -0.2222  0.5398
  350TIP3    H122465   4.433   4.859   1.136  1.0637 -0.6766 -0.4638
  350TIP3    H222466   4.526   4.774   1.221 -0.2434 -1.5182  0.1612
  351TIP3   OH222467   4.684   3.622   7.113 -0.5652  0.6846  0.0489
  351TIP3    H122468   4.743   3.560   7.157 -1.4592  0.3230  0.7880
  351TIP3    H222469   4.741   3.675   7.058  0.0748 -1.8970 -1.9960
  352TIP3   OH222470   3.500   0.048  10.621  0.2192 -0.4186  0.1329
  352TIP3    H122471   3.413   0.062  10.583  0.7250  0.4082 -0.7674
  352TIP3    H222472   3.506  -0.047  10.631  0.4013 -0.8090 -2.7928
  353TIP3   OH222473   4.368   4.304   3.790  0.1619  0.2275 -0.4652
  353TIP3    H122474   4.385   4.291   3.884  0.8907 -0.2317 -0.6505
  353TIP3    H222475   4.412   4.230   3.748  1.2251  1.2892 -1.2872
  354TIP3   OH222476   2.128   5.907  15.502  0.2320 -0.2319  0.1649
  354TIP3    H122477   2.073   5.944  15.432 -0.5242 -0.1691  0.7831
  354TIP3    H222478   2.169   5.984  15.543  0.2399 -0.2311  0.1554
  355TIP3   OH222479   3.665   2.468   2.612  0.2300  0.8686 -0.7772
  355TIP3    H122480   3.702   2.489   2.526  0.7413  1.7058 -0.3581
  355TIP3    H222481   3.668   2.372   2.616  0.0303  0.8087 -1.7658
  356TIP3   OH222482   6.500   1.521   0.445 -0.0008  0.7135 -0.2413
  356TIP3    H122483   6.585   1.564   0.457 -0.4519  1.6774 -0.4425
  356TIP3    H222484   6.472   1.499   0.534  1.1108 -0.9424 -0.2560
  357TIP3   OH222485   4.142   5.704  13.259 -0.3846 -0.2557 -0.2644
  357TIP3    H122486   4.100   5.689  13.343 -1.1697  0.5473 -0.4909
  357TIP3    H222487   4.094   5.648  13.197 -0.3341 -0.2438 -0.3145
  358TIP3   OH222488   5.633   0.191  14.927  0.0252 -0.5139  0.1040
  358TIP3    H122489   5.709   0.152  14.883  0.3838  1.3625 -1.0656
  358TIP3    H222490   5.671   0.246  14.996 -0.2765  0.0133 -0.1409
  359TIP3   OH222491   1.020   4.378  16.959 -0.8243  0.0005 -0.4370
  359TIP3    H122492   0.961   4.433  17.010 -0.8360 -1.2985  1.0059
  359TIP3    H222493   0.974   4.295  16.949  0.5775 -0.9187  0.4117
  360TIP3   OH222494   3.318   1.180  14.086 -0.0767  0.7310 -0.6169
  360TIP3    H122495   3.322   1.086  14.103 -3.0873  0.8792  1.6094
  360TIP3    H222496   3.408   1.203  14.060  1.4498 -2.2418  1.4359
  361TIP3   OH222497   4.480   6.283   5.950 -0.2627 -0.1721 -0.2426
  361TIP3    H122498   4.504   6.308   5.861  2.9634  2.5936  1.1996
  361TIP3    H222499   4.397   6.327   5.966  0.7880  2.1905 -0.8633
  362TIP3   OH222500   0.277   0.477  13.813  0.2662 -0.1871 -0.2642
  362TIP3    H122501   0.271   0.431  13.896  1.7720  1.6263  0.9169
  362TIP3    H222502   0.354   0.438  13.770  2.6769  2.1980  1.5246
  363TIP3   OH222503   3.894   3.816   6.013 -0.4134  0.3537 -0.0695
  363TIP3    H122504   3.955   3.843   6.082 -0.2974 -2.3169  1.0076
  363TIP3    H222505   3.820   3.779   6.060 -0.2497 -1.7240 -1.3308
  364TIP3   OH222506   6.540   3.253   0.385 -0.0016  0.4557 -0.2520
  364TIP3    H122507   6.574   3.172   0.348 -1.5060 -1.3916  2.1074
  364TIP3    H222508   6.446   3.240   0.391 -0.1041  1.5797  1.8301
  365TIP3   OH222509   3.828   5.428  17.205  0.1979  0.5375 -0.0269
  365TIP3    H122510   3.815   5.461  17.294 -0.4292  0.4464 -0.0812
  365TIP3    H222511   3.742   5.435  17.163  0.2793 -0.2159 -0.3521
  366TIP3   OH222512   2.033   5.812  14.460 -0.2071 -0.1438 -0.0437
  366TIP3    H122513   2.010   5.818  14.368  0.0408 -1.7562 -0.2401
  366TIP3    H222514   2.123   5.844  14.465  0.3846 -1.6564 -0.6667
  367TIP3   OH222515   5.864   5.054  16.730 -0.3705 -0.5606 -0.1507
  367TIP3    H122516   5.815   5.002  16.794  0.8425 -1.8583 -0.2263
  367TIP3    H222517   5.798   5.083  16.668 -1.0331 -2.5901 -0.4677
  368TIP3   OH222518   6.430   2.052   0.460 -0.3857  0.0897  0.1898
  368TIP3    H122519   6.373   2.117   0.501 -0.7350  2.1434 -3.1686
  368TIP3    H222520   6.517   2.092   0.460 -0.3634  0.0755 -0.8264
  369TIP3   OH222521   6.520   4.415   4.004 -0.2104  0.1857 -0.1037
  369TIP3    H122522   6.451   4.365   4.047 -0.0087 -0.2506 -0.2836
  369TIP3    H222523   6.514   4.391   3.912 -1.2216  1.7859 -0.5024
  370TIP3   OH222524   3.642   1.259  15.389  0.5082 -0.1431  0.2340
  370TIP3    H122525   3.703   1.189  15.364 -1.9682 -2.1919 -0.4276
  370TIP3    H222526   3.626   1.244  15.483 -0.0661 -0.5251  0.0792
  371TIP3   OH222527   2.596   0.897  13.987  0.0390  0.7282 -0.0125
  371TIP3    H122528   2.568   0.937  13.905 -0.5254  0.9361  0.2748
  371TIP3    H222529   2.684   0.933  14.002 -0.4303  1.8421  0.2115
  372TIP3   OH222530   2.522   6.740   1.731 -0.3909 -0.3511 -0.4214
  372TIP3    H122531   2.428   6.741   1.712 -0.6620  0.0561  0.8395
  372TIP3    H222532   2.561   6.793   1.661 -1.3116  0.8565 -0.0653
  373TIP3   OH222533   2.057   6.113   1.867 -0.2341  0.0317 -0.2255
  373TIP3    H122534   2.092   6.189   1.912  1.0327 -0.6735  0.0237
  373TIP3    H222535   1.976   6.092   1.914  0.1474  0.3750  0.6080
  374TIP3   OH222536   6.283   0.787  13.750  0.2042 -0.3032 -0.0710
  374TIP3    H122537   6.265   0.697  13.722 -1.4334  0.2835 -1.0306
  374TIP3    H222538   6.256   0.841  13.676  0.9991  1.0043  0.5544
  375TIP3   OH222539   3.270   4.583   3.532  0.2508  0.7151 -0.0146
  375TIP3    H122540   3.248   4.514   3.470 -2.7206 -0.2755  1.9370
  375TIP3    H222541   3.355   4.557   3.568  0.7451 -0.0878 -1.7080
  376TIP3   OH222542   3.263   2.515   4.485 -0.1347 -0.2271 -0.0123
  376TIP3    H122543   3.198   2.472   4.540 -0.8416 -2.1913 -2.2195
  376TIP3    H222544   3.333   2.450   4.475  0.4190  0.4511 -0.6440
  377TIP3   OH222545   0.298   6.245   2.055  0.4662  0.3838 -0.4540
  377TIP3    H122546   0.239   6.298   2.109 -1.8742  0.1871 -2.6350
  377TIP3    H222547   0.362   6.210   2.117 -0.3173  2.4883  1.6855
  378TIP3   OH222548   4.126   1.842   4.543 -0.2540 -0.3055  0.1597
  378TIP3    H122549   4.144   1.919   4.597  0.3702 -1.1577  1.2112
  378TIP3    H222550   4.184   1.851   4.467  1.3949 -0.7738  1.3234
  379TIP3   OH222551   4.040   0.205   3.670 -0.6328  0.6169  0.4356
  379TIP3    H122552   4.026   0.295   3.701  2.1144  0.0047  4.2586
  379TIP3    H222553   4.117   0.211   3.614 -1.8643  0.8776 -1.2926
  380TIP3   OH222554   6.027   3.142  11.740 -0.4699 -0.5886 -0.5547
  380TIP3    H122555   5.957   3.207  11.726  0.4606  0.3727 -0.8495
  380TIP3    H222556   6.036   3.098  11.656 -0.6258 -0.6260 -0.5534
  381TIP3   OH222557   1.905   5.374   1.767  0.2261  0.2116 -0.1150
  381TIP3    H122558   1.998   5.396   1.758  0.2897 -0.1226 -0.2903
  381TIP3    H222559   1.889   5.309   1.699 -0.0828  0.1020  0.0601
  382TIP3   OH222560   5.415   2.858  12.381 -0.3726  0.7481  0.1871
  382TIP3    H122561   5.444   2.849  12.471  0.0030  0.6310  0.0569
  382TIP3    H222562   5.351   2.929  12.383 -1.3580 -0.1346  0.7639
  383TIP3   OH222563   0.784   3.358   3.268 -0.4872  0.9171  0.0042
  383TIP3    H122564   0.712   3.414   3.241 -2.0395 -0.3492  1.3385
  383TIP3    H222565   0.762   3.271   3.235 -0.1834  0.2717  1.4245
  384TIP3   OH222566   4.517   4.009   4.415 -0.1993 -0.1056 -0.0680
  384TIP3    H122567   4.602   4.030   4.453 -0.2986 -1.0111  0.7230
  384TIP3    H222568   4.469   3.967   4.487 -0.7312 -1.0523 -0.9397
  385TIP3   OH222569   6.077   1.177   3.854  0.1267  0.0799 -0.8871
  385TIP3    H122570   6.047   1.087   3.866  0.1824  0.0873 -0.7058
  385TIP3    H222571   6.115   1.177   3.766  1.4269 -0.4244 -0.3483
  386TIP3   OH222572   1.860   4.019  12.058 -0.3783 -0.0847  0.2915
  386TIP3    H122573   1.935   4.002  12.001 -0.9830  1.2540 -0.9758
  386TIP3    H222574   1.793   3.957  12.028 -0.2541 -0.2884  0.4372
  387TIP3   OH222575   3.721   3.947   1.228  0.2294  0.3978  0.3526
  387TIP3    H122576   3.702   3.942   1.135 -2.8975 -0.8888  0.9026
  387TIP3    H222577   3.676   4.026   1.258 -1.4490 -0.8001  1.1762
  388TIP3   OH222578   4.298   4.827  14.443 -0.8094 -0.3889  0.0630
  388TIP3    H122579   4.320   4.735  14.430 -1.5177 -0.5978  0.3360
  388TIP3    H222580   4.204   4.832  14.430 -1.1473 -0.0960  2.2229
  389TIP3   OH222581   5.183   0.637  11.075 -0.5062  0.1457  0.0354
  389TIP3    H122582   5.276   0.657  11.067 -0.4949  0.2653  0.4494
  389TIP3    H222583   5.163   0.584  10.998  0.0339 -0.3665  0.2412
  390TIP3   OH222584   3.083   0.333   4.035  0.7552  0.4487  0.4776
  390TIP3    H122585   3.135   0.338   3.955  2.5859  2.1005  1.6631
  390TIP3    H222586   3.029   0.255   4.024  1.8783 -0.0909 -1.8070
  391TIP3   OH222587   5.458   4.456  11.765  0.0437 -0.0605  0.0589
  391TIP3    H122588   5.507   4.415  11.836 -0.1779 -1.5458 -0.6022
  391TIP3    H222589   5.400   4.387  11.732  0.2587  0.5154 -1.6724
  392TIP3   OH222590   0.837   6.597  16.662  0.6477  0.0302 -0.3254
  392TIP3    H122591   0.824   6.527  16.598 -0.5619 -1.1567  1.1674
  392TIP3    H222592   0.786   6.670  16.627  0.7381 -0.2910 -1.1627
  393TIP3   OH222593   5.327   1.877   2.279 -0.1883  0.3262 -0.2203
  393TIP3    H122594   5.385   1.950   2.300  2.2256 -1.7167  0.8156
  393TIP3    H222595   5.352   1.852   2.190  0.4931 -0.4935  0.1893
  394TIP3   OH222596   5.798   3.597   3.588  0.0204 -0.4215  0.1343
  394TIP3    H122597   5.821   3.507   3.564 -0.6582 -0.9350  1.3447
  394TIP3    H222598   5.716   3.589   3.636  0.1154  0.8185  0.5453
  395TIP3   OH222599   0.752   0.404  11.444 -0.5119 -0.1103 -0.3476
  395TIP3    H122600   0.777   0.350  11.519  0.9320 -0.6369 -1.1612
  395TIP3    H222601   0.657   0.396  11.438 -0.4291 -1.7564  0.1640
  396TIP3   OH222602   1.088   1.593   2.024 -0.0070  0.1332 -0.1603
  396TIP3    H122603   1.169   1.546   2.005  1.2384  1.2884  1.9330
  396TIP3    H222604   1.092   1.611   2.118 -1.2819  2.7845 -0.5204
  397TIP3   OH222605   5.317   6.561  16.967  0.6318 -0.6188  0.2684
  397TIP3    H122606   5.339   6.651  16.991 -0.4755 -0.0172 -0.8499
  397TIP3    H222607   5.258   6.532  17.037 -0.5447  0.2250 -0.3350
  398TIP3   OH222608   5.408   6.680  13.869 -0.6458  0.3017 -0.0599
  398TIP3    H122609   5.349   6.699  13.942 -0.8306  0.3087 -0.2104
  398TIP3    H222610   5.448   6.596  13.892 -1.9459 -0.5396 -0.7237
  399TIP3   OH222611   6.663   6.502  14.430 -0.5942  0.2860  0.0619
  399TIP3    H122612   6.572   6.524  14.412 -1.2376 -1.6539  0.7530
  399TIP3    H222613   6.670   6.501  14.525 -0.1995 -0.8191  0.0390
  400TIP3   OH222614   6.737   1.133  11.312 -0.1790  0.0846 -0.0649
  400TIP3    H122615   6.730   1.065  11.246 -0.8617 -1.5091  1.5487
  400TIP3    H222616   6.799   1.099  11.376 -1.3999  0.4060  1.3661
  401TIP3   OH222617   3.130   6.408   0.954  0.1248  0.2387 -0.5971
  401TIP3    H122618   3.039   6.404   0.926  0.3915  1.7330 -1.8647
  401TIP3    H222619   3.171   6.470   0.894  1.9091 -0.1301  0.1533
  402TIP3   OH222620   6.261   2.124  14.294 -0.2301 -0.2456  0.0885
  402TIP3    H122621   6.186   2.109  14.236  0.4041 -1.2273 -0.5094
  402TIP3    H222622   6.292   2.212  14.272  0.3439 -0.8060 -1.5043
  403TIP3   OH222623   4.426   4.653   5.816 -0.1452  0.1669  1.4408
  403TIP3    H122624   4.394   4.682   5.731 -0.2863 -1.0192  1.0708
  403TIP3    H222625   4.521   4.659   5.809 -0.1307 -0.4645  0.9857
  404TIP3   OH222626   3.936   0.068   0.345 -0.4705  0.2944  0.2916
  404TIP3    H122627   3.911   0.134   0.410 -1.4338 -0.1804  0.4203
  404TIP3    H222628   4.012   0.105   0.301 -0.5955  1.1951  0.8126
  405TIP3   OH222629   4.077   2.815   3.071  0.4875 -0.0500 -0.0857
  405TIP3    H122630   4.057   2.834   3.163 -0.4662  1.5324 -0.5926
  405TIP3    H222631   4.055   2.895   3.024  0.9515 -0.8340 -1.7203
  406TIP3   OH222632   4.096   0.845   0.375  0.7213 -0.2181 -0.1962
  406TIP3    H122633   4.164   0.878   0.433  0.0252 -0.7448  0.9420
  406TIP3    H222634   4.119   0.753   0.361  1.7274  0.2563 -2.0200
  407TIP3   OH222635   2.358   6.370  12.135  0.3586  0.7792  0.6526
  407TIP3    H122636   2.272   6.410  12.125  0.1537  0.0093 -0.8885
  407TIP3    H222637   2.357   6.331  12.223 -1.3528 -0.3589  0.1569
  408TIP3   OH222638   3.114   1.115  14.450 -0.4565 -0.5539  0.2368
  408TIP3    H122639   3.037   1.170  14.462  0.6123  0.6581  1.9935
  408TIP3    H222640   3.183   1.176  14.426 -0.0874 -1.6809 -1.7290
  409TIP3   OH222641   5.395   1.664  10.868 -0.2119 -0.2558 -0.1366
  409TIP3    H122642   5.368   1.572  10.870 -0.5824 -0.1566 -0.3929
  409TIP3    H222643   5.356   1.698  10.787  1.5893 -0.3765 -1.0961
  410TIP3   OH222644   5.726   1.746  12.174 -0.0662 -0.3476 -0.4509
  410TIP3    H122645   5.748   1.827  12.129  0.3885 -0.2779 -0.1102
  410TIP3    H222646   5.723   1.680  12.104  3.4699 -0.8349 -0.3647
  411TIP3   OH222647   1.202   6.199   0.554  0.2213  0.3463  0.2199
  411TIP3    H122648   1.127   6.152   0.517  0.9586 -0.4192 -0.3485
  411TIP3    H222649   1.269   6.131   0.564  1.3808  1.2951 -0.7914
  412TIP3   OH222650   6.786   6.045   3.943  0.5219 -0.6098 -0.3817
  412TIP3    H122651   6.790   6.070   4.035  2.0070 -1.7821 -0.0952
  412TIP3    H222652   6.811   6.124   3.896 -0.7671  0.1573  0.1571
  413TIP3   OH222653   5.973   2.781  12.278 -0.6316 -0.0393  0.4796
  413TIP3    H122654   5.936   2.824  12.355 -0.1897  0.1950  0.5634
  413TIP3    H222655   5.965   2.687  12.297  0.1989  0.0209  1.1582
  414TIP3   OH222656   6.294   3.013  12.599  0.2744 -0.2427 -0.4424
  414TIP3    H122657   6.263   3.104  12.600 -0.5183 -0.5010 -0.5146
  414TIP3    H222658   6.385   3.018  12.628  0.4942  0.6683 -1.2548
  415TIP3   OH222659   2.856   3.680  11.029  0.5171  0.8992 -0.0907
  415TIP3    H122660   2.789   3.620  11.060  1.6042 -0.8021 -0.9279
  415TIP3    H222661   2.820   3.719  10.950  0.5534 -0.1036 -0.6074
  416TIP3   OH222662   2.642   6.603   2.878 -0.5562 -0.1908 -0.1757
  416TIP3    H122663   2.610   6.692   2.864  0.3881 -0.0280 -1.5787
  416TIP3    H222664   2.697   6.585   2.801  1.0777 -1.1510  1.1288
  417TIP3   OH222665   5.295   0.644  17.187  0.2154  0.5835 -0.0080
  417TIP3    H122666   5.244   0.685  17.256  0.8157 -0.2366  0.9439
  417TIP3    H222667   5.301   0.553  17.212 -0.5675 -0.0124 -1.7722
  418TIP3   OH222668   1.929   4.701  14.676 -0.0975  0.0747 -1.0147
  418TIP3    H122669   1.853   4.752  14.704 -0.8756 -1.5883  0.0466
  418TIP3    H222670   1.920   4.695  14.581 -0.4212  1.1901 -1.0777
  419TIP3   OH222671   3.927   3.203  13.253 -0.1741 -0.3621  0.0238
  419TIP3    H122672   4.010   3.170  13.219  0.8765  3.2240 -1.3551
  419TIP3    H222673   3.868   3.201  13.177 -0.3530  0.0773  0.1511
  420TIP3   OH222674   5.071   0.704  15.886  0.5154 -0.1410 -0.0096
  420TIP3    H122675   4.990   0.662  15.913  0.1482  0.1710 -0.5900
  420TIP3    H222676   5.093   0.662  15.802  0.5693  0.2607 -0.1994
  421TIP3   OH222677   5.698   5.650   0.241  0.1739 -0.5322  0.8130
  421TIP3    H122678   5.721   5.560   0.263  1.9993 -0.2780  0.0925
  421TIP3    H222679   5.605   5.656   0.263 -0.1690 -2.7746  0.2948
  422TIP3   OH222680   2.023   3.688   4.029 -0.5600  0.1841  0.9025
  422TIP3    H122681   1.975   3.720   3.952 -1.4301 -0.7865  1.0226
  422TIP3    H222682   1.973   3.721   4.104  1.1704  2.5129  1.1548
  423TIP3   OH222683   0.082   2.142  11.564 -0.1010  0.1800  0.2549
  423TIP3    H122684   0.078   2.234  11.590 -1.0723  0.4811 -0.8740
  423TIP3    H222685   0.047   2.095  11.639  0.3859  0.7213  0.8392
  424TIP3   OH222686   3.135   6.470   5.263  0.0834 -0.2762  0.0744
  424TIP3    H122687   3.141   6.561   5.235  0.1984 -1.3664 -4.0421
  424TIP3    H222688   3.053   6.465   5.312 -0.0134  1.9761  0.2199
  425TIP3   OH222689   3.263   1.037   6.275  0.7542  0.3834  1.3720
  425TIP3    H122690   3.239   1.128   6.257 -0.6518 -0.2696 -0.4650
  425TIP3    H222691   3.351   1.027   6.239  0.8626  0.9856  1.4693
  426TIP3   OH222692   0.350   0.371  11.209 -0.0767  0.4854 -0.3340
  426TIP3    H122693   0.368   0.398  11.119  0.3376  1.3505 -0.0106
  426TIP3    H222694   0.316   0.282  11.202  1.8781 -0.2458 -1.1877
  427TIP3   OH222695   0.120   3.537  14.813  0.0568  0.1455  0.2283
  427TIP3    H122696   0.091   3.627  14.799 -0.0187 -0.1241 -1.4572
  427TIP3    H222697   0.073   3.509  14.892 -0.9938  1.1084 -0.0349
  428TIP3   OH222698   3.236   5.107   0.804  0.3634  0.0568  0.4613
  428TIP3    H122699   3.303   5.175   0.815 -0.6293  1.3563 -1.1243
  428TIP3    H222700   3.260   5.063   0.723  0.1563 -0.5164  0.7096
  429TIP3   OH222701   3.035   3.077  10.944 -0.1024 -0.1725 -0.0359
  429TIP3    H122702   2.975   3.114  10.879 -2.7986  0.6503  2.6786
  429TIP3    H222703   3.040   2.984  10.922 -0.4426  0.1826 -1.7454
  430TIP3   OH222704   6.585   6.720  16.458 -0.1167 -0.1133 -0.3791
  430TIP3    H122705   6.503   6.670  16.463 -0.0067 -0.2399  0.2909
  430TIP3    H222706   6.628   6.687  16.379  0.5386 -2.0123  0.6868
  431TIP3   OH222707   2.786   1.541   5.620  0.1240  0.3581  0.5782
  431TIP3    H122708   2.879   1.549   5.643  0.5290 -0.2037 -0.7505
  431TIP3    H222709   2.771   1.611   5.557 -0.5575  0.8806  1.2938
  432TIP3   OH222710   0.126   6.431   4.119 -0.1692  0.3031 -0.4187
  432TIP3    H122711   0.072   6.457   4.193 -1.1166  1.3803 -1.4324
  432TIP3    H222712   0.160   6.345   4.143 -0.6973  0.4877  1.1168
  433TIP3   OH222713   1.275   4.843  11.937  0.4413 -0.0377  0.0347
  433TIP3    H122714   1.267   4.932  11.971  0.7798 -0.6025  1.6787
  433TIP3    H222715   1.353   4.845  11.881 -0.4205  1.0361 -1.1684
  434TIP3   OH222716   3.306   6.369   2.137  0.5680  0.0475  0.7236
  434TIP3    H122717   3.232   6.343   2.192 -0.8357  0.4684 -0.8781
  434TIP3    H222718   3.362   6.291   2.134 -1.3322 -1.3618 -0.4142
  435TIP3   OH222719   0.893   5.705   4.566  1.0063  0.1527 -0.6238
  435TIP3    H122720   0.808   5.663   4.575  0.9523  0.2263 -0.7883
  435TIP3    H222721   0.954   5.647   4.610  0.6914  0.6687  0.5350
  436TIP3   OH222722   4.959   5.982  14.812  0.0369 -0.2717 -0.0852
  436TIP3    H122723   4.974   5.948  14.724  0.5865  0.1360 -0.1545
  436TIP3    H222724   5.035   5.953  14.863 -0.4615 -0.8301  0.3572
  437TIP3   OH222725   3.568   6.358   0.346  0.1158  0.2030 -0.0867
  437TIP3    H122726   3.544   6.324   0.260 -1.8996  1.2109  0.0153
  437TIP3    H222727   3.595   6.448   0.330  0.3114  0.2123  0.2736
  438TIP3   OH222728   2.481   4.563   0.586  0.3483 -0.1354 -0.2512
  438TIP3    H122729   2.504   4.502   0.516  0.9228 -0.0813 -0.1109
  438TIP3    H222730   2.399   4.528   0.622  0.1739 -0.2927 -0.7916
  439TIP3   OH222731   4.947   2.586  15.107  0.4890  0.3895 -0.8710
  439TIP3    H122732   4.906   2.650  15.049 -0.1237 -0.3956 -1.3266
  439TIP3    H222733   4.944   2.504  15.058 -0.6096 -0.4367  0.4990
  440TIP3   OH222734   2.302   3.881   0.976  0.4520 -0.7859  0.0123
  440TIP3    H122735   2.321   3.961   0.928  2.3271 -1.6928 -0.8810
  440TIP3    H222736   2.329   3.899   1.066  0.0059 -0.1419  0.0235
  441TIP3   OH222737   6.465   5.830  16.025  0.2050 -0.1029 -0.2152
  441TIP3    H122738   6.446   5.791  15.940  0.1739 -1.1066  0.2385
  441TIP3    H222739   6.435   5.766  16.089 -0.5234  0.9825  0.5822
  442TIP3   OH222740   2.252   6.615   4.610 -0.5490 -0.1622 -0.0591
  442TIP3    H122741   2.249   6.703   4.572  0.2619 -0.3191 -0.4943
  442TIP3    H222742   2.180   6.568   4.568 -0.0402 -0.1540 -0.9482
  443TIP3   OH222743   3.553   1.872  12.370  0.3234  0.0988 -0.5306
  443TIP3    H122744   3.556   1.943  12.307 -1.2703  2.1672  1.5658
  443TIP3    H222745   3.621   1.811  12.341  2.3755  2.8726 -1.9555
  444TIP3   OH222746   3.358   3.024  14.822  0.1010  0.3528  0.7758
  444TIP3    H122747   3.453   3.040  14.822  0.2696 -0.4759 -0.4375
  444TIP3    H222748   3.325   3.077  14.750 -0.2691  0.1630  0.8077
  445TIP3   OH222749   4.672   5.188  10.604  0.2009 -0.0351  0.2525
  445TIP3    H122750   4.602   5.242  10.568 -0.4363 -1.2551 -0.4192
  445TIP3    H222751   4.628   5.107  10.630  1.4211 -0.9958 -0.5576
  446TIP3   OH222752   4.363   3.915   4.165 -0.0914  0.5266  0.0956
  446TIP3    H122753   4.363   3.822   4.190 -0.5617  0.2807 -0.7959
  446TIP3    H222754   4.414   3.958   4.234 -0.2188 -0.3309  0.7425
  447TIP3   OH222755   6.290   1.541  11.198 -0.3444 -0.3561 -0.0982
  447TIP3    H122756   6.288   1.461  11.251  2.1519 -0.1431  0.4491
  447TIP3    H222757   6.237   1.603  11.246  1.9371 -0.1377  2.3605
  448TIP3   OH222758   0.254   2.585  11.146 -0.0833  0.2109  0.1368
  448TIP3    H122759   0.311   2.561  11.073  1.5301  1.2151  1.0145
  448TIP3    H222760   0.201   2.507  11.162  1.5061 -0.9973 -0.2897
  449TIP3   OH222761   0.894   2.239  14.014 -0.7010  0.2809 -0.0772
  449TIP3    H122762   0.958   2.235  14.085 -0.3824 -0.9239 -0.4030
  449TIP3    H222763   0.947   2.244  13.934 -0.9751 -1.2166 -0.3786
  450TIP3   OH222764   2.516   4.997  13.787  0.0552 -0.6871 -0.1957
  450TIP3    H122765   2.480   4.951  13.712 -2.7048  0.1687  0.4867
  450TIP3    H222766   2.483   5.087  13.778 -1.2017 -0.7806  2.4427
  451TIP3   OH222767   0.122   6.581   1.599 -0.5160 -0.3630 -0.4635
  451TIP3    H122768   0.164   6.530   1.667 -0.2107 -2.0789 -1.8827
  451TIP3    H222769   0.041   6.614   1.640  0.2925 -0.2223  1.0920
  452TIP3   OH222770   4.160   5.662  15.298  0.1242  0.1316  0.3513
  452TIP3    H122771   4.185   5.748  15.332  2.4070 -0.9175  1.5861
  452TIP3    H222772   4.217   5.649  15.222  1.2429 -1.0332  1.3370
  453TIP3   OH222773   2.823   2.733  15.682 -0.8114 -0.0239  0.4294
  453TIP3    H122774   2.907   2.705  15.645 -2.4694 -2.4812 -1.8325
  453TIP3    H222775   2.847   2.798  15.749  2.7062  1.4145 -1.9065
  454TIP3   OH222776   6.389   0.684   0.349  0.4116  0.2045 -0.2035
  454TIP3    H122777   6.373   0.771   0.387 -2.5485 -0.7244  0.9196
  454TIP3    H222778   6.384   0.624   0.423 -5.3184 -1.6603 -1.6344
  455TIP3   OH222779   0.741   4.245  14.150 -0.0244  0.3430 -0.5221
  455TIP3    H122780   0.816   4.305  14.150 -0.0309  0.3510 -0.5249
  455TIP3    H222781   0.778   4.160  14.174 -0.2971  0.6974  1.2701
  456TIP3   OH222782   5.696   4.409  16.836  0.7768 -0.0871  0.6453
  456TIP3    H122783   5.665   4.332  16.884  1.0081 -1.7042 -1.6617
  456TIP3    H222784   5.657   4.400  16.749 -0.3887  3.2306  0.7019
  457TIP3   OH222785   1.130   6.391  11.368 -0.1482 -0.0086 -0.0318
  457TIP3    H122786   1.072   6.419  11.439 -0.6247  0.8675 -0.7434
  457TIP3    H222787   1.181   6.320  11.406 -0.4473  0.3836  1.1622
  458TIP3   OH222788   5.434   4.284  13.581  0.1744  0.3444 -0.2571
  458TIP3    H122789   5.502   4.300  13.646  2.4528 -1.5082 -2.0006
  458TIP3    H222790   5.416   4.370  13.544 -1.0309  1.4195  2.5329
  459TIP3   OH222791   3.517   5.495   2.753  0.6437 -0.1961 -0.3133
  459TIP3    H122792   3.504   5.581   2.793  0.4581 -0.4213  0.1096
  459TIP3    H222793   3.513   5.433   2.826  0.3658 -0.6027 -0.6701
  460TIP3   OH222794   6.428   2.863   1.075  0.4732  0.4725  0.5280
  460TIP3    H122795   6.370   2.859   1.151 -0.7456 -0.2090 -0.4012
  460TIP3    H222796   6.445   2.957   1.063 -1.5824  0.8326  0.0187
  461TIP3   OH222797   4.445   0.075   1.543 -0.6177  0.1465 -0.4294
  461TIP3    H122798   4.373   0.128   1.577 -0.3416 -0.0888  0.5813
  461TIP3    H222799   4.439  -0.008   1.591  1.1867  0.6574  0.8266
  462TIP3   OH222800   4.217   6.075  11.887 -0.3989  0.1741  0.0706
  462TIP3    H122801   4.286   6.119  11.937 -1.9222  2.3761  0.3646
  462TIP3    H222802   4.224   5.983  11.914  2.3700  0.2997  0.0845
  463TIP3   OH222803   1.222   3.600   5.491 -0.1245  0.6400 -0.7055
  463TIP3    H122804   1.160   3.669   5.468 -0.4578  1.1939  1.5936
  463TIP3    H222805   1.277   3.639   5.559  2.7202  0.1130 -2.5689
  464TIP3   OH222806   1.757   5.977   1.617  0.2386 -0.2471 -0.5409
  464TIP3    H122807   1.780   5.923   1.692 -1.5282 -0.7120 -0.3052
  464TIP3    H222808   1.702   5.921   1.562 -1.3318  1.1762 -0.4744
  465TIP3   OH222809   2.827   0.774   4.131 -0.3822 -0.0014  0.0305
  465TIP3    H122810   2.731   0.781   4.133 -0.2549  3.0140  0.7089
  465TIP3    H222811   2.851   0.811   4.046  0.1996 -1.4702 -0.4778
  466TIP3   OH222812   4.405   5.894  14.232  0.2757 -0.9374 -0.2397
  466TIP3    H122813   4.471   5.936  14.288 -1.2576  0.6002  0.5049
  466TIP3    H222814   4.389   5.809  14.274 -0.3888 -0.0756  1.3523
  467TIP3   OH222815   1.301   3.321  12.998  0.3282 -0.3555  0.4272
  467TIP3    H122816   1.228   3.296  13.055 -0.8594 -0.4632 -1.0889
  467TIP3    H222817   1.262   3.330  12.912  2.0855 -0.1701 -0.3846
  468TIP3   OH222818   5.319   2.170   2.186  0.1576 -0.1440  0.9222
  468TIP3    H122819   5.413   2.155   2.190 -0.0537 -2.6759 -0.8229
  468TIP3    H222820   5.305   2.213   2.102 -0.2295  0.7619  1.4326
  469TIP3   OH222821   4.379   6.592   5.857  0.1249 -0.5655  0.0111
  469TIP3    H122822   4.382   6.586   5.761 -1.2247  1.9670 -0.2892
  469TIP3    H222823   4.308   6.533   5.882 -0.9486  0.3121 -0.8220
  470TIP3   OH222824   5.690   0.296  15.647  0.1723  0.6272 -0.1043
  470TIP3    H122825   5.653   0.272  15.732  1.1816 -0.2296  0.1192
  470TIP3    H222826   5.622   0.348  15.605 -1.2073 -0.6946  0.3642
  471TIP3   OH222827   2.620   0.277   1.940  0.2650  0.1910  0.0692
  471TIP3    H122828   2.615   0.283   1.845 -0.7843  1.7673  0.1769
  471TIP3    H222829   2.600   0.185   1.960 -1.3258  0.2208 -1.1697
  472TIP3   OH222830   3.457   2.112  14.177 -0.6417 -0.2571  0.2326
  472TIP3    H122831   3.505   2.148  14.102  1.6929 -3.2228  0.1377
  472TIP3    H222832   3.368   2.101  14.145 -0.0408 -0.0753 -1.6215
  473TIP3   OH222833   2.725   4.236   3.847 -0.1680 -0.0574 -0.0096
  473TIP3    H122834   2.676   4.172   3.899  1.5213 -0.7195  0.8621
  473TIP3    H222835   2.673   4.316   3.852 -0.9640 -0.6195  1.1753
  474TIP3   OH222836   1.936   2.758   1.241  0.1674  0.4158 -0.1097
  474TIP3    H122837   1.864   2.695   1.229 -1.8329  2.7415 -1.2012
  474TIP3    H222838   1.992   2.745   1.165 -0.7612  0.5698 -0.8470
  475TIP3   OH222839   3.887   1.504   4.358  0.2575  0.3459  0.8178
  475TIP3    H122840   3.809   1.479   4.308  0.1132  0.3792  1.0264
  475TIP3    H222841   3.905   1.428   4.414  0.7822  0.0569  0.2791
  476TIP3   OH222842   3.333   4.230  12.944  0.0511 -0.1782  1.2085
  476TIP3    H122843   3.392   4.305  12.941  0.7919 -0.7725  0.5062
  476TIP3    H222844   3.267   4.249  12.877  0.0600 -0.0153  1.2455
  477TIP3   OH222845   6.520   6.485   4.516  0.2026  0.8342  0.4573
  477TIP3    H122846   6.504   6.537   4.438 -1.5959  1.8783  1.4603
  477TIP3    H222847   6.544   6.549   4.583 -0.5939  0.2237  1.3481
  478TIP3   OH222848   4.406   1.369   2.825  0.3456  0.0701 -0.1091
  478TIP3    H122849   4.446   1.411   2.749 -0.1594 -0.5577 -0.7352
  478TIP3    H222850   4.459   1.399   2.899  2.1066 -0.8685 -0.9129
  479TIP3   OH222851   2.180   2.541   0.689 -0.3572 -0.7233  0.0840
  479TIP3    H122852   2.165   2.621   0.738  0.4500  0.1794 -1.1035
  479TIP3    H222853   2.104   2.534   0.630  0.2481 -0.0675 -0.7917
  480TIP3   OH222854   1.649   4.134  11.777  0.2090  0.0142 -0.5189
  480TIP3    H122855   1.711   4.128  11.704  0.8144 -1.4808  0.0926
  480TIP3    H222856   1.666   4.056  11.830 -2.2343 -0.4764 -0.3563
  481TIP3   OH222857   5.691   1.271   1.462 -0.0103  0.0780 -0.1600
  481TIP3    H122858   5.657   1.183   1.476  0.3058 -0.1574 -0.8453
  481TIP3    H222859   5.748   1.287   1.537 -0.2132 -0.2215  0.0624
  482TIP3   OH222860   4.132   1.669  16.675  0.1122  0.5136  0.5613
  482TIP3    H122861   4.117   1.745  16.732  0.5499  0.9338  0.1353
  482TIP3    H222862   4.093   1.695  16.591 -0.4847 -0.0799  0.6455
  483TIP3   OH222863   4.438   3.059   2.610  0.4926 -0.1693 -0.3019
  483TIP3    H122864   4.470   2.971   2.626  0.2943  0.0708  1.6127
  483TIP3    H222865   4.516   3.110   2.591  0.9839 -0.1458  1.6399
  484TIP3   OH222866   2.835   2.205  11.451 -0.0318  0.2636  0.4069
  484TIP3    H122867   2.819   2.294  11.480 -0.6949  1.0117 -2.0247
  484TIP3    H222868   2.931   2.196  11.450  0.0346  0.2186  2.5142
  485TIP3   OH222869   2.500   2.335   5.225  0.0896  0.2121  0.6117
  485TIP3    H122870   2.434   2.376   5.168  0.6100 -0.5584 -0.5876
  485TIP3    H222871   2.542   2.409   5.269  1.1878  1.0749 -1.7189
  486TIP3   OH222872   6.332   4.762  14.266 -0.2411 -0.1648  0.0678
  486TIP3    H122873   6.354   4.824  14.196 -1.2324 -0.5412 -0.5899
  486TIP3    H222874   6.407   4.767  14.325 -0.1309  1.4013 -0.1482
  487TIP3   OH222875   6.618   2.596  16.993 -0.3989 -0.5992 -0.1384
  487TIP3    H122876   6.581   2.679  16.961  1.4729  0.1740 -0.4514
  487TIP3    H222877   6.627   2.609  17.088  0.0731 -0.3588 -0.2134
  488TIP3   OH222878   1.307   5.151  14.285 -0.0549  0.0396  0.2061
  488TIP3    H122879   1.229   5.131  14.234 -1.2691  0.7973  1.6731
  488TIP3    H222880   1.302   5.245  14.301  1.6725  0.2803 -0.4310
  489TIP3   OH222881   2.376   5.676  13.365 -0.0797  0.3833 -0.2409
  489TIP3    H122882   2.370   5.766  13.332  0.6491 -0.1053 -1.8013
  489TIP3    H222883   2.375   5.686  13.460 -3.4840  1.7780 -0.2673
  490TIP3   OH222884   1.817   0.474  11.883  0.0173  0.1090  0.3973
  490TIP3    H122885   1.873   0.488  11.959  0.9344 -1.7532  0.1269
  490TIP3    H222886   1.809   0.378  11.876 -3.2220  0.2624  0.4094
  491TIP3   OH222887   5.656   6.641  13.650 -0.1412  0.2078 -0.1994
  491TIP3    H122888   5.668   6.730  13.682 -1.0938  0.6457 -1.0086
  491TIP3    H222889   5.657   6.587  13.729  1.0120  0.8534  0.2545
  492TIP3   OH222890   2.812   4.163   6.414 -0.0384  0.5958  0.2327
  492TIP3    H122891   2.732   4.110   6.418 -1.2579  2.1932 -1.2945
  492TIP3    H222892   2.815   4.209   6.498 -0.3817  0.0547  0.5468
  493TIP3   OH222893   4.595   4.696   5.464  0.3908  0.6356 -0.4222
  493TIP3    H122894   4.616   4.754   5.391 -2.0927  1.0898 -0.8577
  493TIP3    H222895   4.528   4.637   5.430  0.9128 -0.7439  0.8148
  494TIP3   OH222896   2.552   0.412   5.534  0.0507 -0.1413 -0.6984
  494TIP3    H122897   2.548   0.490   5.589 -1.1509  0.1880 -1.2288
  494TIP3    H222898   2.488   0.352   5.572  1.6881 -1.3159  0.3265
  495TIP3   OH222899   6.415   0.775  14.820  0.7119 -0.2479 -0.5274
  495TIP3    H122900   6.452   0.718  14.753 -1.0564 -1.6191 -0.4140
  495TIP3    H222901   6.327   0.740  14.836  0.0395  1.7337  0.5028
  496TIP3   OH222902   4.395   2.810  11.533  0.1567  0.2154  0.0319
  496TIP3    H122903   4.350   2.776  11.610 -1.9651  0.7878 -0.8755
  496TIP3    H222904   4.339   2.785  11.459  1.0513  1.4730 -1.1309
  497TIP3   OH222905   3.188   4.702   6.503  0.4972 -0.1237 -0.0998
  497TIP3    H122906   3.115   4.698   6.441 -0.7069  0.8405  1.1836
  497TIP3    H222907   3.184   4.791   6.539  2.6969  0.1524 -0.3981
  498TIP3   OH222908   2.785   1.586   0.001  0.4811  0.6088 -0.3946
  498TIP3    H122909   2.790   1.620   0.090  2.6278 -0.9589  0.1790
  498TIP3    H222910   2.869   1.611  -0.039  1.1595 -1.8398 -0.6843
  499TIP3   OH222911   4.194   1.016  16.964  0.3617 -0.1049 -0.0548
  499TIP3    H122912   4.167   0.950  17.027 -0.0979  0.4984  0.3902
  499TIP3    H222913   4.190   1.099  17.012 -2.0600  0.6531 -1.3851
  500TIP3   OH222914   0.082   1.265  15.898  0.1633 -0.2937  0.1266
  500TIP3    H122915   0.106   1.240  15.987  0.5503 -0.5235 -0.0375
  500TIP3    H222916  -0.011   1.244  15.891  0.5266 -1.9764 -0.0857
  501TIP3   OH222917   4.774   6.129   0.773  0.3635  0.0932  0.0233
  501TIP3    H122918   4.806   6.135   0.863 -0.8554 -0.3028  0.5061
  501TIP3    H222919   4.681   6.110   0.782  0.2387 -0.0444 -1.3328
  502TIP3   OH222920   2.682   6.688   4.117 -0.2012 -0.1708 -0.1397
  502TIP3    H122921   2.674   6.761   4.055  0.8112 -0.4891 -0.6801
  502TIP3    H222922   2.605   6.634   4.100  0.1435 -0.3462 -1.2742
  503TIP3   OH222923   3.112   5.417  15.539 -0.3882  0.0124 -0.0788
  503TIP3    H122924   3.030   5.368  15.546 -0.5667  0.4536  1.2107
  503TIP3    H222925   3.155   5.404  15.624  0.7691 -0.0108 -0.6460
  504TIP3   OH222926   5.758   0.385  12.375  0.8027 -0.0355 -0.0093
  504TIP3    H122927   5.719   0.325  12.312 -0.7669 -0.8134  1.6155
  504TIP3    H222928   5.695   0.457  12.383  0.2290 -0.6842  1.7297
  505TIP3   OH222929   6.284   1.792  12.478 -0.4389  0.8060  0.1725
  505TIP3    H122930   6.361   1.835  12.441 -0.9437  0.0730 -1.8706
  505TIP3    H222931   6.317   1.745  12.555  1.0073  1.0704 -0.2650
  506TIP3   OH222932   2.870   0.720  15.487  0.6020 -0.6525 -0.0503
  506TIP3    H122933   2.883   0.703  15.580  1.3416  1.6039  0.3184
  506TIP3    H222934   2.824   0.643  15.454 -1.2403 -0.7889  2.5447
  507TIP3   OH222935   4.471   6.385   0.196 -0.6558  0.0001  0.1382
  507TIP3    H122936   4.535   6.314   0.208 -1.4281 -0.9018 -0.8402
  507TIP3    H222937   4.386   6.345   0.214 -1.1910  0.4088 -1.3002
  508TIP3   OH222938   6.163   3.996   3.853 -0.0284 -0.2214  0.6538
  508TIP3    H122939   6.099   3.958   3.913 -1.6720  1.5697  0.1290
  508TIP3    H222940   6.244   3.999   3.903 -1.0712  0.1420  2.3810
  509TIP3   OH222941   5.097   6.610   4.632 -0.1658 -0.1034  0.7658
  509TIP3    H122942   5.176   6.565   4.662  0.1969 -0.0670 -0.0857
  509TIP3    H222943   5.027   6.545   4.643  0.6859 -1.8346 -2.5401
  510TIP3   OH222944   3.124   3.649   4.769  0.1755  0.5797  0.5823
  510TIP3    H122945   3.050   3.653   4.709  0.7034 -0.8874 -0.2268
  510TIP3    H222946   3.088   3.613   4.850  0.0999 -0.7245 -0.0120
  511TIP3   OH222947   3.245   2.321   3.733 -0.3712 -0.1592  0.5018
  511TIP3    H122948   3.236   2.353   3.643 -0.1055  0.5734  0.7262
  511TIP3    H222949   3.169   2.357   3.779 -0.6314 -0.7231  0.5240
  512TIP3   OH222950   0.980   0.802  14.149  0.4217  0.2162  0.1349
  512TIP3    H122951   1.027   0.719  14.157  0.5681  0.1063 -1.4379
  512TIP3    H222952   0.897   0.788  14.194 -0.9415 -1.9296 -2.7258
  513TIP3   OH222953   4.004   2.721  13.742 -0.5791 -0.2307 -0.4681
  513TIP3    H122954   4.061   2.645  13.734 -1.3387 -1.5250  3.7829
  513TIP3    H222955   4.064   2.795  13.747  0.4140 -0.9854 -0.9097
  514TIP3   OH222956   4.490   0.038   1.245 -0.3530 -0.1349  0.3978
  514TIP3    H122957   4.574   0.004   1.275 -0.9594 -1.2333  0.9431
  514TIP3    H222958   4.433   0.033   1.322 -1.0230  0.1924 -0.0645
  515TIP3   OH222959   1.693   5.320  14.680  0.4106  0.0742 -0.3279
  515TIP3    H122960   1.726   5.252  14.738  1.1690  1.3266  0.7621
  515TIP3    H222961   1.771   5.356  14.638 -0.1144 -0.7733 -2.1400
  516TIP3   OH222962   3.504   0.835  17.108 -0.2965  0.5341  0.1909
  516TIP3    H122963   3.599   0.834  17.102 -0.1808  0.9910  1.6233
  516TIP3    H222964   3.474   0.842  17.017  1.0323  0.8483 -0.2380
  517TIP3   OH222965   6.070   4.569  11.650 -0.1935  0.0315  0.1243
  517TIP3    H122966   6.109   4.547  11.735 -0.4257  0.3577  0.3147
  517TIP3    H222967   6.026   4.653  11.664 -0.5351 -0.0861 -0.2273
  518TIP3   OH222968   5.261   1.521  11.750  0.0947 -0.2206  0.4758
  518TIP3    H122969   5.276   1.472  11.830 -1.5181  1.6439  2.0184
  518TIP3    H222970   5.186   1.578  11.769 -0.0797  0.6310 -2.2022
  519TIP3   OH222971   6.345   5.547  13.033  0.1794  0.3397 -0.0271
  519TIP3    H122972   6.342   5.634  12.993  2.0403 -0.7308 -2.8023
  519TIP3    H222973   6.437   5.521  13.026 -0.0437 -1.2756  2.1315
  520TIP3   OH222974   5.521   4.264  12.394  0.1076 -0.5743  0.2918
  520TIP3    H122975   5.590   4.197  12.389 -1.2224 -1.8833 -2.2692
  520TIP3    H222976   5.462   4.231  12.462  0.9540 -0.4293  1.1303
  521TIP3   OH222977   5.223   5.995   1.875 -0.7672  0.3474 -0.1209
  521TIP3    H122978   5.262   6.002   1.788 -1.9307 -0.1647 -0.7080
  521TIP3    H222979   5.137   6.035   1.865 -0.4311  1.4216  1.1315
  522TIP3   OH222980   4.425   3.561   1.509  0.0727 -0.0955  0.2593
  522TIP3    H122981   4.351   3.619   1.490  0.3323 -0.0710 -0.7588
  522TIP3    H222982   4.400   3.515   1.589 -0.0936  1.5074  1.1819
  523TIP3   OH222983   1.751   5.687   1.086  0.1857  0.3474 -0.3636
  523TIP3    H122984   1.739   5.716   0.995 -0.9403 -1.3400 -0.7938
  523TIP3    H222985   1.811   5.613   1.079 -0.0017  0.1367  0.2550
  524TIP3   OH222986   4.417   3.951  11.177 -0.0423  0.3713 -0.4830
  524TIP3    H122987   4.484   3.891  11.143 -1.0390 -0.5215 -0.9372
  524TIP3    H222988   4.400   3.921  11.266  0.7495  1.1180 -0.0766
  525TIP3   OH222989   3.549   6.739   3.071  0.6959 -0.5575 -0.7268
  525TIP3    H122990   3.489   6.800   3.114 -0.1985  0.0710 -2.7199
  525TIP3    H222991   3.631   6.747   3.119 -0.2566  0.0181  0.8618
  526TIP3   OH222992   1.571   0.032   0.819 -0.1288  0.1899  0.2295
  526TIP3    H122993   1.640   0.021   0.884  1.6590  0.8019 -1.4548
  526TIP3    H222994   1.499   0.075   0.866  1.0062  0.4230  1.8174
  527TIP3   OH222995   0.919   4.967  14.893 -0.2351  0.1144  0.7115
  527TIP3    H122996   0.940   4.963  14.986 -0.0751 -1.2026  0.6449
  527TIP3    H222997   0.935   4.878  14.861  1.5656  0.9767 -0.9951
  528TIP3   OH222998   6.452   2.642   4.705  0.2785  0.1663 -0.3769
  528TIP3    H122999   6.531   2.685   4.737 -0.0886 -0.7055  1.9314
  528TIP3    H223000   6.483   2.584   4.636  1.7405 -0.3868  0.6819
  529TIP3   OH223001   3.646   3.227   3.247 -0.3802  0.3182  0.0223
  529TIP3    H123002   3.615   3.156   3.304 -0.2135  1.0962  1.1113
  529TIP3    H223003   3.741   3.213   3.242 -0.5459 -0.5499 -1.2133
  530TIP3   OH223004   4.889   3.291  14.630 -0.1711  0.9105 -0.2981
  530TIP3    H123005   4.870   3.365  14.573  1.3410  1.4268 -0.1817
  530TIP3    H223006   4.984   3.281  14.626 -0.2667 -0.5381  0.3033
  531TIP3   OH223007   0.543   4.366  15.124  0.2040  0.2936  0.1353
  531TIP3    H123008   0.507   4.278  15.134  2.3004 -0.8514 -1.6132
  531TIP3    H223009   0.485   4.409  15.062  1.5220 -1.4735 -2.5459
  532TIP3   OH223010   5.168   2.421  15.512  0.3502 -0.1963 -0.5472
  532TIP3    H123011   5.117   2.458  15.440  1.7615 -2.0388 -2.5970
  532TIP3    H223012   5.258   2.445  15.493  0.7958 -1.0422  0.3960
  533TIP3   OH223013   3.409   0.940  11.086  0.4063 -0.4213  0.2100
  533TIP3    H123014   3.371   0.893  11.012  0.7729 -0.1163 -0.1711
  533TIP3    H223015   3.375   0.894  11.163  1.4646 -1.8815 -0.1514
  534TIP3   OH223016   2.112   5.555  10.660 -0.3913  0.0955  0.0347
  534TIP3    H123017   2.145   5.465  10.669  1.5652  0.7932  0.4283
  534TIP3    H223018   2.036   5.547  10.602 -0.4227 -1.8361  0.2643
  535TIP3   OH223019   4.662   3.984  12.947 -0.2667  0.1129  0.0468
  535TIP3    H123020   4.683   3.919  12.880  0.2655 -0.5039  0.7786
  535TIP3    H223021   4.581   4.025  12.917  2.0012  2.7889 -3.0696
  536TIP3   OH223022   1.232   1.598  12.407 -0.7560  0.1570  0.2839
  536TIP3    H123023   1.160   1.627  12.353  0.9064  3.1822 -0.5432
  536TIP3    H223024   1.309   1.643  12.372  1.2718 -1.6056  2.1147
  537TIP3   OH223025   3.329   0.369  16.819 -0.2998 -0.3479  0.0966
  537TIP3    H123026   3.268   0.413  16.878 -2.4509 -2.1290 -0.6796
  537TIP3    H223027   3.393   0.437  16.797 -1.3897  1.3254  1.7631
  538TIP3   OH223028   6.016   1.390   4.344  0.2835  0.1592 -0.1784
  538TIP3    H123029   6.083   1.448   4.309  1.3346 -1.4411 -0.8943
  538TIP3    H223030   6.029   1.393   4.439  3.4446 -2.3434 -0.3420
  539TIP3   OH223031   3.677   5.192  13.136 -0.3753  0.2941  0.2057
  539TIP3    H123032   3.647   5.106  13.167 -0.3440  0.1302 -0.2196
  539TIP3    H223033   3.772   5.184  13.131 -0.5152 -1.3538 -4.6425
  540TIP3   OH223034   5.826   1.536   2.551 -0.1822 -0.4072 -0.2921
  540TIP3    H123035   5.909   1.573   2.518  0.0237  2.1651  2.6849
  540TIP3    H223036   5.852   1.456   2.597  0.0627 -1.6480 -2.4440
  541TIP3   OH223037   4.768   3.991   3.737 -0.0149 -0.0917 -0.3358
  541TIP3    H123038   4.842   3.978   3.678 -0.9684  1.9989 -2.1087
  541TIP3    H223039   4.703   4.037   3.685 -2.6860 -1.9497  1.0899
  542TIP3   OH223040   1.393   4.792   2.930  0.4839 -0.1615  0.2801
  542TIP3    H123041   1.365   4.842   2.854  0.1846  0.3219  0.7056
  542TIP3    H223042   1.327   4.723   2.940  0.2085  0.1254  0.4452
  543TIP3   OH223043   3.738   0.996   3.774 -0.0491 -0.6719 -0.1209
  543TIP3    H123044   3.687   0.915   3.767 -1.3363  0.0876  0.1942
  543TIP3    H223045   3.813   0.971   3.828 -0.2206 -1.7538 -0.3450
  544TIP3   OH223046   6.693   2.544  16.045  0.0661 -0.1947  0.0005
  544TIP3    H123047   6.614   2.590  16.018 -1.5478 -2.2550  1.0072
  544TIP3    H223048   6.759   2.570  15.979 -2.2614 -0.9433 -2.8373
  545TIP3   OH223049   3.268   0.542  14.823 -0.0016  0.1265  0.0847
  545TIP3    H123050   3.210   0.558  14.749  0.3145 -0.0323 -0.1958
  545TIP3    H223051   3.343   0.600  14.808  0.8126 -1.0450 -0.5575
  546TIP3   OH223052   4.576   1.199   2.284  0.3230  0.4517  0.1784
  546TIP3    H123053   4.633   1.158   2.349 -0.5480 -0.0659  0.6412
  546TIP3    H223054   4.517   1.128   2.256  0.2772  0.8290 -0.7082
  547TIP3   OH223055   3.955   4.498   0.300  0.1620 -0.1019  0.5521
  547TIP3    H123056   3.963   4.585   0.262  1.5966 -0.7015 -0.6729
  547TIP3    H223057   3.861   4.480   0.301 -0.1892  1.5811  1.2069
  548TIP3   OH223058   2.993   5.965   6.347 -0.0613 -0.1461 -0.6072
  548TIP3    H123059   2.961   5.892   6.400  0.4922  0.6998  0.9382
  548TIP3    H223060   2.984   6.042   6.403 -0.4587  0.9747 -2.1343
  549TIP3   OH223061   1.430   1.803   3.977  0.4436  0.5599  0.6187
  549TIP3    H123062   1.382   1.881   3.950  0.1613  0.8486  1.8994
  549TIP3    H223063   1.518   1.817   3.942 -0.7156 -0.9064 -3.5604
  550TIP3   OH223064   6.353   4.835  12.359  0.0628  0.2720  0.6618
  550TIP3    H123065   6.276   4.780  12.375  1.1514 -1.6634 -0.3902
  550TIP3    H223066   6.404   4.828  12.440  1.7275 -3.0248 -0.4809
  551TIP3   OH223067   2.415   1.607   4.958  0.2723  0.5860 -0.2144
  551TIP3    H123068   2.504   1.580   4.937 -0.1527 -0.6311 -0.5546
  551TIP3    H223069   2.360   1.554   4.901 -0.7748 -0.4428  1.6569
  552TIP3   OH223070   5.722   6.054   3.430 -0.7447 -0.7709 -0.0887
  552TIP3    H123071   5.735   6.067   3.337 -2.0065 -2.7006 -0.5884
  552TIP3    H223072   5.628   6.039   3.440 -0.6550 -0.5354  1.5173
  553TIP3   OH223073   4.536   5.643   4.829  0.0350  0.2567  0.5362
  553TIP3    H123074   4.488   5.569   4.792  1.6505  1.1761 -3.9397
  553TIP3    H223075   4.502   5.719   4.783  0.4413  2.0180  2.9460
  554TIP3   OH223076   0.946   4.223   5.528 -0.1696 -0.5282  0.3496
  554TIP3    H123077   1.003   4.251   5.456 -0.9366  1.9182  0.6170
  554TIP3    H223078   0.977   4.272   5.604 -2.1626  0.3321  0.6534
  555TIP3   OH223079   1.542   5.971  13.141 -0.2372  0.3404 -0.4375
  555TIP3    H123080   1.456   5.958  13.102  0.3042  0.0095 -1.5369
  555TIP3    H223081   1.599   5.992  13.068  0.9361 -0.9326  0.0712
  556TIP3   OH223082   2.738   5.646  11.113 -0.0912  1.1042  0.2522
  556TIP3    H123083   2.695   5.722  11.153 -0.7168  0.6698  0.4105
  556TIP3    H223084   2.691   5.632  11.031 -0.5439  0.3521  0.6355
  557TIP3   OH223085   1.094   5.060  14.135 -0.3373  0.1322  0.1411
  557TIP3    H123086   1.041   5.069  14.214  0.0646 -0.0533  0.4284
  557TIP3    H223087   1.040   5.006  14.077 -0.7615  0.5168  0.1693
  558TIP3   OH223088   4.771   4.337   2.576  0.7992  0.3278 -0.4896
  558TIP3    H123089   4.710   4.357   2.505  1.2239  0.0972 -0.9259
  558TIP3    H223090   4.723   4.360   2.656  0.4221  0.8566 -0.8615
  559TIP3   OH223091   6.461   2.041   5.031  0.7147  0.4740  0.1034
  559TIP3    H123092   6.382   2.040   5.086 -0.0984 -0.4184 -1.0243
  559TIP3    H223093   6.513   1.968   5.063  0.6720  0.5214  0.2823
  560TIP3   OH223094   6.485   1.918   4.661 -0.1562 -0.2404 -0.2337
  560TIP3    H123095   6.501   2.006   4.626  0.8935 -0.4066 -0.2082
  560TIP3    H223096   6.568   1.873   4.651 -0.6200 -1.1660 -0.0240
  561TIP3   OH223097   2.552   5.469  14.744  0.2400 -0.5665  0.3600
  561TIP3    H123098   2.641   5.464  14.781 -0.4605 -1.9809  1.9913
  561TIP3    H223099   2.511   5.542  14.791  0.2506 -0.4993  0.2646
  562TIP3   OH223100   5.488   3.449   0.235 -0.3212 -0.5807 -0.0022
  562TIP3    H123101   5.566   3.430   0.287  2.2418 -0.9827 -3.6299
  562TIP3    H223102   5.500   3.540   0.208 -0.6796 -0.8899 -1.2269
  563TIP3   OH223103   4.186   5.044  10.811 -0.2868  0.0240  1.1184
  563TIP3    H123104   4.099   5.024  10.847 -0.4967  0.0356  0.6301
  563TIP3    H223105   4.175   5.130  10.770 -0.4880 -0.6496 -0.3334
  564TIP3   OH223106   4.202   3.588   2.947 -0.5532  0.2029  0.6820
  564TIP3    H123107   4.169   3.498   2.943  1.0984 -0.4032 -0.5353
  564TIP3    H223108   4.125   3.642   2.963 -1.5769 -1.4272  1.4914
  565TIP3   OH223109   4.166   3.383  12.761 -0.6337 -0.0724  0.4004
  565TIP3    H123110   4.187   3.409  12.851 -2.2378  1.2594  0.4337
  565TIP3    H223111   4.156   3.288  12.765  2.1245 -0.4370  0.9875
  566TIP3   OH223112   4.905   4.037   5.356  0.5143  0.2454  0.0874
  566TIP3    H123113   4.975   3.993   5.309  0.3542  0.9122 -0.7835
  566TIP3    H223114   4.932   4.128   5.362 -0.3853  0.5637 -0.4789
  567TIP3   OH223115   5.486   1.064  12.136 -0.3811  0.3914  0.4204
  567TIP3    H123116   5.534   1.141  12.103 -1.2714  1.4804  1.5937
  567TIP3    H223117   5.398   1.096  12.152 -0.7751 -0.8964  0.9112
  568TIP3   OH223118   0.945   1.404  14.636  0.7704  0.2504  0.3877
  568TIP3    H123119   0.990   1.353  14.704  1.9660  1.0074  0.2068
  568TIP3    H223120   0.954   1.352  14.556  2.8788  1.1453 -0.0179
  569TIP3   OH223121   4.414   1.910  16.846  0.1652  0.0871  0.0544
  569TIP3    H123122   4.432   1.817  16.836  0.2140 -0.0504  1.3505
  569TIP3    H223123   4.387   1.921  16.937 -1.4758  1.0902 -0.5020
  570TIP3   OH223124   2.883   2.761   1.057 -0.2902  0.5944 -0.3200
  570TIP3    H123125   2.870   2.675   1.016 -1.2227  1.5851 -2.2334
  570TIP3    H223126   2.798   2.783   1.095 -0.1284  0.8034 -0.0751
  571TIP3   OH223127   3.403   6.141   1.234 -0.5618 -0.5890 -0.0320
  571TIP3    H123128   3.327   6.089   1.209 -0.5844 -0.4961 -0.1555
  571TIP3    H223129   3.384   6.172   1.322 -0.9838  0.0295 -0.3331
  572TIP3   OH223130   6.620   2.978  13.264  0.5346 -0.6114 -0.3425
  572TIP3    H123131   6.671   2.911  13.221  0.5935 -0.6038 -0.2851
  572TIP3    H223132   6.641   3.059  13.218  0.9714 -0.5199  0.0083
  573TIP3   OH223133   2.668   0.169  14.486  0.2737 -0.0510 -0.4247
  573TIP3    H123134   2.640   0.150  14.396 -1.3084  0.2300 -0.0231
  573TIP3    H223135   2.628   0.100  14.539 -0.2634  0.7702  0.2652
  574TIP3   OH223136   4.870   3.769   6.958  0.4082  0.5205 -0.2117
  574TIP3    H123137   4.872   3.863   6.975 -1.5641  0.8644 -1.6358
  574TIP3    H223138   4.942   3.754   6.897 -0.1461  1.3633 -1.0934
  575TIP3   OH223139   6.321   2.369  14.103  0.0360  0.3434  0.1122
  575TIP3    H123140   6.415   2.363  14.087 -0.0233 -1.9158  0.1790
  575TIP3    H223141   6.313   2.407  14.190  0.9978 -1.0947  0.8729
  576TIP3   OH223142   3.342   1.336   2.527 -0.1727  0.4475  0.3551
  576TIP3    H123143   3.367   1.397   2.458  0.6036  1.2685  1.3333
  576TIP3    H223144   3.387   1.254   2.504 -1.9348 -0.0986 -1.4457
  577TIP3   OH223145   1.849   3.743  15.729 -0.1537 -0.0314  0.0308
  577TIP3    H123146   1.855   3.832  15.763 -2.3861  0.6003 -1.0500
  577TIP3    H223147   1.898   3.746  15.646  1.2920 -0.3144  0.8566
  578TIP3   OH223148   0.186   1.064   0.431 -0.0831 -0.4954 -0.3083
  578TIP3    H123149   0.196   1.124   0.504  0.1505  1.2086 -1.6935
  578TIP3    H223150   0.168   0.979   0.472  1.8090  0.0169  1.7662
  579TIP3   OH223151   0.140   2.413  14.395 -0.0811  0.4303 -0.0899
  579TIP3    H123152   0.139   2.488  14.454  0.3049 -0.0627  0.5609
  579TIP3    H223153   0.062   2.424  14.340 -1.4074  0.0284  1.6287
  580TIP3   OH223154   2.819   4.400   6.616  0.2837  0.7242  0.1551
  580TIP3    H123155   2.724   4.407   6.630  0.3482 -0.9204  1.8030
  580TIP3    H223156   2.850   4.490   6.621 -0.8578  1.0737  2.7692
  581TIP3   OH223157   5.425   2.246   1.448 -0.2557 -0.0077 -0.0434
  581TIP3    H123158   5.506   2.195   1.456  1.3426  2.4091  0.0847
  581TIP3    H223159   5.380   2.233   1.532  0.5092 -0.5386  0.2973
  582TIP3   OH223160   6.330   1.861  16.794  0.3365  0.2724  0.6051
  582TIP3    H123161   6.387   1.863  16.871 -0.0882  0.3869  0.9197
  582TIP3    H223162   6.270   1.788  16.811 -0.2806  0.8092  0.7631
  583TIP3   OH223163   0.881   4.363  16.373 -0.5219  0.0385 -0.1278
  583TIP3    H123164   0.892   4.289  16.313  1.6937 -0.3541  0.6508
  583TIP3    H223165   0.956   4.419  16.356 -1.1425  1.1422  0.6379
  584TIP3   OH223166   5.137   5.693   0.640  0.1032  0.0975 -0.3121
  584TIP3    H123167   5.080   5.715   0.567  1.0310 -0.1814 -1.1445
  584TIP3    H223168   5.085   5.712   0.718 -1.0497  0.0176 -1.0384
  585TIP3   OH223169   1.268   6.573   2.295  0.1960 -0.0973  0.6319
  585TIP3    H123170   1.271   6.484   2.332  0.0260 -0.8213 -0.9808
  585TIP3    H223171   1.178   6.602   2.312 -1.3000 -2.1254 -2.7491
  586TIP3   OH223172   4.535   3.416  11.342  0.1686 -0.4127  0.2930
  586TIP3    H123173   4.581   3.383  11.265 -0.8519 -0.8154 -0.1574
  586TIP3    H223174   4.604   3.432  11.407  1.0963  0.4381 -0.8687
  587TIP3   OH223175   1.608   4.057   4.965 -0.0229 -0.1143 -0.4055
  587TIP3    H123176   1.658   4.135   4.989 -0.4883  0.3418 -0.8935
  587TIP3    H223177   1.623   3.996   5.037 -0.1231  0.6487  0.2818
  588TIP3   OH223178   3.532   5.989  13.230 -0.1652 -0.6122 -0.0245
  588TIP3    H123179   3.446   6.000  13.273 -0.9315  0.0853 -1.6630
  588TIP3    H223180   3.542   6.068  13.177  0.3065 -1.8630 -1.8631
  589TIP3   OH223181   4.546   6.234   4.946 -0.3152  0.3353  0.8658
  589TIP3    H123182   4.464   6.261   4.988 -1.0827  2.7115 -1.8402
  589TIP3    H223183   4.528   6.146   4.913 -2.7053  1.5699 -1.5323
  590TIP3   OH223184   4.935   5.994   0.192  0.1948 -0.2294 -0.1006
  590TIP3    H123185   4.975   5.942   0.123 -0.6751 -0.1916 -0.6532
  590TIP3    H223186   4.841   5.986   0.176 -0.1123 -1.5156  2.0164
  591TIP3   OH223187   3.515   1.341   3.240  0.3925  0.0999  0.1720
  591TIP3    H123188   3.427   1.376   3.253  1.3183  1.9912  1.7869
  591TIP3    H223189   3.539   1.369   3.151 -1.0672 -1.5964 -0.8321
  592TIP3   OH223190   5.801   0.661   3.316 -0.2927 -0.2904  0.1502
  592TIP3    H123191   5.854   0.581   3.318  0.0631 -0.1134  2.9083
  592TIP3    H223192   5.726   0.642   3.372 -2.2223  0.1096 -2.1810
  593TIP3   OH223193   5.420   2.635  16.185 -0.3165 -0.5023 -0.1685
  593TIP3    H123194   5.413   2.630  16.089 -0.4865  0.6968 -0.2392
  593TIP3    H223195   5.409   2.728  16.204  0.8938 -0.5596  0.9334
  594TIP3   OH223196   1.015   4.698   2.996 -0.1020  0.6432 -0.5553
  594TIP3    H123197   0.939   4.649   2.966 -0.5784  0.4553  0.8983
  594TIP3    H223198   0.999   4.788   2.965 -1.1920  0.7258  0.1902
  595TIP3   OH223199   2.987   3.472  10.553 -0.1834  0.0255  0.0327
  595TIP3    H123200   2.967   3.499  10.643  2.6900  1.4975  0.3219
  595TIP3    H223201   3.082   3.474  10.547 -0.2392 -0.8688 -2.8447
  596TIP3   OH223202   4.350   6.009   4.335  0.0903 -0.5644 -0.4894
  596TIP3    H123203   4.311   6.051   4.257 -0.4261  1.6677  0.8604
  596TIP3    H223204   4.323   5.918   4.329 -2.2471  0.1095 -1.5683
  597TIP3   OH223205   2.310   4.784   3.987  0.0350  0.2606 -0.2082
  597TIP3    H123206   2.383   4.839   3.959 -1.4167  1.7979 -1.1739
  597TIP3    H223207   2.244   4.846   4.018 -1.6684 -0.9148 -1.3254
  598TIP3   OH223208   3.001   5.184   3.368 -0.2122 -0.0063  0.2145
  598TIP3    H123209   2.972   5.097   3.396 -0.4983  0.1855  0.5208
  598TIP3    H223210   2.987   5.184   3.273 -0.7582 -0.0930  0.2919
  599TIP3   OH223211   4.835   0.628  11.544 -0.7366  0.5567  0.0719
  599TIP3    H123212   4.742   0.607  11.557 -0.2165 -0.9237  2.0585
  599TIP3    H223213   4.836   0.721  11.523 -2.7140  0.4087 -0.9673
  600TIP3   OH223214   0.007   4.527  16.321 -0.2672 -0.6166  0.3356
  600TIP3    H123215  -0.080   4.511  16.286 -0.1052 -2.1008  0.5440
  600TIP3    H223216   0.038   4.441  16.350  0.6287  0.1301  1.7513
  601TIP3   OH223217   3.733   0.830  12.858 -0.2913  0.1039 -0.0687
  601TIP3    H123218   3.796   0.902  12.855  0.4069 -0.5220 -1.2157
  601TIP3    H223219   3.706   0.819  12.766  0.1898 -1.5863 -0.0300
  602TIP3   OH223220   6.497   1.164   2.442  0.3795  0.1430 -0.5065
  602TIP3    H123221   6.446   1.239   2.412 -1.9597 -1.3137 -0.4626
  602TIP3    H223222   6.544   1.134   2.364  0.8363  1.2503 -0.6699
  603TIP3   OH223223   3.493   1.025   5.161 -0.4671 -0.0804 -0.5370
  603TIP3    H123224   3.432   0.960   5.197  0.4045 -0.6121  0.0112
  603TIP3    H223225   3.437   1.085   5.112 -1.3443 -1.0004 -0.7049
  604TIP3   OH223226   2.632   1.325  15.189  0.0640 -0.0704  0.7149
  604TIP3    H123227   2.675   1.410  15.183 -0.6279  0.4964  2.8642
  604TIP3    H223228   2.586   1.316  15.106  1.9198  0.6197 -0.4459
  605TIP3   OH223229   5.695   0.688  11.499  0.1293  0.3508  0.3573
  605TIP3    H123230   5.781   0.682  11.457 -0.1986 -1.6815 -0.1760
  605TIP3    H223231   5.713   0.687  11.593  0.7457  1.8969  0.2753
  606TIP3   OH223232   0.808   0.814   2.461 -0.1673  0.3436 -0.2191
  606TIP3    H123233   0.881   0.832   2.521  1.3194  0.6842 -2.0357
  606TIP3    H223234   0.797   0.896   2.413 -1.3829  0.1070 -0.3610
  607TIP3   OH223235   2.637   5.336   4.701  0.8088  0.1942 -0.0203
  607TIP3    H123236   2.610   5.352   4.791 -2.1764  0.6695 -0.8903
  607TIP3    H223237   2.621   5.419   4.656  1.8232 -0.1664 -1.0916
  608TIP3   OH223238   5.311   5.871  15.640  0.7384 -0.3046  0.0616
  608TIP3    H123239   5.340   5.836  15.724  2.5548  0.4733 -0.1905
  608TIP3    H223240   5.289   5.962  15.657  1.6718  0.0202 -0.3850
  609TIP3   OH223241   6.281   3.687   5.323  0.0911 -0.4460 -0.1843
  609TIP3    H123242   6.235   3.612   5.284 -1.4215  0.5319 -0.4040
  609TIP3    H223243   6.242   3.696   5.410  0.2338  0.0967 -0.1721
  610TIP3   OH223244   2.755   1.621  13.302  0.3442 -0.2064  0.3270
  610TIP3    H123245   2.801   1.682  13.245  0.2506 -1.6823 -1.4214
  610TIP3    H223246   2.732   1.672  13.379  2.0150  1.4144 -0.1904
  611TIP3   OH223247   6.406   5.043  11.330  0.1122  0.1263  0.3545
  611TIP3    H123248   6.390   5.129  11.370 -1.4562  0.3865 -0.7629
  611TIP3    H223249   6.411   4.983  11.405 -0.0803  0.9856  1.0803
  612TIP3   OH223250   4.259   6.524  15.495 -0.2895 -0.2240 -0.0632
  612TIP3    H123251   4.255   6.486  15.407 -0.6766 -1.0224  0.2930
  612TIP3    H223252   4.353   6.533  15.512 -0.1627  2.5551 -1.6483
  613TIP3   OH223253   3.698   2.539   0.492  0.2124 -0.7232 -0.0690
  613TIP3    H123254   3.727   2.461   0.539  1.8632  0.1911  0.5328
  613TIP3    H223255   3.628   2.575   0.545  1.0548 -0.5236  0.9496
  614TIP3   OH223256   2.212   3.430   2.360 -0.4262  0.2122 -0.0694
  614TIP3    H123257   2.272   3.488   2.315 -0.6666 -1.4641 -2.7788
  614TIP3    H223258   2.266   3.357   2.390 -0.8658 -0.7336 -1.4839
  615TIP3   OH223259   3.075   1.408   1.865  0.0140 -0.1649 -0.0592
  615TIP3    H123260   3.110   1.477   1.921  1.5874 -0.5754 -0.4999
  615TIP3    H223261   2.988   1.389   1.903 -0.1123  1.4619  0.5442
  616TIP3   OH223262   0.648   0.663  12.033  0.5179  0.7554 -0.1432
  616TIP3    H123263   0.665   0.748  12.074  0.8599  1.0221 -0.8105
  616TIP3    H223264   0.596   0.684  11.955  1.7333  0.5162 -1.0546
  617TIP3   OH223265   1.760   6.084   3.831  0.3143 -0.2480  0.3581
  617TIP3    H123266   1.725   6.173   3.825  1.4962  0.2277  0.2488
  617TIP3    H223267   1.691   6.029   3.794  0.5001  0.8669 -1.8526
  618TIP3   OH223268   1.627   3.010  15.629 -0.1184  0.1797 -0.4152
  618TIP3    H123269   1.603   2.930  15.675 -0.5600  0.8287  0.5209
  618TIP3    H223270   1.545   3.058  15.618 -0.0642 -0.0593 -2.1210
  619TIP3   OH223271   5.913   4.205   0.929 -0.0800 -0.2574 -0.2019
  619TIP3    H123272   5.916   4.181   1.021 -1.7500 -0.1732 -0.0975
  619TIP3    H223273   5.969   4.140   0.886 -0.2979 -1.0810  0.7186
  620TIP3   OH223274   1.823   6.629  15.609 -0.0995 -0.5906 -0.2005
  620TIP3    H123275   1.832   6.679  15.527  0.4840  0.5562  0.5339
  620TIP3    H223276   1.728   6.626  15.624 -0.2312 -1.0341 -1.0336
  621TIP3   OH223277   4.862   3.204  12.445  0.3096  0.2920 -0.4728
  621TIP3    H123278   4.873   3.150  12.523  1.7840 -0.9418 -1.4669
  621TIP3    H223279   4.769   3.222  12.441  0.0004 -0.8776  0.7725
  622TIP3   OH223280   1.324   0.015  15.599  0.6391 -0.1411 -0.0137
  622TIP3    H123281   1.261   0.008  15.671  2.2073  0.8746  1.5154
  622TIP3    H223282   1.270   0.008  15.520 -1.1003 -1.6135  1.2207
  623TIP3   OH223283   4.147   0.972   6.686  0.5010 -0.2170 -0.2646
  623TIP3    H123284   4.233   0.944   6.718 -0.5247 -3.5663 -0.0590
  623TIP3    H223285   4.087   0.953   6.759 -0.7422 -0.2126 -1.2426
  624TIP3   OH223286   6.396   6.530  13.704  0.0608  0.7676 -0.2866
  624TIP3    H123287   6.458   6.598  13.729  1.5801 -0.0848 -1.5439
  624TIP3    H223288   6.449   6.451  13.693 -1.7255 -0.8718  1.8309
  625TIP3   OH223289   1.469   2.457  16.261  0.1174  0.2492 -0.0009
  625TIP3    H123290   1.495   2.432  16.350  0.3772  0.0583 -0.1304
  625TIP3    H223291   1.497   2.384  16.206  0.9712  0.8696 -0.4053
  626TIP3   OH223292   3.483   3.639  13.099  0.1695 -0.1381 -0.0343
  626TIP3    H123293   3.574   3.669  13.094 -0.5643  2.1525 -2.0417
  626TIP3    H223294   3.464   3.607  13.011 -1.2516  0.5055 -0.0004
  627TIP3   OH223295   2.666   3.073   6.621  0.1324  0.3816 -0.0361
  627TIP3    H123296   2.573   3.050   6.625  0.3479 -0.8982 -1.3221
  627TIP3    H223297   2.708   3.015   6.685  0.2089 -0.1973 -0.5897
  628TIP3   OH223298   4.204   3.972   2.035  0.3210  0.0166 -0.2554
  628TIP3    H123299   4.217   4.011   2.122  0.4770  1.8661 -1.0705
  628TIP3    H223300   4.278   3.912   2.025 -0.5289 -1.4441  1.4844
  629TIP3   OH223301   4.123   5.934  14.199 -0.2196 -0.4693  0.2942
  629TIP3    H123302   4.096   5.978  14.279  0.4226 -1.7040  1.2129
  629TIP3    H223303   4.218   5.942  14.198 -0.2646  0.3060 -0.8341
  630TIP3   OH223304   2.898   4.460  16.050  0.2650 -0.3144  1.1106
  630TIP3    H123305   2.983   4.423  16.024  0.4485 -0.5242  1.9810
  630TIP3    H223306   2.849   4.466  15.969  0.4759 -1.8369  0.8417
  631TIP3   OH223307   6.688   5.838   0.850  0.4610 -0.5411 -0.6115
  631TIP3    H123308   6.653   5.924   0.873 -0.4137 -0.3608 -2.4450
  631TIP3    H223309   6.612   5.780   0.851  0.8748 -1.0907 -0.3834
  632TIP3   OH223310   0.499   5.817   3.326 -0.2394  0.2843 -0.1685
  632TIP3    H123311   0.418   5.820   3.376  0.9658  3.3189  1.9661
  632TIP3    H223312   0.525   5.909   3.317  4.4506 -0.4732  2.0907
  633TIP3   OH223313   4.221   6.629   2.347  0.1985 -0.1516 -0.2329
  633TIP3    H123314   4.258   6.591   2.267 -0.1440 -0.0248 -0.4496
  633TIP3    H223315   4.138   6.582   2.360 -1.2656  1.8927 -1.6309
  634TIP3   OH223316   1.909   3.037  15.594 -1.0237 -0.7360 -0.1306
  634TIP3    H123317   1.817   3.022  15.617 -1.3858  0.5590 -0.6502
  634TIP3    H223318   1.917   3.132  15.588  0.5644 -0.7870  0.7098
  635TIP3   OH223319   2.362   5.938  13.319  0.6114 -0.4036 -0.6616
  635TIP3    H123320   2.267   5.939  13.308  0.7193 -0.8755 -1.7805
  635TIP3    H223321   2.395   5.996  13.251  1.0437  1.4755  1.0486
  636TIP3   OH223322   4.234   6.298  10.721  0.0056  0.4323 -0.5456
  636TIP3    H123323   4.140   6.316  10.721 -0.0916 -0.0173  0.3062
  636TIP3    H223324   4.269   6.352  10.792  0.0233 -1.0743  0.6459
  637TIP3   OH223325   3.059   0.447  15.494 -0.0661  0.1940  0.2574
  637TIP3    H123326   3.115   0.523  15.510 -1.6454  1.7838 -1.2471
  637TIP3    H223327   3.083   0.417  15.406 -2.1621  1.5745 -0.8755
  638TIP3   OH223328   1.115   3.256  11.444  0.3299 -0.2897  0.2363
  638TIP3    H123329   1.121   3.351  11.436 -0.7869 -0.2854 -0.6164
  638TIP3    H223330   1.182   3.223  11.384  2.0358 -0.0645  1.8880
  639TIP3   OH223331   0.536   3.650   0.471 -0.7807 -0.4251 -0.3518
  639TIP3    H123332   0.582   3.720   0.426 -0.5967  0.5596  1.3062
  639TIP3    H223333   0.587   3.571   0.451 -0.5094  0.0307 -1.5406
  640TIP3   OH223334   3.881   6.299  12.972 -0.1307  0.4999  0.3645
  640TIP3    H123335   3.839   6.377  12.937  0.7219  0.9281  0.2799
  640TIP3    H223336   3.971   6.325  12.987  0.2329 -0.5460  0.0856
  641TIP3   OH223337   3.368   4.892  15.858 -0.1462 -0.2427  0.7062
  641TIP3    H123338   3.351   4.901  15.764 -0.0516  0.2100  0.7309
  641TIP3    H223339   3.375   4.798  15.872  0.0371 -0.3027  0.2218
  642TIP3   OH223340   4.248   5.633   5.694  0.6676 -0.0582  0.0175
  642TIP3    H123341   4.168   5.669   5.733 -0.2493 -1.2195 -0.7117
  642TIP3    H223342   4.300   5.604   5.769  1.8241  3.3610  0.6988
  643TIP3   OH223343   4.808   3.831   1.457 -0.1780 -0.3301 -0.6367
  643TIP3    H123344   4.748   3.875   1.518 -1.0042 -0.4258 -1.3584
  643TIP3    H223345   4.764   3.750   1.433  0.1326 -0.3056 -1.3434
  644TIP3   OH223346   3.671   2.359   3.484  0.2127  0.5467  0.7911
  644TIP3    H123347   3.624   2.339   3.565 -1.5697 -2.6345 -0.8546
  644TIP3    H223348   3.629   2.439   3.451 -0.9517  0.3036  1.6270
  645TIP3   OH223349   2.459   5.467  16.537 -0.0651 -0.0028 -0.2676
  645TIP3    H123350   2.415   5.452  16.621  0.0916 -0.0873 -0.1989
  645TIP3    H223351   2.519   5.540  16.555 -1.4585  1.3294 -0.8309
  646TIP3   OH223352   0.668   1.674  13.394 -0.4094 -0.2404 -0.4090
  646TIP3    H123353   0.724   1.692  13.470 -0.0581  1.2427 -0.9972
  646TIP3    H223354   0.704   1.593  13.357 -0.5372 -0.9525  0.9401
  647TIP3   OH223355   5.617   3.760  12.846  0.4496  0.1130  0.1528
  647TIP3    H123356   5.703   3.770  12.805  0.2596 -0.6920 -0.4672
  647TIP3    H223357   5.595   3.668  12.833 -1.0812  0.5826 -0.8341
  648TIP3   OH223358   0.565   1.296   1.631  1.2505  0.0171 -0.0873
  648TIP3    H123359   0.529   1.329   1.713 -0.2162 -0.9541 -0.3021
  648TIP3    H223360   0.529   1.355   1.564  1.2179 -0.0934 -0.1677
  649TIP3   OH223361   1.936   4.460   3.823 -0.0581  0.1076 -0.5056
  649TIP3    H123362   2.025   4.481   3.850 -0.3711 -0.2016  0.8109
  649TIP3    H223363   1.944   4.433   3.731  0.6925  3.5994 -1.6149
  650TIP3   OH223364   5.636   1.038   4.448 -0.0004 -0.8014  0.4328
  650TIP3    H123365   5.543   1.016   4.452 -0.2855  0.1805 -0.3279
  650TIP3    H223366   5.647   1.108   4.514  0.3730 -1.4461  1.0716
  651TIP3   OH223367   0.443   3.308   3.157 -0.0331  0.4298 -0.0786
  651TIP3    H123368   0.440   3.290   3.251  1.3387  0.4701 -0.0031
  651TIP3    H223369   0.475   3.398   3.150  0.9332  0.0704 -0.5778
  652TIP3   OH223370   2.043   5.404  13.068  0.0650 -0.5835 -0.0900
  652TIP3    H123371   2.113   5.412  13.133 -0.8315  3.6708  0.6830
  652TIP3    H223372   1.963   5.394  13.120 -0.3675 -0.2238 -0.6658
  653TIP3   OH223373   3.314   2.211   0.911 -0.0161 -0.0063 -0.3963
  653TIP3    H123374   3.376   2.218   0.984  0.2789 -1.5681 -0.4634
  653TIP3    H223375   3.369   2.208   0.833 -0.2396 -0.1857 -0.5467
  654TIP3   OH223376   1.148   3.625  15.321  0.4452  0.2446 -0.3114
  654TIP3    H123377   1.145   3.658  15.231  1.0575  0.3812 -0.2894
  654TIP3    H223378   1.241   3.609  15.336  0.5656  1.8993  0.9092
  655TIP3   OH223379   3.955   3.991  17.070  0.2753  0.3787 -0.4536
  655TIP3    H123380   4.042   3.955  17.054  0.3456  0.5171 -0.3854
  655TIP3    H223381   3.964   4.038  17.153  0.4548  1.4255 -1.0576
  656TIP3   OH223382   0.562   1.383  11.556 -0.1367  0.4022  0.0776
  656TIP3    H123383   0.591   1.318  11.492 -0.8839 -0.3548  0.4819
  656TIP3    H223384   0.621   1.372  11.630 -0.6130 -0.2267  0.3735
  657TIP3   OH223385   5.250   4.930  16.374 -0.0951 -0.1718 -0.8101
  657TIP3    H123386   5.250   4.853  16.431  2.6408 -0.4560 -1.0418
  657TIP3    H223387   5.160   4.962  16.376 -0.9834 -2.5278  0.4352
  658TIP3   OH223388   5.815   4.304   1.507  0.6200  0.4120 -0.0950
  658TIP3    H123389   5.878   4.370   1.479  0.7670  0.3999  0.2035
  658TIP3    H223390   5.864   4.221   1.505  0.3345  0.2529 -0.8253
  659TIP3   OH223391   2.699   5.744  11.957 -0.4260  1.0351 -0.3282
  659TIP3    H123392   2.681   5.661  12.001 -2.2267  1.8062  0.4715
  659TIP3    H223393   2.795   5.749  11.953 -0.2735 -1.4837 -1.2351
  660TIP3   OH223394   2.798   0.153  12.911 -0.4252  0.1257 -0.5043
  660TIP3    H123395   2.754   0.101  12.978 -0.4827  1.2771  0.3767
  660TIP3    H223396   2.789   0.243  12.941 -0.0079  0.6213 -1.8115
  661TIP3   OH223397   5.344   2.923   0.119 -0.0309  0.5045  0.1589
  661TIP3    H123398   5.427   2.889   0.087  0.2010  0.3246  0.9214
  661TIP3    H223399   5.330   3.004   0.071 -0.1400 -0.1975 -1.0318
  662TIP3   OH223400   3.587   3.189   6.047 -0.4596  0.5623 -0.4488
  662TIP3    H123401   3.534   3.167   6.124 -3.1771 -1.0309 -2.5693
  662TIP3    H223402   3.676   3.162   6.070 -1.3590 -0.7561  1.7997
  663TIP3   OH223403   3.335   4.791  10.246 -0.5232 -0.5141 -0.0474
  663TIP3    H123404   3.387   4.721  10.286  2.1486  0.7013 -1.1266
  663TIP3    H223405   3.260   4.801  10.304  0.2670 -2.6163  1.4637
  664TIP3   OH223406   5.288   1.749  17.054  0.3824 -0.2857 -0.4423
  664TIP3    H123407   5.341   1.670  17.061  0.0083 -0.4601  0.5303
  664TIP3    H223408   5.211   1.722  17.004 -0.4972 -0.9561  1.2136
  665TIP3   OH223409   4.510   1.456  13.094  0.1137 -0.2888 -0.6700
  665TIP3    H123410   4.472   1.542  13.075 -0.2127 -0.1108  0.6684
  665TIP3    H223411   4.443   1.393  13.068  0.2586 -0.1352 -1.4347
  666TIP3   OH223412   3.436   4.324  13.370  0.0986 -0.4701  0.2168
  666TIP3    H123413   3.366   4.360  13.424  1.8458 -1.5657  3.5361
  666TIP3    H223414   3.399   4.244  13.333 -1.1951  0.3577 -0.3522
  667TIP3   OH223415   2.563   1.051   4.711 -0.5029 -0.5247  0.0395
  667TIP3    H123416   2.569   1.016   4.800 -0.7731  0.1388  0.3252
  667TIP3    H223417   2.654   1.066   4.684 -0.4555  1.0363  0.9322
  668TIP3   OH223418   2.221   2.390  11.676 -0.4415  0.8074 -0.4544
  668TIP3    H123419   2.157   2.447  11.634 -0.6219  0.4462 -0.6766
  668TIP3    H223420   2.225   2.313  11.619 -0.9118  0.1776  0.3429
  669TIP3   OH223421   4.775   4.045  15.440  0.1060  0.2043 -0.4899
  669TIP3    H123422   4.848   4.107  15.438 -0.1622  0.5060 -2.1302
  669TIP3    H223423   4.698   4.098  15.417 -0.1742 -0.6642 -1.5830
  670TIP3   OH223424   0.398   5.287  13.541  0.8199  0.0809  0.2369
  670TIP3    H123425   0.317   5.240  13.519 -0.6179  2.2894  0.5541
  670TIP3    H223426   0.424   5.252  13.626 -1.0566  0.8610  1.1728
  671TIP3   OH223427   1.560   3.051  14.108 -0.0254 -0.0468  0.1012
  671TIP3    H123428   1.555   3.092  14.195 -0.1733  0.8283 -0.3033
  671TIP3    H223429   1.525   3.118  14.049 -0.0078 -0.6694 -0.6191
  672TIP3   OH223430   0.015   1.019  15.698  0.0961  0.2327 -0.0741
  672TIP3    H123431   0.104   1.029  15.732 -0.6161 -0.7740  2.2828
  672TIP3    H223432  -0.008   0.928  15.717 -1.5422  0.5639 -0.3411
  673TIP3   OH223433   5.733   0.512  15.367  0.1815 -0.6210  0.1738
  673TIP3    H123434   5.743   0.543  15.457 -0.3124 -0.6009  0.2238
  673TIP3    H223435   5.822   0.486  15.340  0.4202 -0.1374  0.4854
  674TIP3   OH223436   3.783   3.322   1.252 -0.0954  0.2151  0.0815
  674TIP3    H123437   3.788   3.372   1.170  1.2588  0.6799  0.4187
  674TIP3    H223438   3.694   3.337   1.283 -0.0859  1.4956 -0.4245
  675TIP3   OH223439   1.007   6.017   0.458  0.3430  0.0697 -0.0154
  675TIP3    H123440   0.933   5.977   0.503 -1.3957  1.1051 -1.7967
  675TIP3    H223441   1.072   5.947   0.450  0.1701 -0.5136  2.7346
  676TIP3   OH223442   0.139   3.399   3.998 -0.0871 -0.2297 -0.3606
  676TIP3    H123443   0.161   3.466   4.063  0.1202  0.1481 -0.8160
  676TIP3    H223444   0.056   3.363   4.028  0.8081 -1.2376  1.0427
  677TIP3   OH223445   1.883   2.537  10.946 -0.9547  0.5723  0.0188
  677TIP3    H123446   1.893   2.629  10.921  1.3887 -0.0875 -1.8172
  677TIP3    H223447   1.796   2.513  10.915 -2.1528  2.4576  1.7099
  678TIP3   OH223448   2.688   5.412   3.364  0.6404 -0.0149 -0.1279
  678TIP3    H123449   2.650   5.356   3.296 -0.3484 -0.0893  0.4678
  678TIP3    H223450   2.688   5.500   3.325  1.5282 -0.2995 -0.7960
  679TIP3   OH223451   5.204   5.666   5.856 -0.3690 -0.0839  0.0270
  679TIP3    H123452   5.155   5.652   5.937  0.7222  0.5309  0.8042
  679TIP3    H223453   5.287   5.621   5.869  0.6851  1.7797  0.1349
  680TIP3   OH223454   1.073   1.536  15.870  0.6767  0.1970  0.0650
  680TIP3    H123455   1.147   1.577  15.826  1.4198 -1.2985 -0.1419
  680TIP3    H223456   1.089   1.442  15.861 -1.7770 -0.1960 -0.8704
  681TIP3   OH223457   5.920   5.722   2.699  0.7743 -0.3406 -0.0950
  681TIP3    H123458   5.838   5.698   2.741  0.4076  0.7201 -0.1634
  681TIP3    H223459   5.897   5.738   2.608  0.4784  2.4645  0.3672
  682TIP3   OH223460   0.539   2.397   0.287  0.1584  0.1153 -0.2842
  682TIP3    H123461   0.510   2.307   0.274  1.9578 -0.2804 -1.9000
  682TIP3    H223462   0.462   2.443   0.320 -0.4930 -2.2462  1.7448
  683TIP3   OH223463   2.715   3.086   1.322 -0.1878 -0.2252  0.2290
  683TIP3    H123464   2.735   3.038   1.402  0.3621 -0.2156  0.0991
  683TIP3    H223465   2.657   3.157   1.350  1.0785  0.6068  0.8616
  684TIP3   OH223466   5.172   5.190  12.437 -0.2712 -0.0153 -0.3387
  684TIP3    H123467   5.096   5.210  12.492  0.1485  2.1609 -0.4548
  684TIP3    H223468   5.205   5.107  12.472 -0.4131  0.9323  2.3076
  685TIP3   OH223469   1.885   0.339   3.781 -0.2313  0.6541 -0.1610
  685TIP3    H123470   1.932   0.297   3.853  0.2846 -0.2601 -1.0027
  685TIP3    H223471   1.820   0.395   3.824  1.3333  1.6299  1.0258
  686TIP3   OH223472   3.584   6.629  13.193 -0.3374  0.2278  0.2921
  686TIP3    H123473   3.586   6.572  13.116 -1.8408  0.8517 -0.2608
  686TIP3    H223474   3.676   6.640  13.217  0.2196  0.4227 -1.7301
  687TIP3   OH223475   4.451   3.773   1.774  0.4462  0.2139 -0.5969
  687TIP3    H123476   4.524   3.775   1.836  1.3345  0.2700 -1.6004
  687TIP3    H223477   4.431   3.680   1.764  0.1880  0.2156 -0.1006
  688TIP3   OH223478   6.586   2.140   1.230  0.3362 -0.0426  0.1447
  688TIP3    H123479   6.616   2.229   1.212 -0.6437  0.4648  0.9226
  688TIP3    H223480   6.542   2.113   1.150 -2.3199  1.4761  0.9913
  689TIP3   OH223481   4.675   3.703  14.361  0.3433 -0.0475  0.3638
  689TIP3    H123482   4.730   3.780  14.380 -1.2481  0.8888  1.4060
  689TIP3    H223483   4.649   3.714  14.270  0.3573  0.4975  0.4237
  690TIP3   OH223484   4.600   3.107   1.176 -0.6064  0.5229  0.1752
  690TIP3    H123485   4.509   3.083   1.190 -1.0796  1.6275 -0.7827
  690TIP3    H223486   4.617   3.084   1.084  0.5868 -1.1416  0.7645
  691TIP3   OH223487   2.989   0.604   3.173 -0.3487  0.0795  0.0904
  691TIP3    H123488   3.042   0.628   3.249 -1.6724  0.9473  0.7841
  691TIP3    H223489   3.007   0.674   3.109  0.5250 -0.4822 -0.2964
  692TIP3   OH223490   2.291   5.274  14.813 -0.3219  0.2871  0.0878
  692TIP3    H123491   2.263   5.323  14.736  0.8488  0.3057 -0.3382
  692TIP3    H223492   2.386   5.276  14.811 -0.2627  0.0526  1.3964
  693TIP3   OH223493   2.401   3.200   4.036  0.3487  0.7328  0.1822
  693TIP3    H123494   2.399   3.198   3.940 -0.3621  0.8798  0.1887
  693TIP3    H223495   2.378   3.111   4.062 -1.4892  1.1692  0.2168
  694TIP3   OH223496   3.288   2.363  14.310  0.6146 -0.2465  0.0053
  694TIP3    H123497   3.207   2.394  14.350 -0.0571 -2.5611  0.5425
  694TIP3    H223498   3.305   2.426  14.240 -0.8325  1.1136  0.8208
  695TIP3   OH223499   0.037   4.805   3.061  0.1731 -0.4175  0.2338
  695TIP3    H123500  -0.020   4.827   3.134 -1.2035 -0.2064 -0.8492
  695TIP3    H223501   0.065   4.889   3.026  0.4965 -0.5072  0.2792
  696TIP3   OH223502   2.798   1.437  14.009 -0.1320  0.3235 -0.4651
  696TIP3    H123503   2.837   1.364  14.057  0.9161  0.6834 -0.7545
  696TIP3    H223504   2.804   1.512  14.068 -1.9235  0.0450  0.1451
  697TIP3   OH223505   1.238   6.088   2.094 -0.0060 -0.9266 -0.2272
  697TIP3    H123506   1.169   6.127   2.041 -0.3799 -0.8439  0.3127
  697TIP3    H223507   1.318   6.133   2.067 -0.4795  0.5048  0.6523
  698TIP3   OH223508   3.765   1.024   1.298 -0.3402 -0.3361  0.1500
  698TIP3    H123509   3.685   1.075   1.311  0.6818  1.8613 -1.4998
  698TIP3    H223510   3.748   0.973   1.218  0.0645  0.5200 -0.4917
  699TIP3   OH223511   5.278   5.226  14.568 -0.3910  0.4235 -0.5380
  699TIP3    H123512   5.342   5.156  14.570 -1.3087 -0.4539 -1.1014
  699TIP3    H223513   5.197   5.184  14.540 -0.6534  1.9312 -2.2534
  700TIP3   OH223514   5.959   5.928  10.541  0.2109 -0.0989  0.1427
  700TIP3    H123515   5.927   5.927  10.632 -0.6932 -0.3202 -0.1675
  700TIP3    H223516   5.888   5.888  10.490  0.1197  1.2462 -0.8468
  701TIP3   OH223517   1.632   4.104  15.061 -0.0243  0.3001 -0.1598
  701TIP3    H123518   1.593   4.103  14.974  0.7707  0.5675 -0.5311
  701TIP3    H223519   1.626   4.014  15.092  0.1876  0.0906 -0.7232
  702TIP3   OH223520   6.051   2.618   4.598 -0.3108  0.3669 -0.0249
  702TIP3    H123521   6.050   2.549   4.531  0.7907  0.6735 -0.3731
  702TIP3    H223522   5.958   2.631   4.620 -0.5070 -2.2187  1.0929
  703TIP3   OH223523   6.431   6.519  13.272 -0.6207 -0.8782 -0.2534
  703TIP3    H123524   6.412   6.613  13.268 -0.2454 -0.6891  1.5387
  703TIP3    H223525   6.439   6.492  13.181  0.0541  0.9943 -0.7923
  704TIP3   OH223526   2.752   3.851  16.792  0.3033 -0.4271 -0.8401
  704TIP3    H123527   2.739   3.940  16.759 -1.8716 -0.1132  0.6046
  704TIP3    H223528   2.836   3.823  16.756  1.9251  2.8638  0.0296
  705TIP3   OH223529   0.767   3.416   4.579 -0.0362 -0.3810 -0.1027
  705TIP3    H123530   0.680   3.394   4.612 -0.2429 -0.6932 -0.8209
  705TIP3    H223531   0.784   3.504   4.612 -0.1686 -0.7353  0.9370
  706TIP3   OH223532   2.722   3.856  15.498  0.6606 -0.1620 -0.5015
  706TIP3    H123533   2.711   3.913  15.574 -2.5470 -2.6026  1.1178
  706TIP3    H223534   2.679   3.904  15.427 -0.3610  0.2653  0.3734
  707TIP3   OH223535   0.158   4.523  16.034 -0.0291  0.7220 -0.2333
  707TIP3    H123536   0.119   4.558  16.114  0.0327  1.1234 -0.3767
  707TIP3    H223537   0.084   4.512  15.974  0.0045  0.9721 -0.3201
  708TIP3   OH223538   5.207   1.425   4.439  0.1372  0.3132  0.2563
  708TIP3    H123539   5.151   1.405   4.365  0.8921 -0.9888  0.0046
  708TIP3    H223540   5.226   1.518   4.431  0.3333  0.1535 -1.2681
  709TIP3   OH223541   6.622   2.971   1.272 -0.2508  0.7269  0.0449
  709TIP3    H123542   6.599   3.027   1.198 -0.0838 -0.0326 -0.5995
  709TIP3    H223543   6.538   2.946   1.311 -0.5259 -0.9874 -1.5043
  710TIP3   OH223544   5.174   3.061  11.827 -0.1634 -0.1317 -0.2808
  710TIP3    H123545   5.143   3.011  11.903 -0.3447  1.2150  0.5697
  710TIP3    H223546   5.202   2.995  11.764 -0.2439 -1.2886  0.8619
  711TIP3   OH223547   5.879   4.523  15.645 -0.3216 -0.0308  0.2107
  711TIP3    H123548   5.784   4.507  15.647 -0.2237 -0.6042  1.4534
  711TIP3    H223549   5.886   4.618  15.655 -0.7621 -0.1652  2.2403
  712TIP3   OH223550   2.459   4.957   2.015  0.3233  0.4746  0.6512
  712TIP3    H123551   2.413   5.020   2.070 -1.4051  1.2353 -1.5221
  712TIP3    H223552   2.397   4.885   2.004 -0.5248  1.5370 -2.3696
  713TIP3   OH223553   2.899   5.042  14.317 -0.5526 -0.2139  0.2820
  713TIP3    H123554   2.845   4.964  14.329 -0.2249 -0.5034 -0.0929
  713TIP3    H223555   2.838   5.115  14.322 -0.8227 -0.4778  0.9080
  714TIP3   OH223556   0.862   6.394   1.710 -0.8289  0.2099 -0.2157
  714TIP3    H123557   0.900   6.481   1.694  0.3458  0.2356  2.2208
  714TIP3    H223558   0.888   6.342   1.633  1.5926  1.0733 -0.0710
  715TIP3   OH223559   4.003   2.047   0.941  0.2339  0.0455 -0.0992
  715TIP3    H123560   4.027   2.121   0.885 -0.5693  0.7164  0.4268
  715TIP3    H223561   3.946   2.085   1.008 -0.2177 -1.0569  0.1569
  716TIP3   OH223562   2.559   6.166   2.922  0.0994  0.1840  0.4451
  716TIP3    H123563   2.517   6.227   2.861  1.7462  1.8152  0.8705
  716TIP3    H223564   2.633   6.130   2.872 -0.8696 -1.5661  0.1859
  717TIP3   OH223565   0.003   2.783   0.200  0.3858  0.2317 -0.4009
  717TIP3    H123566   0.068   2.813   0.136  2.0730 -1.6683  0.3022
  717TIP3    H223567   0.039   2.810   0.285  0.4506 -1.0962  0.0183
  718TIP3   OH223568   2.788   2.356  13.958  0.0299  0.6782  0.6205
  718TIP3    H123569   2.857   2.419  13.978  0.1037  1.0983 -0.8491
  718TIP3    H223570   2.786   2.351  13.862 -0.2814 -1.2372  0.6886
  719TIP3   OH223571   4.899   0.117   2.109  0.3566 -0.3576  0.0411
  719TIP3    H123572   4.895   0.179   2.036  0.1662  0.0543  0.3940
  719TIP3    H223573   4.990   0.088   2.111  0.1956 -0.9702 -0.8479
  720TIP3   OH223574   0.588   4.885   4.151  0.0131 -0.0199  0.0511
  720TIP3    H123575   0.606   4.941   4.075 -0.1386 -1.3090 -0.9656
  720TIP3    H223576   0.658   4.820   4.150 -1.0615 -1.2089 -0.1454
  721TIP3   OH223577   2.740   2.257   3.256  0.5148  0.5986 -0.5501
  721TIP3    H123578   2.772   2.347   3.247 -0.0788  0.6784 -2.2670
  721TIP3    H223579   2.685   2.244   3.179  0.6861 -1.2867 -0.3833
  722TIP3   OH223580   1.226   2.912   5.031  0.3592 -0.1895 -0.4003
  722TIP3    H123581   1.312   2.900   4.989  0.2363 -0.5430 -0.5508
  722TIP3    H223582   1.220   2.840   5.094  0.8430  0.7382  0.7361
  723TIP3   OH223583   4.705   3.576  12.269  0.2332  0.1676 -0.3892
  723TIP3    H123584   4.626   3.624  12.294  1.3014  0.4210  3.0127
  723TIP3    H223585   4.726   3.522  12.345  3.1844 -0.0794 -1.2489
  724TIP3   OH223586   0.793   0.081   1.715 -0.1164  0.3110  0.1486
  724TIP3    H123587   0.712   0.039   1.687  0.7207 -0.2356 -1.6503
  724TIP3    H223588   0.856   0.060   1.645  2.1499 -1.0050  2.4308
  725TIP3   OH223589   1.248   0.048   3.057 -0.3189 -0.3702  0.6978
  725TIP3    H123590   1.322   0.103   3.034  1.1398 -0.9539  3.5593
  725TIP3    H223591   1.199   0.038   2.976  1.6368  1.6592 -0.8431
  726TIP3   OH223592   1.311   5.977  16.787 -0.0548 -0.0968 -0.3621
  726TIP3    H123593   1.256   6.051  16.810 -1.1917 -0.9596 -0.2370
  726TIP3    H223594   1.285   5.907  16.848  0.5239 -0.7995 -0.8968
  727TIP3   OH223595   5.742   3.079   2.999  0.0954 -0.4416  0.1786
  727TIP3    H123596   5.714   3.004   2.945  1.6770 -1.9327  1.3308
  727TIP3    H223597   5.800   3.129   2.942  0.9943 -1.4727  0.1625
  728TIP3   OH223598   4.161   5.826   1.043  0.0741  0.4467  0.4452
  728TIP3    H123599   4.179   5.850   0.953  2.5791 -0.1673  0.6948
  728TIP3    H223600   4.066   5.818   1.048 -0.0600 -1.2374 -2.5937
  729TIP3   OH223601   5.286   6.086  16.292  0.0545 -0.4216 -0.5666
  729TIP3    H123602   5.193   6.110  16.291  0.1059 -0.2212 -0.6160
  729TIP3    H223603   5.286   5.990  16.301 -0.1536 -0.4096 -0.4319
  730TIP3   OH223604   4.543   0.008  16.241 -0.0635 -0.1865  0.0947
  730TIP3    H123605   4.551  -0.054  16.313 -1.4358 -1.4180 -0.7594
  730TIP3    H223606   4.470  -0.025  16.189  1.9833 -0.3934 -2.8871
  731TIP3   OH223607   2.195   2.263  14.701 -0.0594  0.2198  0.0283
  731TIP3    H123608   2.111   2.271  14.747  1.6182  1.7429  3.2176
  731TIP3    H223609   2.199   2.341  14.645  0.1386  1.4692  1.7021
  732TIP3   OH223610   2.985   3.801   2.935 -0.0544  0.0955  0.4953
  732TIP3    H123611   2.933   3.730   2.974  1.4239 -0.7346  1.0242
  732TIP3    H223612   3.068   3.760   2.912  0.7303  1.5990  0.5434
  733TIP3   OH223613   6.456   6.305   0.137 -0.1853 -0.3837  0.0526
  733TIP3    H123614   6.523   6.299   0.069  0.0257  0.1414  0.2076
  733TIP3    H223615   6.488   6.374   0.195 -1.6239  0.9991 -0.7293
  734TIP3   OH223616   3.463   1.586   5.525  0.1523  0.0470 -0.2180
  734TIP3    H123617   3.520   1.576   5.449 -0.0657 -0.0537 -0.3705
  734TIP3    H223618   3.480   1.508   5.578  0.7666  0.4214  0.1525
  735TIP3   OH223619   4.010   2.966   4.872 -0.3277 -0.1494  0.3940
  735TIP3    H123620   3.925   2.921   4.870  0.0771 -1.0214  1.6765
  735TIP3    H223621   4.069   2.904   4.915  1.7965 -0.8880 -3.1795
  736TIP3   OH223622   4.799   2.202  12.152 -0.5573 -0.1036  0.4181
  736TIP3    H123623   4.812   2.129  12.091 -0.9438  0.7723 -0.7647
  736TIP3    H223624   4.872   2.261  12.135 -2.7495  2.1278 -2.2520
  737TIP3   OH223625   5.770   4.033   4.535  0.3852  0.2750 -0.2030
  737TIP3    H123626   5.714   3.967   4.576  1.2115  0.8026  1.8672
  737TIP3    H223627   5.712   4.077   4.473 -0.9761 -0.4578  0.4897
  738TIP3   OH223628   5.587   0.290  10.905  0.2832  0.0748 -0.3544
  738TIP3    H123629   5.536   0.213  10.878  1.4002 -0.6059 -0.5699
  738TIP3    H223630   5.618   0.328  10.823  2.5456 -1.2132 -0.1706
  739TIP3   OH223631   3.319   5.201  14.483  0.4106 -0.3211 -0.0498
  739TIP3    H123632   3.273   5.244  14.555  2.7291 -1.9029  2.5631
  739TIP3    H223633   3.272   5.118  14.471  0.7543 -0.6234  0.5937
  740TIP3   OH223634   5.647   4.549   5.411  0.1219 -0.1613  0.1760
  740TIP3    H123635   5.659   4.456   5.390  2.9248  0.0335  0.4882
  740TIP3    H223636   5.702   4.595   5.347  0.5674  1.1068  1.4211
  741TIP3   OH223637   2.036   1.815  15.029 -0.1812  0.3498  0.4636
  741TIP3    H123638   1.954   1.783  15.066  0.3818  0.9777  2.3586
  741TIP3    H223639   2.104   1.763  15.072  0.5824  2.1948  1.5880
  742TIP3   OH223640   2.126   2.402   6.138  0.5591 -0.0331 -0.0707
  742TIP3    H123641   2.114   2.307   6.147 -1.8626  0.1444 -0.7514
  742TIP3    H223642   2.070   2.426   6.064  0.7344  2.0139  0.4030
  743TIP3   OH223643   0.150   0.177   5.332  0.7916  0.3840  0.5704
  743TIP3    H123644   0.225   0.225   5.365  1.9979 -0.5009 -0.7521
  743TIP3    H223645   0.155   0.092   5.375 -0.5574  0.9349  1.8845
  744TIP3   OH223646   3.780   1.531   2.289  0.9540 -0.7134  0.0370
  744TIP3    H123647   3.821   1.613   2.319  1.0492 -0.7641  0.0449
  744TIP3    H223648   3.743   1.553   2.204 -0.1302 -0.3078  0.5808
  745TIP3   OH223649   4.391   4.707   3.444 -0.2586  0.2238 -1.0290
  745TIP3    H123650   4.361   4.784   3.397 -1.1810  2.1612  2.4060
  745TIP3    H223651   4.313   4.652   3.452 -0.0237 -0.2689 -1.9107
  746TIP3   OH223652   6.216   2.730   5.652  0.0165  0.3293 -0.3086
  746TIP3    H123653   6.271   2.737   5.730  1.2066  0.3170 -1.1163
  746TIP3    H223654   6.261   2.782   5.586 -0.5388 -0.3050 -1.2194
  747TIP3   OH223655   5.155   2.452  11.324  0.1860 -0.1158 -0.4808
  747TIP3    H123656   5.144   2.383  11.389  2.3744 -0.6908 -0.6598
  747TIP3    H223657   5.066   2.470  11.294 -0.8367 -0.3019  2.1457
  748TIP3   OH223658   3.152   4.557   1.051  0.0637  0.4972  0.0900
  748TIP3    H123659   3.141   4.464   1.070 -2.9129  1.1084  1.9196
  748TIP3    H223660   3.115   4.569   0.963  2.6146 -0.3155 -1.2010
  749TIP3   OH223661   2.958   2.998   3.040  0.4323 -0.1868  0.8132
  749TIP3    H123662   2.885   2.997   3.102  0.1373  0.0661  0.4741
  749TIP3    H223663   3.007   2.918   3.059  0.1599 -0.2747  1.1529
  750TIP3   OH223664   3.027   3.282   4.064 -0.5584 -0.5472  0.4580
  750TIP3    H123665   3.002   3.228   4.139  1.0742 -0.5429  1.0545
  750TIP3    H223666   3.110   3.322   4.090 -0.7721  0.7531 -0.7298
  751TIP3   OH223667   2.086   4.979   4.438 -0.9433  0.2765  0.2601
  751TIP3    H123668   2.028   4.914   4.398  0.2517 -0.4381 -0.3337
  751TIP3    H223669   2.026   5.033   4.490 -1.9217 -1.6856  1.3435
  752TIP3   OH223670   1.945   0.652  12.486  0.2475  0.1012  0.0762
  752TIP3    H123671   1.876   0.700  12.441  0.6831  1.4430  0.7791
  752TIP3    H223672   1.905   0.625  12.569  0.3341  0.1939  0.1481
  753TIP3   OH223673   0.806   1.751  13.626  0.4828 -0.2413  0.0233
  753TIP3    H123674   0.870   1.812  13.590  0.3219 -0.1222 -0.0584
  753TIP3    H223675   0.755   1.804  13.688  1.6176 -0.7365  1.4409
  754TIP3   OH223676   1.119   0.553  15.442  0.0078  0.1317 -0.2799
  754TIP3    H123677   1.057   0.623  15.420 -0.0635  0.1015 -0.1773
  754TIP3    H223678   1.194   0.568  15.383 -0.2487 -0.0481 -0.6535
  755TIP3   OH223679   0.345   3.441   2.491 -0.2621 -0.0770  0.1593
  755TIP3    H123680   0.424   3.429   2.544 -0.3015  1.2142  0.5529
  755TIP3    H223681   0.370   3.509   2.428 -0.5365 -0.8711 -0.8211
  756TIP3   OH223682   4.789   2.013  14.802  0.1227  0.1891  0.2035
  756TIP3    H123683   4.779   2.097  14.756  2.6916  2.0921  2.7853
  756TIP3    H223684   4.707   1.966  14.783 -0.7648  2.5510 -2.6449
  757TIP3   OH223685   3.138   2.814   0.622  0.2322  0.1962  0.1647
  757TIP3    H123686   3.117   2.862   0.702  2.1986 -0.2937  1.0330
  757TIP3    H223687   3.067   2.751   0.613 -0.0704  0.3217  1.4734
  758TIP3   OH223688   4.195   2.175  13.002  0.4908 -0.3158 -0.2524
  758TIP3    H123689   4.254   2.247  12.980 -0.3820  1.3205  2.3303
  758TIP3    H223690   4.245   2.122  13.064 -0.6633  1.1742  2.0845
  759TIP3   OH223691   5.648   0.925   3.324  0.3763  0.1534  0.1596
  759TIP3    H123692   5.606   0.853   3.372  1.4882 -1.0913 -0.6778
  759TIP3    H223693   5.575   0.974   3.286 -0.3870 -1.4160 -0.4821
  760TIP3   OH223694   0.826   4.044   3.735  0.0507  0.6254 -0.4145
  760TIP3    H123695   0.831   4.066   3.642  2.0220  0.4184 -0.3922
  760TIP3    H223696   0.875   4.113   3.779 -0.0508  0.2036  0.3832
  761TIP3   OH223697   3.292   6.010  11.922  0.6143  0.1254 -0.1510
  761TIP3    H123698   3.331   6.097  11.919  1.1068 -0.1187 -1.4550
  761TIP3    H223699   3.198   6.025  11.916  0.5886  0.6180  1.1096
  762TIP3   OH223700   2.181   5.069   4.122  0.5717 -0.1163  0.0371
  762TIP3    H123701   2.128   5.053   4.044  0.5438 -0.6719  0.1689
  762TIP3    H223702   2.117   5.082   4.192  0.5991 -0.4819  0.1346
  763TIP3   OH223703   1.837   4.321   5.904  0.5328  0.5799 -0.1201
  763TIP3    H123704   1.848   4.374   5.825 -0.4991 -1.5128 -1.7552
  763TIP3    H223705   1.924   4.316   5.942  1.4068  0.3196 -2.0384
  764TIP3   OH223706   3.223   4.560   0.166 -0.4768 -0.2928 -0.7093
  764TIP3    H123707   3.169   4.482   0.177 -1.6889  0.4999 -0.9157
  764TIP3    H223708   3.287   4.535   0.098  0.7806 -1.9123  0.9740
  765TIP3   OH223709   6.696   4.559  15.682  0.1952  0.4243  0.0978
  765TIP3    H123710   6.754   4.634  15.694 -1.5004  1.7055  0.5746
  765TIP3    H223711   6.612   4.597  15.657 -0.4439 -1.3877 -0.6796
  766TIP3   OH223712   4.830   5.169  15.059 -0.1625  0.1256 -0.0842
  766TIP3    H123713   4.802   5.166  15.150 -5.2102  2.5292 -1.1612
  766TIP3    H223714   4.786   5.095  15.018  1.3076 -0.3874 -0.8111
  767TIP3   OH223715   6.513   1.753   1.140  0.1733  0.2160  0.2591
  767TIP3    H123716   6.486   1.819   1.203 -3.5519  1.1086 -1.9700
  767TIP3    H223717   6.591   1.789   1.099  1.0608  0.8591  2.3825
  768TIP3   OH223718   5.664   5.314   3.913 -0.0117 -0.9000  0.1669
  768TIP3    H123719   5.654   5.322   4.008 -1.1536 -0.3608  0.0221
  768TIP3    H223720   5.574   5.317   3.879  0.4313 -0.0116 -0.9974
  769TIP3   OH223721   4.132   2.325  16.489 -0.2905 -0.0644  0.2074
  769TIP3    H123722   4.170   2.412  16.475  0.6583 -0.3181  1.1110
  769TIP3    H223723   4.039   2.336  16.466 -0.0698  1.0305 -0.2586
  770TIP3   OH223724   4.037   5.958   2.040  0.3075  0.5010 -0.2411
  770TIP3    H123725   4.027   5.943   2.134  0.0856 -0.8834 -0.4732
  770TIP3    H223726   4.115   5.908   2.016 -0.9179 -1.0517 -1.1900
  771TIP3   OH223727   1.844   3.077   2.109 -0.2556  0.3177  0.0806
  771TIP3    H123728   1.905   3.147   2.086  0.1240  0.6789  1.9933
  771TIP3    H223729   1.761   3.122   2.123 -0.5681  0.0559 -0.9093
  772TIP3   OH223730   3.999   5.311   5.312 -0.0038 -0.0161 -0.4537
  772TIP3    H123731   3.985   5.353   5.397 -1.5554 -1.6650  0.1645
  772TIP3    H223732   4.054   5.373   5.263  1.6723  0.5955  2.0231
  773TIP3   OH223733   1.494   6.612  15.674 -0.2690  0.4311 -0.3255
  773TIP3    H123734   1.448   6.688  15.638 -1.3484  0.4591  0.9931
  773TIP3    H223735   1.426   6.564  15.723  0.1188 -2.0306 -2.0402
  774TIP3   OH223736   0.459   0.426  10.957  0.0837 -0.1217  0.0876
  774TIP3    H123737   0.527   0.394  11.016  2.5012  1.4430 -1.6451
  774TIP3    H223738   0.490   0.401  10.870 -2.1530 -0.2863 -0.7029
  775TIP3   OH223739   1.435   1.583  15.530  0.0984 -0.8515 -0.4565
  775TIP3    H123740   1.379   1.512  15.500 -1.1803  0.1319 -0.4508
  775TIP3    H223741   1.483   1.610  15.452 -0.1510 -1.0443 -0.6782
  776TIP3   OH223742   0.642   6.562   4.178  0.3093 -1.1950 -0.0844
  776TIP3    H123743   0.650   6.501   4.252  0.5536 -1.0445  0.0150
  776TIP3    H223744   0.548   6.564   4.159 -0.0813  0.3665  1.6083
  777TIP3   OH223745   1.540   6.016   5.176  0.0661 -0.7249 -0.2439
  777TIP3    H123746   1.605   5.961   5.220  0.2499 -0.6680 -0.4455
  777TIP3    H223747   1.512   5.964   5.101  0.5192 -0.3865 -0.6514
  778TIP3   OH223748   0.105   1.647  13.123  0.0925  0.3170 -0.5354
  778TIP3    H123749   0.016   1.680  13.124  0.2746  0.8469  1.5950
  778TIP3    H223750   0.095   1.552  13.119 -0.5222  0.4145 -1.6336
  779TIP3   OH223751   1.167   1.180  16.898  0.1753  0.4127 -0.4422
  779TIP3    H123752   1.172   1.133  16.981  0.7106  0.4619 -0.4440
  779TIP3    H223753   1.202   1.267  16.918  0.1086  0.4918 -0.6706
  780TIP3   OH223754   2.847   4.590  14.676  0.7661 -0.0521 -0.5512
  780TIP3    H123755   2.904   4.628  14.610 -0.7401  0.7359 -1.4559
  780TIP3    H223756   2.760   4.623  14.655 -0.0161 -1.0609  0.8818
  781TIP3   OH223757   5.393   1.244   5.238 -0.3777  0.1793 -0.2534
  781TIP3    H123758   5.402   1.335   5.266  0.6766  0.1600 -0.5022
  781TIP3    H223759   5.438   1.193   5.306 -0.1275 -0.0803 -0.6123
  782TIP3   OH223760   2.182   5.005   0.163 -0.0089 -0.4176  0.3221
  782TIP3    H123761   2.250   5.066   0.193 -0.4592 -0.2500  1.0296
  782TIP3    H223762   2.125   5.058   0.108  0.0835 -0.4108  0.2313
  783TIP3   OH223763   4.560   2.122   4.954  0.0505 -0.3341 -0.2968
  783TIP3    H123764   4.492   2.087   4.896 -0.1351  1.4355 -1.2067
  783TIP3    H223765   4.641   2.116   4.903 -0.2167  1.8426 -1.0989
  784TIP3   OH223766   5.980   3.393   1.322 -0.0414 -0.0304 -0.5084
  784TIP3    H123767   5.896   3.431   1.348  0.0746  0.0859 -0.2973
  784TIP3    H223768   5.959   3.337   1.247 -0.2471  0.2901 -0.6941
  785TIP3   OH223769   5.706   5.295  14.129 -0.6736 -0.3272  0.1880
  785TIP3    H123770   5.775   5.269  14.068 -1.3920 -1.1273 -0.3134
  785TIP3    H223771   5.638   5.332  14.072 -1.6318 -1.6755  0.4000
  786TIP3   OH223772   1.674   0.686   3.414 -0.1846 -0.3252  0.5837
  786TIP3    H123773   1.701   0.677   3.322 -0.7537  0.5577  0.3178
  786TIP3    H223774   1.756   0.699   3.461  0.0804 -0.3456  0.1419
  787TIP3   OH223775   6.031   4.215   3.763  0.4324 -0.4491 -0.3617
  787TIP3    H123776   6.082   4.140   3.794  0.6480 -0.5058 -0.8316
  787TIP3    H223777   6.097   4.273   3.723  0.4707  0.6737  1.2592
  788TIP3   OH223778   1.121   6.714  13.824  0.3900 -0.1572  0.7771
  788TIP3    H123779   1.178   6.780  13.864  2.4532 -1.4887  0.2508
  788TIP3    H223780   1.171   6.633  13.831 -0.1312 -0.9062 -2.3445
  789TIP3   OH223781   1.112   2.370  15.847  0.0717 -0.2476 -0.2104
  789TIP3    H123782   1.116   2.285  15.892  0.4501  0.0417  0.3185
  789TIP3    H223783   1.064   2.352  15.766 -1.4356 -0.6150  0.7116
  790TIP3   OH223784   6.376   5.868  15.110  0.5273 -0.1966  0.4271
  790TIP3    H123785   6.359   5.912  15.194  1.7769  0.3805  0.4054
  790TIP3    H223786   6.291   5.832  15.085 -0.4339  1.6620  0.7779
  791TIP3   OH223787   3.231   6.502  13.854 -0.4618  0.0226  0.7728
  791TIP3    H123788   3.221   6.591  13.889 -0.0760 -0.1959  1.4421
  791TIP3    H223789   3.142   6.467  13.850 -0.4562 -0.2261  2.2649
  792TIP3   OH223790   4.994   3.536  14.786 -0.4683 -0.7603  0.2603
  792TIP3    H123791   4.976   3.579  14.703  1.6798 -0.5552 -0.1608
  792TIP3    H223792   4.926   3.469  14.794 -2.3018  0.9356 -0.3461
  793TIP3   OH223793   1.802   2.565   1.610 -0.0171 -0.2845  0.4022
  793TIP3    H123794   1.716   2.596   1.580 -0.0730 -1.1316 -0.3515
  793TIP3    H223795   1.787   2.475   1.637  0.6743 -0.5048  0.0726
  794TIP3   OH223796   2.976   1.592  12.929 -0.3517  0.4558 -0.3548
  794TIP3    H123797   2.891   1.559  12.898  0.2821 -1.1602 -0.4784
  794TIP3    H223798   2.954   1.658  12.995 -1.7087  1.5778 -1.8283
  795TIP3   OH223799   6.733   6.363  13.688 -0.2344  0.0656 -0.2252
  795TIP3    H123800   6.817   6.402  13.712 -0.3093  0.0856  0.0098
  795TIP3    H223801   6.709   6.310  13.765 -0.9509  0.9008  0.1418
  796TIP3   OH223802   3.864   6.609   2.884  0.2631 -0.4465 -0.2574
  796TIP3    H123803   3.854   6.690   2.834 -0.4501  1.5417  2.8189
  796TIP3    H223804   3.930   6.630   2.950 -1.3650 -1.6181  1.8880
  797TIP3   OH223805   1.431   2.396  11.424  0.0973  0.1385  0.1352
  797TIP3    H123806   1.483   2.317  11.441  0.2603  0.2541  0.1768
  797TIP3    H223807   1.414   2.394  11.330 -0.3285 -0.2099  0.2140
  798TIP3   OH223808   4.757   4.393  12.292 -0.1091  0.6550 -0.1847
  798TIP3    H123809   4.811   4.466  12.259  0.2776 -0.0275 -1.0829
  798TIP3    H223810   4.796   4.373  12.377  0.1568  1.1089 -0.1909
  799TIP3   OH223811   2.922   0.582   1.120 -0.7104 -0.7560  0.1839
  799TIP3    H123812   2.893   0.492   1.106  1.9566 -1.4134 -2.0197
  799TIP3    H223813   3.013   0.574   1.145 -0.7010  1.3406  1.0148
  800TIP3   OH223814   2.538   3.741  12.976 -0.4531 -0.3971  0.6798
  800TIP3    H123815   2.507   3.677  13.039  1.6840  1.0628  3.4429
  800TIP3    H223816   2.486   3.819  12.992  1.0304  0.4235  1.7112
  801TIP3   OH223817   5.067   2.051  13.764 -0.0405  0.8804 -0.6318
  801TIP3    H123818   5.116   2.092  13.692  0.3445 -0.3906 -1.1208
  801TIP3    H223819   5.070   1.957  13.745 -1.8794  0.6800 -0.1799
  802TIP3   OH223820   4.025   0.937   6.143 -0.2868 -0.2911  0.7284
  802TIP3    H123821   3.935   0.914   6.165 -1.1008  1.0582 -0.8914
  802TIP3    H223822   4.064   0.966   6.225 -1.5463 -0.2945  1.3435
  803TIP3   OH223823   3.901   1.398  11.415 -0.0485  0.5653  0.0414
  803TIP3    H123824   3.982   1.375  11.369 -0.5633 -0.6199 -0.3342
  803TIP3    H223825   3.913   1.489  11.442  1.9877 -0.0043  1.2598
  804TIP3   OH223826   4.429   3.134  11.947 -0.6666 -0.1210  0.0066
  804TIP3    H123827   4.372   3.199  11.907  0.3163  0.8646  0.1340
  804TIP3    H223828   4.467   3.086  11.874 -0.4077  0.3305 -0.1594
  805TIP3   OH223829   5.254   3.295   0.813 -0.0194  0.4249  0.0352
  805TIP3    H123830   5.197   3.260   0.745  0.2692 -0.5295  0.2722
  805TIP3    H223831   5.199   3.298   0.891 -0.1565  0.8987 -0.0705
  806TIP3   OH223832   4.050   1.836  13.000  0.0148  0.2899 -0.2898
  806TIP3    H123833   4.067   1.877  13.085 -1.2378  0.2609 -0.0024
  806TIP3    H223834   4.033   1.744  13.021  0.5360  0.1021 -0.6741
  807TIP3   OH223835   2.767   3.939  14.637 -0.3090  0.3809  0.3506
  807TIP3    H123836   2.706   3.866  14.645 -0.9551  0.7552 -0.8685
  807TIP3    H223837   2.840   3.916  14.694 -1.1107 -0.5706  1.0337
  808TIP3   OH223838   3.337   5.018  12.935  0.0279 -0.2794 -0.4550
  808TIP3    H123839   3.355   4.943  12.992  1.3078 -0.2536 -0.7921
  808TIP3    H223840   3.320   4.980  12.849  2.2313 -0.1737 -1.0048
  809TIP3   OH223841   3.897   4.433  13.458  0.1217 -0.1320  0.3338
  809TIP3    H123842   3.833   4.380  13.507 -0.5138  1.2576  1.0632
  809TIP3    H223843   3.960   4.462  13.525  0.6555 -0.2268 -0.1162
  810TIP3   OH223844   5.751   2.997   4.931  0.1479 -0.2480 -0.0980
  810TIP3    H123845   5.809   2.930   4.966 -1.1523 -1.6417 -0.5284
  810TIP3    H223846   5.741   3.059   5.004  0.0744 -1.3754  0.8906
  811TIP3   OH223847   3.545   2.940  16.862  0.3302 -0.0154 -0.0933
  811TIP3    H123848   3.573   3.012  16.806  1.9858 -0.8525 -0.3945
  811TIP3    H223849   3.611   2.937  16.931 -0.7470 -0.0900  0.9729
  812TIP3   OH223850   6.790   0.589  16.971  0.1764 -0.0294 -0.5008
  812TIP3    H123851   6.728   0.582  17.044 -0.9886 -1.4621 -1.5719
  812TIP3    H223852   6.762   0.667  16.923 -1.5099 -1.2151 -1.5504
  813TIP3   OH223853   0.926   6.026  11.898 -0.4520 -0.5089  0.0065
  813TIP3    H123854   0.862   5.974  11.947 -0.6630  1.0735  1.5198
  813TIP3    H223855   0.924   6.112  11.940  0.7747  0.3657 -1.6090
  814TIP3   OH223856   4.256   2.222  14.544  0.3674 -0.2664  0.0839
  814TIP3    H123857   4.182   2.180  14.501  0.8954 -1.1222 -0.0103
  814TIP3    H223858   4.224   2.243  14.632 -0.1582 -0.1085 -0.1412
  815TIP3   OH223859   3.145   1.146   4.469  0.0385 -0.1215 -0.4443
  815TIP3    H123860   3.073   1.111   4.417 -0.3976  0.3955 -0.1900
  815TIP3    H223861   3.191   1.205   4.410 -1.3095  1.5862  0.1604
  816TIP3   OH223862   0.792   0.602  15.512 -0.0758  0.6077 -0.6454
  816TIP3    H123863   0.781   0.609  15.417  1.1867 -0.9564 -0.9590
  816TIP3    H223864   0.774   0.510  15.531  0.2283  0.7840  0.5639
  817TIP3   OH223865   3.985   3.529  15.078 -0.0564 -0.3383 -0.4333
  817TIP3    H123866   3.909   3.479  15.048  0.8126 -0.8614 -1.8972
  817TIP3    H223867   4.041   3.464  15.121 -0.1846 -0.0553  0.1763
  818TIP3   OH223868   2.567   0.041   4.342  0.4480  0.4556 -0.7803
  818TIP3    H123869   2.592   0.006   4.427 -0.6289 -0.4027 -0.7937
  818TIP3    H223870   2.622  -0.007   4.279  2.0505  1.8704 -0.5472
  819TIP3   OH223871   0.342   1.454  11.337 -0.0818 -1.0177  0.3689
  819TIP3    H123872   0.247   1.443  11.346 -0.8682  4.0796  1.6617
  819TIP3    H223873   0.377   1.437  11.425 -0.4767  0.7913  0.9209
  820TIP3   OH223874   4.209   1.242  12.089 -0.0956  0.1910 -0.5142
  820TIP3    H123875   4.227   1.336  12.088 -0.2328  0.2230 -2.0229
  820TIP3    H223876   4.273   1.204  12.028  0.7445 -0.8709  0.9483
  821TIP3   OH223877   0.936   4.232  12.749 -0.2335  0.0852 -0.6346
  821TIP3    H123878   0.931   4.149  12.702  0.9090  0.8441 -2.1984
  821TIP3    H223879   0.986   4.289  12.691 -3.2779  2.7426 -0.8920
  822TIP3   OH223880   4.901   4.193   4.180  0.0209 -0.2619  0.0283
  822TIP3    H123881   4.979   4.248   4.185 -0.8262  1.0827 -1.0432
  822TIP3    H223882   4.917   4.136   4.104  0.4234 -0.7762  0.4864
  823TIP3   OH223883   0.267   0.897  16.082  0.2887  0.5039  0.1528
  823TIP3    H123884   0.225   0.913  16.166 -1.8749 -0.2072 -0.7283
  823TIP3    H223885   0.325   0.823  16.097  0.7770  1.0861  1.2534
  824TIP3   OH223886   4.712   3.219   4.640  0.1273  0.0713 -0.8018
  824TIP3    H123887   4.764   3.141   4.625  0.1288 -0.3847  1.1983
  824TIP3    H223888   4.624   3.196   4.608 -0.0147 -1.0073  0.2542
  825TIP3   OH223889   2.182   1.285   3.762 -0.0330  0.1102 -0.6097
  825TIP3    H123890   2.264   1.333   3.774  0.1012 -0.3842  0.5413
  825TIP3    H223891   2.119   1.332   3.817 -0.0899 -0.5487 -0.1040
  826TIP3   OH223892   0.136   3.610  13.134 -0.1551 -0.0403  0.0528
  826TIP3    H123893   0.151   3.555  13.057 -0.2282  0.4229 -0.2961
  826TIP3    H223894   0.224   3.634  13.164 -0.0275 -1.7770  1.2800
  827TIP3   OH223895   3.630   4.429   3.828  0.4022  0.2516  0.2459
  827TIP3    H123896   3.685   4.358   3.796  0.0047 -0.4003  0.9454
  827TIP3    H223897   3.593   4.394   3.910 -2.6834 -0.2043 -1.2005
  828TIP3   OH223898   5.974   3.758  11.901  0.5068  0.5665  0.5247
  828TIP3    H123899   5.896   3.800  11.865  1.0708  2.2927  1.1736
  828TIP3    H223900   5.963   3.764  11.996 -0.4892 -2.9844  0.7485
  829TIP3   OH223901   5.699   5.830  13.519  0.2480 -0.2688  0.8971
  829TIP3    H123902   5.724   5.875  13.600  1.2796  1.5212 -0.3607
  829TIP3    H223903   5.687   5.738  13.546 -0.5754  0.4485  3.2793
  830TIP3   OH223904   1.249   6.118  14.924 -1.1622  0.2494  0.0860
  830TIP3    H123905   1.199   6.053  14.974 -1.1976  0.6748  0.6142
  830TIP3    H223906   1.261   6.191  14.985 -2.8973  1.6250 -1.1185
  831TIP3   OH223907   4.894   2.628  14.480  0.2323  0.4352 -0.1965
  831TIP3    H123908   4.852   2.705  14.518 -1.8546 -0.8334  0.2970
  831TIP3    H223909   4.822   2.579  14.441  1.4271 -1.4074 -0.2209
  832TIP3   OH223910   1.032   5.670   1.657  0.2971 -0.7190 -1.1853
  832TIP3    H123911   0.969   5.698   1.723 -0.3284  0.6392 -2.2868
  832TIP3    H223912   1.086   5.604   1.700  1.6057  1.8938  1.5065
  833TIP3   OH223913   5.810   6.680  15.365  0.5676  0.1047 -0.4417
  833TIP3    H123914   5.769   6.687  15.279  0.5674 -0.7987 -0.5238
  833TIP3    H223915   5.877   6.613  15.354 -0.1007 -0.7415  0.5080
  834TIP3   OH223916   2.325   2.103   0.084 -0.0010  0.4526  0.0678
  834TIP3    H123917   2.270   2.171   0.123 -0.6728  0.4968 -0.9142
  834TIP3    H223918   2.390   2.083   0.151 -0.5122  1.2275  0.8148
  835TIP3   OH223919   6.379   4.256   0.868  0.4499  0.2827  0.2366
  835TIP3    H123920   6.401   4.248   0.775 -0.1685 -0.0708  0.1123
  835TIP3    H223921   6.375   4.165   0.899  0.9295  0.4097  0.6749
  836TIP3   OH223922   0.282   4.948   1.627 -0.2277  0.3695  0.1290
  836TIP3    H123923   0.308   4.945   1.535 -0.8178  0.0580 -0.0323
  836TIP3    H223924   0.215   4.881   1.635 -0.3926  0.6006  0.7219
  837TIP3   OH223925   4.044   2.693  17.126 -0.7439 -0.1807  0.5012
  837TIP3    H123926   4.034   2.614  17.178 -1.3087  0.3775  1.2567
  837TIP3    H223927   4.131   2.686  17.087 -0.1334 -0.3990  1.8752
  838TIP3   OH223928   0.854   3.290  15.464  0.3111 -0.1457 -0.0492
  838TIP3    H123929   0.820   3.235  15.534  0.7762  1.0318  1.1516
  838TIP3    H223930   0.780   3.346  15.440  0.6949  0.8081  0.9194
  839TIP3   OH223931   2.931   1.786  15.104 -0.6240  0.2849 -0.0407
  839TIP3    H123932   2.849   1.782  15.055 -0.4225 -0.6642 -0.3182
  839TIP3    H223933   2.980   1.709  15.076  0.5915  1.1091 -0.2498
  840TIP3   OH223934   2.488   3.836  10.528 -0.8112 -0.0072  0.3788
  840TIP3    H123935   2.548   3.774  10.487 -1.6188 -1.0255  0.6932
  840TIP3    H223936   2.519   3.846  10.618 -0.8346 -0.1588  0.4021
  841TIP3   OH223937   4.430   5.884   3.102 -0.8504 -0.9863 -0.1505
  841TIP3    H123938   4.457   5.946   3.034 -1.2790 -0.9914 -0.3335
  841TIP3    H223939   4.372   5.823   3.056  0.4270 -2.1968 -0.2342
  842TIP3   OH223940   0.806   0.557   4.103 -0.1263  0.3867 -0.0484
  842TIP3    H123941   0.746   0.544   4.176 -0.7479 -0.3610 -0.6665
  842TIP3    H223942   0.833   0.649   4.109 -0.4693  0.4309  0.8797
  843TIP3   OH223943   4.373   1.297   2.043 -0.5076 -0.8247 -0.3442
  843TIP3    H123944   4.316   1.374   2.052 -0.4874 -0.9288  0.8459
  843TIP3    H223945   4.351   1.242   2.118  0.5621 -1.2630 -0.3294
  844TIP3   OH223946   4.892   0.519   0.879 -0.3241 -0.0662  0.6073
  844TIP3    H123947   4.905   0.467   0.957  0.9031  0.0956  0.5228
  844TIP3    H223948   4.801   0.550   0.886 -1.9986 -4.0989 -0.5194
  845TIP3   OH223949   4.248   0.731  16.299 -0.3643 -0.0804  0.0380
  845TIP3    H123950   4.220   0.666  16.364 -0.4678 -0.0076  0.0664
  845TIP3    H223951   4.312   0.785  16.346 -0.9545  0.4059  0.2955
  846TIP3   OH223952   4.562   2.057   1.382 -0.4038 -0.3889 -0.2197
  846TIP3    H123953   4.592   2.146   1.364  2.0365 -1.2011 -0.5035
  846TIP3    H223954   4.523   2.062   1.470  2.8181  0.3589  1.3085
  847TIP3   OH223955   5.492   3.575   4.466  0.4365  0.9226 -0.2778
  847TIP3    H123956   5.466   3.490   4.501  0.8268  0.7304 -0.4491
  847TIP3    H223957   5.528   3.556   4.379  0.3596  1.2823 -0.3930
  848TIP3   OH223958   2.173   5.130   2.922  0.1961 -0.0579  0.1537
  848TIP3    H123959   2.258   5.087   2.936  0.4360  0.4031  0.1285
  848TIP3    H223960   2.141   5.151   3.009 -1.3349 -2.9267  0.4138
  849TIP3   OH223961   4.009   4.718   4.923 -0.8315 -0.2119 -0.0628
  849TIP3    H123962   4.039   4.627   4.924 -0.5778 -0.1255  0.9481
  849TIP3    H223963   3.954   4.726   5.001 -1.1084  0.4252 -0.3166
  850TIP3   OH223964   0.703   2.239  11.963 -0.6918  0.0791 -0.4299
  850TIP3    H123965   0.696   2.145  11.980  2.3185 -0.6596 -2.3923
  850TIP3    H223966   0.623   2.261  11.915 -1.1929 -1.6301 -0.4331
  851TIP3   OH223967   2.547   0.054  11.892  0.5089  0.3740 -0.8313
  851TIP3    H123968   2.486  -0.019  11.887 -0.2240  0.9890 -1.1526
  851TIP3    H223969   2.549   0.090  11.804  1.6793  0.1087 -0.9278
  852TIP3   OH223970   6.688   4.212  15.026 -0.0018  0.0301  0.2358
  852TIP3    H123971   6.700   4.117  15.026 -1.2877 -0.1511 -1.0213
  852TIP3    H223972   6.595   4.225  15.042  0.1626  1.1033  0.4096
  853TIP3   OH223973   1.810   0.454  16.699 -0.0555  0.1064  0.4941
  853TIP3    H123974   1.810   0.525  16.634 -0.3522 -0.8011 -0.5273
  853TIP3    H223975   1.899   0.454  16.734  0.5058 -0.1816 -0.8416
  854TIP3   OH223976   3.561   4.122   5.468  0.1917 -0.1631  0.7225
  854TIP3    H123977   3.590   4.212   5.451 -0.3396 -0.1080  0.0680
  854TIP3    H223978   3.541   4.121   5.562 -1.5218  0.9243  0.4219
  855TIP3   OH223979   5.025   3.649  11.376  0.1232 -0.0145  0.2128
  855TIP3    H123980   5.040   3.570  11.427  0.3380  0.6527  1.2228
  855TIP3    H223981   4.939   3.637  11.335 -0.0893 -0.5269  0.8114
  856TIP3   OH223982   5.318   5.872  16.028 -0.2292 -0.0613 -0.0110
  856TIP3    H123983   5.345   5.842  15.941  1.5458 -0.8311  0.7493
  856TIP3    H223984   5.349   5.962  16.033 -2.4734  0.8325 -1.0138
  857TIP3   OH223985   3.724   0.123  16.611 -0.0903  0.5506 -0.2629
  857TIP3    H123986   3.798   0.067  16.634 -0.0583  0.8604  0.4255
  857TIP3    H223987   3.646   0.070  16.628 -0.1079  1.1311  1.6663
  858TIP3   OH223988   3.574   5.933  17.086  0.2086 -0.1462  0.4188
  858TIP3    H123989   3.595   5.845  17.117 -1.3737 -0.2607  1.2853
  858TIP3    H223990   3.483   5.926  17.056  0.0115  1.2129  0.6459
  859TIP3   OH223991   2.347   4.553  13.514 -0.1283 -0.1658 -0.1057
  859TIP3    H123992   2.365   4.599  13.432 -2.5522  1.4070  0.1359
  859TIP3    H223993   2.298   4.616  13.567 -0.7967 -1.9726  1.5483
  860TIP3   OH223994   4.209   0.122   4.615 -0.0380 -0.5070 -0.2421
  860TIP3    H123995   4.132   0.083   4.574 -1.0431  1.1179  0.0170
  860TIP3    H223996   4.185   0.213   4.630  0.7184 -0.7150  2.8922
  861TIP3   OH223997   0.836   5.682   3.751 -0.6277  0.3047  0.2876
  861TIP3    H123998   0.791   5.717   3.674  1.1084  0.3898 -0.7383
  861TIP3    H223999   0.820   5.588   3.748 -1.3130  0.4095  0.3539
  862TIP3   OH224000   4.143   1.154   6.003  0.2565 -0.5729  0.6263
  862TIP3    H124001   4.076   1.095   6.039  0.3308 -0.6314  0.6689
  862TIP3    H224002   4.103   1.240   6.006 -0.6062 -0.8618 -1.2019
  863TIP3   OH224003   2.221   1.965   1.702 -0.1902 -0.0429  0.2696
  863TIP3    H124004   2.264   1.929   1.624 -0.6674  0.2759 -0.1523
  863TIP3    H224005   2.170   1.893   1.737  0.7693 -0.4617  0.8477
  864TIP3   OH224006   1.271   0.727  14.842  0.1460 -0.2056 -0.1312
  864TIP3    H124007   1.304   0.795  14.784 -1.2474 -0.4626 -1.2928
  864TIP3    H224008   1.214   0.673  14.786 -0.8773 -0.7486  1.3590
  865TIP3   OH224009   2.676   3.518  14.541  0.0434  0.5104 -0.5700
  865TIP3    H124010   2.643   3.602  14.571  1.7245  1.1704 -0.5033
  865TIP3    H224011   2.618   3.453  14.582  0.6025  1.4919  1.8901
  866TIP3   OH224012   2.127   2.046  10.862  0.5741  0.5012 -0.2555
  866TIP3    H124013   2.119   1.976  10.797  1.6500 -0.4383  0.5926
  866TIP3    H224014   2.204   2.095  10.833  0.5919  0.5503 -0.1202
  867TIP3   OH224015   1.876   5.081   4.249  0.0444  0.1449 -0.1675
  867TIP3    H124016   1.814   5.098   4.320  0.4803 -0.4810  0.3740
  867TIP3    H224017   1.854   4.993   4.218  0.4120  0.0724 -0.2264
  868TIP3   OH224018   1.499   3.193   2.983 -0.1118  0.3070 -0.1385
  868TIP3    H124019   1.566   3.238   2.931  0.8821 -0.8413  0.1000
  868TIP3    H224020   1.539   3.109   3.005 -1.4864 -0.2318  0.3767
  869TIP3   OH224021   0.010   3.362   0.020  0.2530 -0.1678  0.1784
  869TIP3    H124022   0.095   3.320   0.027  1.4132  1.4149 -2.6582
  869TIP3    H224023  -0.043   3.302  -0.033 -0.5894 -1.2991  2.2037
  870TIP3   OH224024   2.156   2.683  10.696 -0.0827  0.1866  0.6181
  870TIP3    H124025   2.103   2.736  10.755 -1.0129 -0.1169  0.0809
  870TIP3    H224026   2.175   2.740  10.622 -0.3214  0.0614  0.4566
  871TIP3   OH224027   0.814   0.357   3.285  0.1801 -1.5721 -0.5594
  871TIP3    H124028   0.724   0.328   3.270  0.6359 -2.0165 -2.7909
  871TIP3    H224029   0.811   0.452   3.269 -0.7378 -0.6328  3.9680
  872TIP3   OH224030   4.291   2.965   2.393 -0.4522  0.2300 -0.0993
  872TIP3    H124031   4.243   3.039   2.356 -1.4452  0.2882  1.1964
  872TIP3    H224032   4.310   2.992   2.483  3.3671  0.7869 -0.9222
  873TIP3   OH224033   3.357   4.810  15.309  0.0863 -0.5481  0.7113
  873TIP3    H124034   3.305   4.879  15.267  0.0893  0.3688  2.1391
  873TIP3    H224035   3.432   4.797  15.252 -0.0832  0.4144  0.2641
  874TIP3   OH224036   6.161   6.487   2.313  0.1013 -0.2648  0.0473
  874TIP3    H124037   6.217   6.562   2.291 -0.8599  0.1735 -0.9820
  874TIP3    H224038   6.209   6.411   2.281 -0.6010  0.2465 -2.3602
  875TIP3   OH224039   3.976   2.173  12.851  0.2866  0.5459  0.2213
  875TIP3    H124040   4.041   2.168  12.922  0.7176 -0.1876 -0.2047
  875TIP3    H224041   3.910   2.108  12.875 -0.5629  1.6332  0.8999
  876TIP3   OH224042   6.212   0.119  12.804 -0.6590 -0.2819 -0.1600
  876TIP3    H124043   6.147   0.187  12.820 -0.9792 -0.5754 -0.1927
  876TIP3    H224044   6.186   0.047  12.862  1.5347  0.7770  2.3264
  877TIP3   OH224045   1.399   2.956   0.052  0.1143  0.0388  0.0735
  877TIP3    H124046   1.314   2.976   0.092 -2.1469 -1.9132 -3.2040
  877TIP3    H224047   1.387   2.979  -0.040  3.5969  0.6479 -0.3344
  878TIP3   OH224048   4.061   2.777   0.963  0.5193  0.9322  0.2930
  878TIP3    H124049   4.123   2.804   1.030  0.4135  0.8573  0.4214
  878TIP3    H224050   4.097   2.812   0.881  2.0372 -1.2007 -0.0228
  879TIP3   OH224051   3.591   4.851  16.809 -0.1099  0.3838  0.5894
  879TIP3    H124052   3.661   4.805  16.762 -1.5521  0.0196 -1.2947
  879TIP3    H224053   3.617   4.943  16.807  0.6427  0.1766  0.5423
  880TIP3   OH224054   1.781   0.781   6.518  0.0173 -0.4555  0.7121
  880TIP3    H124055   1.840   0.832   6.574  1.1431  0.6876 -1.3885
  880TIP3    H224056   1.793   0.691   6.546  1.1959 -0.0116  1.7098
  881TIP3   OH224057   5.200   0.984   4.124 -0.3804  0.1156 -0.6336
  881TIP3    H124058   5.195   0.890   4.140 -1.7199 -0.2104 -2.7033
  881TIP3    H224059   5.265   0.993   4.054  0.3522  0.8467  0.1144
  882TIP3   OH224060   4.003   1.665  14.159  0.3012  0.5498 -0.1400
  882TIP3    H124061   4.040   1.586  14.199 -0.7107  0.7247  1.2155
  882TIP3    H224062   4.079   1.716  14.133  0.9809 -0.4049 -0.1101
  883TIP3   OH224063   2.896   2.128  13.435 -0.5376 -0.4816 -0.5547
  883TIP3    H124064   2.837   2.113  13.361  0.9098 -3.1905 -1.2824
  883TIP3    H224065   2.928   2.217  13.422 -1.8225 -0.1947 -2.0492
  884TIP3   OH224066   5.903   3.937   3.722  0.0561 -1.1413 -0.0592
  884TIP3    H124067   5.953   4.016   3.743  1.4704 -1.9806 -0.1653
  884TIP3    H224068   5.898   3.890   3.805 -2.2803 -0.1747  0.4162
  885TIP3   OH224069   5.371   6.270  16.489 -0.1021  0.1635  0.4831
  885TIP3    H124070   5.333   6.215  16.420 -3.7033 -0.8100  2.9532
  885TIP3    H224071   5.408   6.208  16.551 -2.6401  0.4015  2.4264
  886TIP3   OH224072   0.933   1.460   1.302 -0.4974 -0.1731 -0.7891
  886TIP3    H124073   0.935   1.380   1.354 -2.0404 -0.7480 -1.5383
  886TIP3    H224074   1.024   1.475   1.275  0.1608 -0.4018  1.2019
  887TIP3   OH224075   1.827   0.994   1.832 -0.2958 -0.4563 -0.1742
  887TIP3    H124076   1.891   1.043   1.781  1.0797 -0.7262  1.2014
  887TIP3    H224077   1.743   1.037   1.815  0.6634  1.5740  0.0035
  888TIP3   OH224078   0.091   3.499  13.701 -0.5095 -0.0363  0.8700
  888TIP3    H124079   0.000   3.482  13.676 -0.7641  0.9399  1.0954
  888TIP3    H224080   0.137   3.417  13.682 -0.9867  0.1474 -1.3679
  889TIP3   OH224081   0.502   6.103   4.714  0.1285  0.0985 -0.3573
  889TIP3    H124082   0.458   6.188   4.718  0.9574  0.5731 -0.9551
  889TIP3    H224083   0.558   6.102   4.792  0.3355  0.2285 -0.5034
  890TIP3   OH224084   0.044   1.323  10.957 -0.2957 -0.1649  0.0199
  890TIP3    H124085   0.076   1.239  10.991  1.5847  0.4474 -0.1313
  890TIP3    H224086   0.081   1.389  11.016  0.1666  0.6943 -1.1931
  891TIP3   OH224087   0.456   2.542  11.894  0.3304 -0.5392  0.5161
  891TIP3    H124088   0.483   2.618  11.843  1.6391 -1.1247  0.2960
  891TIP3    H224089   0.361   2.539  11.884  0.3471  0.5824 -0.1373
  892TIP3   OH224090   1.820   3.759  14.651 -0.1709 -0.2758  0.2651
  892TIP3    H124091   1.792   3.792  14.737 -0.7170 -0.8364  0.3086
  892TIP3    H224092   1.915   3.752  14.658  0.0495  1.8750  0.0384
  893TIP3   OH224093   4.693   5.888   2.127  0.2292 -0.0441 -0.3218
  893TIP3    H124094   4.672   5.795   2.137  2.4805 -0.5208  0.7479
  893TIP3    H224095   4.728   5.896   2.038  0.5484 -0.3464 -0.2255
  894TIP3   OH224096   1.417   1.469   3.903  0.4258  0.1689 -0.1238
  894TIP3    H124097   1.348   1.528   3.933  0.6780  0.0269  0.7602
  894TIP3    H224098   1.498   1.517   3.920  0.5623  0.2398 -0.9418
  895TIP3   OH224099   2.710   1.151   1.829 -0.6550  0.0509 -0.3964
  895TIP3    H124100   2.737   1.165   1.738 -0.1184 -1.5643 -0.5211
  895TIP3    H224101   2.634   1.093   1.823 -0.3898 -0.3652  0.1822
  896TIP3   OH224102   5.503   1.749  13.834  0.6583  0.1114  0.4943
  896TIP3    H124103   5.570   1.804  13.795  1.0372 -1.4501 -1.1895
  896TIP3    H224104   5.445   1.726  13.761 -1.4237  0.9321  1.7737
  897TIP3   OH224105   2.258   1.404  12.319  0.0585 -0.1596  0.5002
  897TIP3    H124106   2.184   1.439  12.369  0.5334  0.1969  0.9661
  897TIP3    H224107   2.293   1.480  12.271  0.1507 -0.3148  0.3209
  898TIP3   OH224108   6.460   0.278  10.786 -0.4006 -0.3044  0.4204
  898TIP3    H124109   6.445   0.351  10.846  0.0432 -0.7379  1.0711
  898TIP3    H224110   6.442   0.314  10.699  0.3994  0.7467  0.6704
  899TIP3   OH224111   2.659   6.107   3.167  0.5497 -0.7056 -0.3348
  899TIP3    H124112   2.730   6.171   3.172  0.4000 -0.5646  0.0316
  899TIP3    H224113   2.592   6.150   3.115 -0.6910  0.5711  2.1401
  900TIP3   OH224114   6.498   1.517   2.079  0.3454 -0.1363 -0.0192
  900TIP3    H124115   6.501   1.527   1.984 -3.8429 -0.8299 -0.4311
  900TIP3    H224116   6.505   1.423   2.094  2.7629  0.0776  0.6212
  901TIP3   OH224117   4.910   1.932  13.958  0.7076 -0.1657 -0.8182
  901TIP3    H124118   4.916   1.993  13.885  1.1634  0.7061 -0.0725
  901TIP3    H224119   5.000   1.904  13.974  0.9469  1.2766  0.7152
  902TIP3   OH224120   6.039   2.709   4.306 -0.0412  0.1383  0.3990
  902TIP3    H124121   6.106   2.754   4.357  0.9630 -0.0501 -0.7194
  902TIP3    H224122   6.057   2.616   4.320 -0.8619  0.0685  1.0860
  903TIP3   OH224123   4.530   0.306   5.399  0.0587 -0.1696  0.4800
  903TIP3    H124124   4.588   0.245   5.444 -0.8421 -1.5953 -0.2100
  903TIP3    H224125   4.475   0.342   5.469 -0.2120 -1.0942  0.7601
  904TIP3   OH224126   4.161   6.342  13.031  0.9483  0.2133  0.6886
  904TIP3    H124127   4.158   6.437  13.016  2.3018  0.3519  1.1528
  904TIP3    H224128   4.252   6.318  13.015  1.1758 -0.6042  2.8655
  905TIP3   OH224129   3.712   5.707  14.770  0.4745 -0.3233  0.4549
  905TIP3    H124130   3.755   5.621  14.766  1.4160  0.1720 -1.1116
  905TIP3    H224131   3.784   5.769  14.757 -0.4025  0.6395  0.1462
  906TIP3   OH224132   2.551   1.570   5.277 -0.2372 -0.8022 -0.8996
  906TIP3    H124133   2.607   1.581   5.200 -0.5235  1.6442 -0.8272
  906TIP3    H224134   2.597   1.613   5.348 -0.9507 -1.1880 -0.1796
  907TIP3   OH224135   4.690   2.020   5.552  1.0390 -0.2887 -0.5563
  907TIP3    H124136   4.686   1.925   5.564 -1.4621 -0.1810 -0.0145
  907TIP3    H224137   4.731   2.052   5.632  1.0275 -0.8551 -0.3149
  908TIP3   OH224138   2.810   0.290  13.590 -0.6022  0.2298 -0.1505
  908TIP3    H124139   2.801   0.218  13.652  0.5343 -2.0057 -2.3561
  908TIP3    H224140   2.762   0.261  13.513  0.2222  1.6480 -1.2629
  909TIP3   OH224141   5.889   5.905  10.796 -0.0953  0.1478  0.7888
  909TIP3    H124142   5.895   5.941  10.884 -1.7774  0.3313  0.8640
  909TIP3    H224143   5.799   5.873  10.789  1.2144 -4.0545  0.6995
  910TIP3   OH224144   2.731   0.425  13.165 -0.2024 -0.1061  0.6285
  910TIP3    H124145   2.781   0.428  13.084 -0.0017  0.9084  0.7777
  910TIP3    H224146   2.661   0.489  13.152 -0.0114  0.2554  1.3604
  911TIP3   OH224147   3.581   3.405  15.408  0.4624 -0.6585  0.1354
  911TIP3    H124148   3.506   3.443  15.362  0.3868  0.1940  0.9363
  911TIP3    H224149   3.552   3.317  15.431 -0.2765 -0.3575  0.3805
  912TIP3   OH224150   3.175   2.543  15.916 -0.3762 -0.4001 -0.3792
  912TIP3    H124151   3.150   2.452  15.928 -1.0770 -0.0999  0.4794
  912TIP3    H224152   3.102   2.594  15.952  1.7946  0.5225  3.2526
  913TIP3   OH224153   6.596   0.104   3.794 -0.2189  0.5301 -0.2061
  913TIP3    H124154   6.517   0.157   3.806 -1.6524 -1.5169 -0.0056
  913TIP3    H224155   6.620   0.076   3.882  0.5196  0.8198 -0.3078
  914TIP3   OH224156   4.952   5.884  15.663 -0.1907 -0.2089 -0.3575
  914TIP3    H124157   4.974   5.850  15.576 -0.1328  1.2575 -0.9415
  914TIP3    H224158   4.937   5.806  15.716 -0.6594 -1.1396 -1.7949
  915TIP3   OH224159   6.672   6.023  15.166 -0.0684 -0.5095  0.5619
  915TIP3    H124160   6.666   5.928  15.176 -1.2759 -0.5625 -0.3830
  915TIP3    H224161   6.582   6.054  15.180 -0.1156  0.2495 -1.1267
  916TIP3   OH224162   6.191   3.647  13.376  0.2580 -0.9065 -0.5873
  916TIP3    H124163   6.265   3.638  13.436 -1.1216  0.4502  1.5105
  916TIP3    H224164   6.230   3.653  13.289  2.5952 -0.2822  0.4180
  917TIP3   OH224165   1.240   4.101   0.786  0.1597 -0.1391 -0.2961
  917TIP3    H124166   1.206   4.190   0.786  0.8845  0.1536 -0.7361
  917TIP3    H224167   1.207   4.063   0.704 -1.7975 -0.9635  0.8072
  918TIP3   OH224168   0.355   5.988   2.966 -0.4857  0.2930  0.0614
  918TIP3    H124169   0.442   6.023   2.986 -0.0031  1.2801 -3.2611
  918TIP3    H224170   0.296   6.032   3.028  1.1213  0.9487  1.1756
  919TIP3   OH224171   4.166   3.208   2.066 -0.4730  0.1636  0.3738
  919TIP3    H124172   4.151   3.212   1.971  1.4092 -1.5875 -0.0561
  919TIP3    H224173   4.085   3.170   2.101 -1.4136  1.3313 -0.4172
  920TIP3   OH224174   6.034   2.153  16.967 -0.0110 -0.3340  0.2382
  920TIP3    H124175   5.958   2.113  16.926 -0.3266 -0.1776  0.6714
  920TIP3    H224176   6.078   2.080  17.011 -0.3167 -0.2949  0.6105
  921TIP3   OH224177   5.662   2.360  15.913  0.0172 -0.3792 -0.2140
  921TIP3    H124178   5.705   2.421  15.973 -0.2478 -0.6387  0.2437
  921TIP3    H224179   5.607   2.415  15.858 -0.2349 -0.2068  0.2098
  922TIP3   OH224180   0.168   1.034  11.468  0.5463  0.1626 -0.1474
  922TIP3    H124181   0.144   0.946  11.438  0.0058  0.8167 -1.6883
  922TIP3    H224182   0.254   1.022  11.507  0.7406 -0.9572 -0.8612
  923TIP3   OH224183   3.742   1.715   4.791  0.1845  0.4944  0.0416
  923TIP3    H124184   3.759   1.732   4.698 -0.8351  0.5247 -0.1513
  923TIP3    H224185   3.733   1.802   4.830 -1.7074  0.4965 -0.3016
  924TIP3   OH224186   2.069   5.196  16.655  0.2974 -0.4420  0.4338
  924TIP3    H124187   2.147   5.240  16.691 -1.0611  0.9472  1.8252
  924TIP3    H224188   2.024   5.265  16.607 -1.7309 -0.2927  2.4059
  925TIP3   OH224189   6.568   5.854   2.710 -0.0562 -0.0360  0.2657
  925TIP3    H124190   6.638   5.857   2.775 -2.0583  0.2070  2.5461
  925TIP3    H224191   6.512   5.781   2.738 -0.9176 -0.0157 -1.2876
  926TIP3   OH224192   5.693   6.252  17.228  0.2092 -0.1209  0.6773
  926TIP3    H124193   5.731   6.299  17.153 -0.0168  0.2814  0.8120
  926TIP3    H224194   5.725   6.162  17.219 -0.1680 -0.1738 -0.1383
  927TIP3   OH224195   0.906   6.409   3.649 -0.3116 -0.1082 -0.3049
  927TIP3    H124196   0.952   6.390   3.731  4.3887  1.3259 -2.2498
  927TIP3    H224197   0.875   6.324   3.618  1.4449 -1.3240  1.0720
  928TIP3   OH224198   0.910   1.153  10.450 -0.2344  0.4871  0.3828
  928TIP3    H124199   0.883   1.078  10.396  0.9752  1.2758 -1.4167
  928TIP3    H224200   1.005   1.153  10.446 -0.1811  1.5852  1.1457
  929TIP3   OH224201   1.953   5.111   1.256  0.3195  0.4457 -0.0438
  929TIP3    H124202   2.013   5.037   1.246  1.2312  1.3103 -1.1649
  929TIP3    H224203   1.889   5.100   1.186 -0.1206  0.2077  0.3863
  930TIP3   OH224204   4.343   2.734  12.033  0.5680 -0.5335  0.5229
  930TIP3    H124205   4.367   2.653  12.080 -0.0682 -0.7002  0.5742
  930TIP3    H224206   4.316   2.794  12.102 -1.3828 -1.1245  0.3453
  931TIP3   OH224207   3.120   1.114   5.321  0.4740 -0.4666  0.0234
  931TIP3    H124208   3.215   1.127   5.322  0.4416 -0.2156  0.8785
  931TIP3    H224209   3.094   1.125   5.412 -0.6927  1.8016 -0.5272
  932TIP3   OH224210   5.401   0.996   4.591 -0.1321 -0.0862  0.1037
  932TIP3    H124211   5.462   0.940   4.638 -0.7580 -3.6010 -2.8286
  932TIP3    H224212   5.315   0.975   4.629 -0.3138 -0.9284 -0.7156
  933TIP3   OH224213   6.313   6.551   1.492  0.1243 -0.8466 -0.4005
  933TIP3    H124214   6.251   6.499   1.544 -1.0570 -0.7068 -1.5829
  933TIP3    H224215   6.323   6.500   1.411 -0.5085  0.3807 -1.2901
  934TIP3   OH224216   0.775   1.661   5.545  0.1140  0.0047 -0.4344
  934TIP3    H124217   0.797   1.659   5.452  0.5455 -1.1310 -0.3181
  934TIP3    H224218   0.816   1.583   5.582 -0.5017  0.1499  0.6126
  935TIP3   OH224219   6.068   5.140   0.451  0.6556  0.2012  0.1545
  935TIP3    H124220   6.062   5.221   0.501  0.2331  0.7044 -0.6803
  935TIP3    H224221   6.111   5.165   0.369  0.8444 -0.4881  0.0335
  936TIP3   OH224222   1.728   4.524  11.293 -0.3139 -0.6594 -0.5624
  936TIP3    H124223   1.717   4.560  11.380 -1.0272 -0.1478 -0.8547
  936TIP3    H224224   1.786   4.448  11.305  0.6923  0.2036  0.1403
  937TIP3   OH224225   0.181   0.028  13.867  0.0758  0.2912 -0.1922
  937TIP3    H124226   0.125   0.075  13.805 -1.6106  0.4465  1.3791
  937TIP3    H224227   0.122  -0.004  13.934  1.7923 -0.1384  1.1969
  938TIP3   OH224228   4.451   4.107  16.956  0.1628 -0.0058  0.2174
  938TIP3    H124229   4.438   4.044  16.885 -1.0063  0.1294  0.3026
  938TIP3    H224230   4.463   4.191  16.912  0.3396 -0.0657  0.1519
  939TIP3   OH224231   5.128   4.217  13.775  0.0683  0.0389  0.0403
  939TIP3    H124232   5.068   4.143  13.774  0.2320 -0.1008  0.5554
  939TIP3    H224233   5.087   4.282  13.831 -0.7298  0.9046 -1.4701
  940TIP3   OH224234   1.321   5.176   5.957 -0.3145  0.1424 -0.2948
  940TIP3    H124235   1.301   5.254   5.905  0.2274 -0.9290 -2.2132
  940TIP3    H224236   1.237   5.152   5.997 -1.0911  0.2925 -1.7456
  941TIP3   OH224237   0.917   3.029  12.168  0.7382  0.2915  0.2878
  941TIP3    H124238   0.919   3.111  12.217  0.7722  1.8202 -2.1025
  941TIP3    H224239   0.864   2.971  12.222  0.5425  1.9381  1.9870
  942TIP3   OH224240   3.130   4.294  16.467 -0.2914 -0.1461 -0.4881
  942TIP3    H124241   3.189   4.364  16.492  0.0348 -0.9424  1.1014
  942TIP3    H224242   3.174   4.214  16.496 -1.2416 -0.9143 -1.0869
  943TIP3   OH224243   5.087   0.542  15.635 -0.1899  0.1015 -0.0236
  943TIP3    H124244   5.117   0.493  15.559 -0.7794 -0.2909 -0.0098
  943TIP3    H224245   5.011   0.493  15.667  0.3652 -0.0358  1.1399
  944TIP3   OH224246   1.797   2.700   4.241 -0.3126  0.3654  0.1699
  944TIP3    H124247   1.838   2.621   4.276  1.7107  0.5403 -1.6118
  944TIP3    H224248   1.852   2.725   4.167 -3.3525  0.9897 -2.0638
  945TIP3   OH224249   1.784   4.574   0.715 -0.6456  0.3482  0.0984
  945TIP3    H124250   1.803   4.649   0.773 -0.5431 -0.4793  1.1663
  945TIP3    H224251   1.839   4.589   0.638  0.5226  0.6115  0.9438
  946TIP3   OH224252   3.816   1.798   1.487 -0.1532  0.3167 -0.4955
  946TIP3    H124253   3.773   1.881   1.468 -0.0535  0.7570  1.1161
  946TIP3    H224254   3.888   1.794   1.424 -0.5353  1.1560 -1.0002
  947TIP3   OH224255   0.674   0.436   4.614 -0.4776  0.2274  0.2490
  947TIP3    H124256   0.594   0.452   4.564 -1.0817 -0.2975  1.0172
  947TIP3    H224257   0.645   0.432   4.705  0.4423  0.1193  0.5533
  948TIP3   OH224258   5.511   0.223  14.654 -0.1259 -0.1191 -0.4298
  948TIP3    H124259   5.489   0.285  14.723 -0.4242 -0.2388 -0.4167
  948TIP3    H224260   5.427   0.187  14.626  0.1839 -2.4213  1.3298
  949TIP3   OH224261   5.931   5.009   0.895 -0.0603 -0.4861  0.0794
  949TIP3    H124262   5.995   5.045   0.834 -0.5553 -0.7000 -0.5864
  949TIP3    H224263   5.849   5.007   0.845 -0.8754  0.8849  1.2787
  950TIP3   OH224264   0.492   5.187  13.793 -0.1005 -0.2427 -0.9506
  950TIP3    H124265   0.492   5.103  13.747 -0.9355 -0.3638 -0.7503
  950TIP3    H224266   0.491   5.163  13.885  0.7844 -0.0017 -0.8758
  951TIP3   OH224267   2.856   1.225  11.295 -0.4233 -0.2461 -0.3852
  951TIP3    H124268   2.773   1.231  11.343 -0.4555 -0.5044 -0.4078
  951TIP3    H224269   2.860   1.134  11.266  0.2220 -0.4268  0.2523
  952TIP3   OH224270   5.757   6.003   0.116  0.8383  0.9280 -0.3491
  952TIP3    H124271   5.689   5.959   0.168 -0.5659  1.7706 -1.4001
  952TIP3    H224272   5.822   6.031   0.181  0.6954 -0.7348  0.5822
  953TIP3   OH224273   5.954   0.506  13.975 -0.4892 -0.1436  0.4337
  953TIP3    H124274   5.905   0.537  14.052 -1.6307 -0.1860 -0.2518
  953TIP3    H224275   5.903   0.432  13.942 -0.9640  0.9001 -1.3323
  954TIP3   OH224276   5.477   0.492  16.353 -0.5162  0.1597  0.1297
  954TIP3    H124277   5.448   0.577  16.321 -0.7871 -0.1808 -0.5491
  954TIP3    H224278   5.400   0.455  16.397 -0.2373  0.4918  0.9255
  955TIP3   OH224279   2.166   1.905   3.206 -0.1863 -0.5386  0.2070
  955TIP3    H124280   2.098   1.852   3.248  0.2095 -1.7539 -0.6334
  955TIP3    H224281   2.242   1.897   3.264 -1.0951  1.9836  1.9124
  956TIP3   OH224282   0.515   0.608   0.801  0.3106  0.3569 -0.4890
  956TIP3    H124283   0.499   0.693   0.761  1.5017  0.3572 -1.0395
  956TIP3    H224284   0.482   0.545   0.737  0.8839  0.3870 -0.8232
  957TIP3   OH224285   2.091   1.286  15.172 -0.7841 -0.4000 -0.2575
  957TIP3    H124286   2.033   1.309  15.245 -1.2888 -0.5506 -0.6048
  957TIP3    H224287   2.158   1.231  15.211 -1.6736 -1.4054 -0.0958
  958TIP3   OH224288   2.961   2.643  16.900  0.1827  0.2577 -0.3553
  958TIP3    H124289   2.943   2.665  16.991 -0.6341 -0.4586 -0.3315
  958TIP3    H224290   2.877   2.612  16.866  0.5013  0.4271 -1.3267
  959TIP3   OH224291   0.478   1.559  13.890  0.2231  0.0889  0.7911
  959TIP3    H124292   0.478   1.645  13.847  1.7608 -0.4155 -0.2793
  959TIP3    H224293   0.462   1.579  13.982 -0.6434  1.4154  0.3880
  960TIP3   OH224294   2.575   0.318   1.307 -0.3470  0.1183  0.6951
  960TIP3    H124295   2.619   0.308   1.392  1.0962 -0.3636 -0.0684
  960TIP3    H224296   2.644   0.350   1.249 -1.0969 -0.3639 -0.4895
  961TIP3   OH224297   0.541   1.086  14.261 -0.3279  0.0416  0.0784
  961TIP3    H124298   0.509   1.045  14.341 -0.9491 -0.4507 -0.4127
  961TIP3    H224299   0.602   1.153  14.291 -1.4550  0.6781  1.0230
  962TIP3   OH224300   0.958   1.775  14.992  0.2578  0.0477 -0.3147
  962TIP3    H124301   0.902   1.701  14.966 -2.0727  0.2448  3.3963
  962TIP3    H224302   1.047   1.740  14.990 -0.6293 -2.4263 -0.1543
  963TIP3   OH224303   2.881   0.488   3.412 -0.2204  0.1733  0.0567
  963TIP3    H124304   2.922   0.477   3.326  0.4481  0.6635  0.3039
  963TIP3    H224305   2.839   0.574   3.407 -1.2425 -0.3286 -0.1970
  964TIP3   OH224306   6.364   5.067  10.628 -0.2495  0.3916 -0.0484
  964TIP3    H124307   6.395   5.095  10.541  0.5672 -0.6648 -0.1138
  964TIP3    H224308   6.312   5.141  10.659  1.3099  1.7266 -0.4800
  965TIP3   OH224309   4.440   1.843  16.333  0.1314 -0.2295 -0.0475
  965TIP3    H124310   4.505   1.893  16.282  2.4471 -0.9580  2.0060
  965TIP3    H224311   4.372   1.907  16.353 -0.2175  0.4085 -2.8197
  966TIP3   OH224312   4.232   4.313  16.817  0.1757  0.6542 -0.6013
  966TIP3    H124313   4.315   4.354  16.842 -0.2524  1.0307  0.2629
  966TIP3    H224314   4.250   4.272  16.732  1.4053  0.2128 -0.1526
  967TIP3   OH224315   3.209   3.211   3.654  0.6025  0.5906 -0.1911
  967TIP3    H124316   3.191   3.305   3.649 -0.4903  0.3727 -0.5661
  967TIP3    H224317   3.246   3.199   3.742  3.3476  1.7563 -1.0813
  968TIP3   OH224318   6.194   6.254   3.576  0.4579 -0.6144 -0.6554
  968TIP3    H124319   6.119   6.279   3.522  1.3643 -1.6433 -2.4626
  968TIP3    H224320   6.265   6.312   3.548  0.5666 -0.1596  0.5037
  969TIP3   OH224321   0.719   2.650  15.754  0.1893 -0.0270 -0.1823
  969TIP3    H124322   0.781   2.688  15.816 -0.5704  0.4384  0.2861
  969TIP3    H224323   0.645   2.710  15.752 -0.8524 -1.2595  0.2724
  970TIP3   OH224324   0.610   2.653   2.806 -0.5628  0.2602 -0.2834
  970TIP3    H124325   0.563   2.571   2.819  0.2827 -0.0883  0.7085
  970TIP3    H224326   0.544   2.721   2.820 -0.7818 -0.2175  1.1906
  971TIP3   OH224327   1.757   5.736   5.900 -1.3205  0.1573 -0.5009
  971TIP3    H124328   1.848   5.712   5.882 -1.1906  0.8838 -0.8209
  971TIP3    H224329   1.751   5.738   5.995 -1.4890 -1.7061 -0.4235
  972TIP3   OH224330   6.076   1.023  16.903  0.1093  0.4821 -0.2403
  972TIP3    H124331   5.982   1.005  16.902  0.0515  0.7800 -0.6380
  972TIP3    H224332   6.092   1.071  16.821  1.0178 -1.7087 -1.4477
  973TIP3   OH224333   4.744   5.090   1.817  0.6975  0.2166  0.0912
  973TIP3    H124334   4.836   5.069   1.798  0.5995 -1.3357  1.0781
  973TIP3    H224335   4.707   5.007   1.847 -0.7308  1.0902  0.8495
  974TIP3   OH224336   2.645   5.937  13.542 -0.2812  0.0658 -0.2920
  974TIP3    H124337   2.565   5.912  13.588  0.8577 -0.3132  1.6516
  974TIP3    H224338   2.641   5.892  13.458 -1.5426 -0.9447  0.2786
  975TIP3   OH224339   5.854   1.781   2.065 -0.4249  0.0321  0.0444
  975TIP3    H124340   5.822   1.694   2.039  1.9498 -0.5481 -1.2225
  975TIP3    H224341   5.942   1.765   2.098 -0.1408  1.9259  0.2898
  976TIP3   OH224342   4.127   4.984  11.729 -0.0544 -0.3765 -0.5149
  976TIP3    H124343   4.076   5.041  11.671  0.4102  1.5668  0.8961
  976TIP3    H224344   4.061   4.935  11.778 -0.4585 -1.9769 -2.4928
  977TIP3   OH224345   1.929   0.970   6.110  0.1206 -0.1018 -0.4297
  977TIP3    H124346   1.836   0.988   6.100  0.3866  0.8208 -1.4412
  977TIP3    H224347   1.938   0.877   6.088 -0.8583 -0.8305  1.9461
  978TIP3   OH224348   6.567   0.327   5.059 -0.0668  0.2591 -0.0089
  978TIP3    H124349   6.597   0.390   5.125 -0.5956 -0.0025  0.4940
  978TIP3    H224350   6.638   0.323   4.995  1.4788 -1.1191  1.6687
  979TIP3   OH224351   5.727   1.289  12.540 -1.2252  0.0528  0.3062
  979TIP3    H124352   5.810   1.259  12.504 -0.8916 -0.4023  1.4092
  979TIP3    H224353   5.681   1.328  12.466 -0.7790 -1.3024 -0.7376
  980TIP3   OH224354   5.878   6.279   4.127 -0.6655 -0.2744 -0.0591
  980TIP3    H124355   5.855   6.208   4.188 -1.1324  0.3872  0.5398
  980TIP3    H224356   5.800   6.290   4.073 -0.9240  0.3798  0.4355
  981TIP3   OH224357   6.089   3.044   5.958 -0.2914 -0.5584 -0.4555
  981TIP3    H124358   6.156   2.999   5.906  0.1761 -0.0492 -0.3043
  981TIP3    H224359   6.128   3.052   6.045  0.6255  2.1616 -1.0092
  982TIP3   OH224360   4.273   0.061  15.795 -0.1507 -0.3669  0.1667
  982TIP3    H124361   4.224   0.135  15.760  0.1328  0.2950  1.1262
  982TIP3    H224362   4.361   0.071  15.757 -0.4024 -0.8507 -0.5708
  983TIP3   OH224363   2.662   0.633  13.868 -0.2185 -0.0970  0.1727
  983TIP3    H124364   2.690   0.637  13.959  1.8311  2.6084 -0.4412
  983TIP3    H224365   2.620   0.717  13.852  0.5046 -0.0458 -1.6651
  984TIP3   OH224366   5.534   4.035   1.075  0.2749  0.2991  0.3627
  984TIP3    H124367   5.611   4.002   1.121  1.1334  0.2850 -1.0279
  984TIP3    H224368   5.503   3.960   1.024  0.4625  0.8176 -0.5203
  985TIP3   OH224369   5.754   2.404  16.152 -0.2484  0.0206 -0.6158
  985TIP3    H124370   5.837   2.452  16.163 -0.0099 -0.3217 -0.9071
  985TIP3    H224371   5.779   2.312  16.156 -0.5779 -0.0863 -0.9951
  986TIP3   OH224372   1.042   1.953   0.778 -0.0670 -0.1612  0.2035
  986TIP3    H124373   1.074   2.016   0.713  1.2768  0.0456  1.0190
  986TIP3    H224374   1.122   1.913   0.814 -0.7643 -0.2215  1.7740
  987TIP3   OH224375   1.772   0.454   1.794  0.1492 -0.2731  0.0225
  987TIP3    H124376   1.831   0.442   1.720  1.2201  1.4557  0.5299
  987TIP3    H224377   1.824   0.427   1.870  0.2436  1.0402  0.4506
  988TIP3   OH224378   3.633   5.526  15.032  0.0132  0.0216 -0.2872
  988TIP3    H124379   3.572   5.464  15.072  1.5543 -1.0719  0.5147
  988TIP3    H224380   3.632   5.506  14.939  0.2258 -0.9991 -0.0782
  989TIP3   OH224381   2.825   4.708   5.652  0.0764 -0.6876  0.9482
  989TIP3    H124382   2.807   4.620   5.619  0.3655 -0.2753 -0.3562
  989TIP3    H224383   2.906   4.734   5.609  1.4676 -0.7793  3.3348
  990TIP3   OH224384   3.525   4.554   1.716 -0.2740  0.0164  0.4372
  990TIP3    H124385   3.486   4.586   1.635  0.9037  0.6388  0.0919
  990TIP3    H224386   3.566   4.471   1.691 -3.4787 -2.0376  1.3680
  991TIP3   OH224387   5.728   5.938   4.068  0.4921  0.2687  0.0849
  991TIP3    H124388   5.709   5.966   3.979  0.1866 -0.7762 -0.1971
  991TIP3    H224389   5.783   5.860   4.057  0.0292 -0.1689  0.7884
  992TIP3   OH224390   5.454   2.534   3.522 -0.5341  0.0131 -0.1768
  992TIP3    H124391   5.548   2.524   3.506 -0.6532 -1.9371  0.1036
  992TIP3    H224392   5.445   2.622   3.559  1.2420  0.0495  0.2573
  993TIP3   OH224393   5.976   5.357  12.144  0.1885 -1.2349 -0.4826
  993TIP3    H124394   5.905   5.329  12.086 -1.4743  2.2762 -0.3610
  993TIP3    H224395   6.056   5.347  12.091 -0.8870 -1.2806 -2.1726
  994TIP3   OH224396   0.341   0.879  11.208  0.0960  0.1330  0.3951
  994TIP3    H124397   0.271   0.827  11.249 -0.5653 -0.0038 -0.8663
  994TIP3    H224398   0.401   0.814  11.173  0.4483  0.2496  0.7729
  995TIP3   OH224399   2.967   1.064  16.680  0.2492 -0.0481 -0.0247
  995TIP3    H124400   2.995   1.116  16.756 -0.6900 -0.2427  0.4682
  995TIP3    H224401   3.038   1.001  16.667  1.0243  0.8260 -0.1245
  996TIP3   OH224402   4.748   0.245  12.158 -0.0950  0.9825 -0.4285
  996TIP3    H124403   4.770   0.306  12.229 -0.3478  1.4124 -0.7193
  996TIP3    H224404   4.833   0.216  12.125  0.0606 -0.3962  1.0380
  997TIP3   OH224405   5.411   2.501   2.371  0.2944  0.0638  0.1354
  997TIP3    H124406   5.500   2.526   2.346  1.1448 -2.0710  0.8140
  997TIP3    H224407   5.415   2.489   2.466 -1.1843  1.5599  0.4335
  998TIP3   OH224408   2.456   2.252  15.688  0.5637 -0.2923  0.2078
  998TIP3    H124409   2.536   2.300  15.708  1.5606 -1.4086 -0.9092
  998TIP3    H224410   2.407   2.252  15.770  1.6730  0.4882  0.9032
  999TIP3   OH224411   6.137   4.427   6.374  0.2434  0.6547 -0.3126
  999TIP3    H124412   6.089   4.505   6.402 -0.1928 -0.2027  1.4350
  999TIP3    H224413   6.158   4.381   6.455 -0.1584 -1.4166 -1.3337
 1000TIP3   OH224414   1.329   3.651   2.372 -0.3687 -0.3103  0.1261
 1000TIP3    H124415   1.384   3.718   2.330  0.0877 -1.1442 -0.6304
 1000TIP3    H224416   1.252   3.699   2.402 -0.5313  0.3828 -1.3314
 1001TIP3   OH224417   6.212   4.450   3.733  0.4237  0.3099 -0.3008
 1001TIP3    H124418   6.280   4.384   3.722  0.0667 -0.5904  2.1456
 1001TIP3    H224419   6.232   4.491   3.817 -0.0846  2.5140 -1.1817
 1002TIP3   OH224420   2.563   4.120   4.043  0.2263  0.0637  0.2735
 1002TIP3    H124421   2.519   4.189   4.094  0.4802  0.3630  0.0849
 1002TIP3    H224422   2.611   4.069   4.109  1.5174  1.1580  0.2076
 1003TIP3   OH224423   5.030   3.768  14.974 -0.0957 -0.2068  0.4330
 1003TIP3    H124424   5.034   3.685  14.926  1.4024  0.1015  0.0069
 1003TIP3    H224425   5.029   3.741  15.067 -2.3977 -0.7716  0.3304
 1004TIP3   OH224426   4.788   6.328   2.383  0.6510 -0.1873 -0.1499
 1004TIP3    H124427   4.709   6.354   2.335  0.1860 -2.0308 -0.4545
 1004TIP3    H224428   4.760   6.326   2.474  0.8388  0.8274 -0.0560
 1005TIP3   OH224429   2.153   2.809   0.776  0.1382  0.1642  0.4483
 1005TIP3    H124430   2.095   2.884   0.787 -0.4373 -0.3619  1.0701
 1005TIP3    H224431   2.170   2.806   0.681 -1.0460  0.1829  0.2201
 1006TIP3   OH224432   2.608   0.089   2.842  0.8122 -0.1989  0.1767
 1006TIP3    H124433   2.623   0.162   2.903 -0.4835  0.5882 -0.3952
 1006TIP3    H224434   2.688   0.085   2.789  2.7466 -2.0451  2.9664
 1007TIP3   OH224435   1.561   2.154   3.267  0.4737 -0.2605 -0.0333
 1007TIP3    H124436   1.521   2.238   3.289 -0.0545 -0.4918 -0.0930
 1007TIP3    H224437   1.488   2.100   3.235  0.8502 -0.6579 -0.2332
 1008TIP3   OH224438   5.041   6.407   2.329  0.3729 -0.6150  0.1628
 1008TIP3    H124439   5.033   6.490   2.281  0.5677 -0.5448  0.2515
 1008TIP3    H224440   4.950   6.376   2.338  0.4000 -1.1376 -1.1277
 1009TIP3   OH224441   1.364   1.165   2.034 -0.5319  0.0240 -0.1024
 1009TIP3    H124442   1.454   1.194   2.050 -0.1135 -0.1178 -1.8750
 1009TIP3    H224443   1.352   1.090   2.092  0.5679 -0.0728  0.0212
 1010TIP3   OH224444   6.046   5.125   2.669  0.3006 -0.0004 -0.2351
 1010TIP3    H124445   6.058   5.109   2.575  0.6046 -0.5007 -0.1134
 1010TIP3    H224446   6.083   5.212   2.684  1.0371 -0.2829 -0.4166
 1011TIP3   OH224447   6.281   5.774   4.578  0.0929  0.1942  0.1813
 1011TIP3    H124448   6.195   5.738   4.558 -0.2165  1.4223 -0.8282
 1011TIP3    H224449   6.329   5.701   4.617 -0.0451 -1.7279 -2.9435
 1012TIP3   OH224450   3.223   2.693  16.486 -0.1794 -0.0406  0.0760
 1012TIP3    H124451   3.242   2.702  16.392 -1.6660 -3.2728 -0.6660
 1012TIP3    H224452   3.305   2.718  16.529  0.4268  1.9394 -1.9993
 1013TIP3   OH224453   5.076   6.596  15.162  0.1873 -1.2145 -0.1077
 1013TIP3    H124454   5.054   6.658  15.232  2.5160  2.6029 -2.4500
 1013TIP3    H224455   5.168   6.574  15.177  0.7486 -0.2691 -1.8916
 1014TIP3   OH224456   1.874   2.809   2.948 -0.0650  0.7381  0.1667
 1014TIP3    H124457   1.942   2.811   3.015  1.0757 -0.6141 -0.8957
 1014TIP3    H224458   1.800   2.856   2.988  0.5493 -0.0426  2.3744
 1015TIP3   OH224459   3.792   1.173   3.251 -0.1007 -0.1455  0.1378
 1015TIP3    H124460   3.702   1.171   3.218  0.3692 -1.9538 -1.1977
 1015TIP3    H224461   3.798   1.098   3.309  0.4145  0.2633  0.6184
 1016TIP3   OH224462   1.634   2.520   5.816  0.4043  0.0947 -0.0378
 1016TIP3    H124463   1.636   2.605   5.772  0.0213 -0.3186 -0.8973
 1016TIP3    H224464   1.678   2.534   5.899  0.3502  1.1317 -0.1727
 1017TIP3   OH224465   1.552   2.236   4.829  0.0278 -0.4259  0.3427
 1017TIP3    H124466   1.574   2.143   4.839  0.1048 -0.4291  0.1555
 1017TIP3    H224467   1.544   2.269   4.919  0.0176 -0.6093  0.4096
 1018TIP3   OH224468   3.781   0.378   1.381  0.6810  0.7674  0.2811
 1018TIP3    H124469   3.875   0.366   1.396  0.8841 -0.6569 -1.8174
 1018TIP3    H224470   3.764   0.336   1.297 -1.3490  3.3124 -0.7148
 1019TIP3   OH224471   3.075   0.382   0.850  0.1731 -0.2887 -0.0162
 1019TIP3    H124472   3.128   0.376   0.930 -1.4912  0.0322  1.1694
 1019TIP3    H224473   3.130   0.345   0.782  1.4450 -1.0774  1.3786
 1020TIP3   OH224474   4.334   1.827   1.472  0.2297 -0.4740 -0.4708
 1020TIP3    H124475   4.240   1.814   1.487  0.1285 -0.1235 -0.7818
 1020TIP3    H224476   4.368   1.854   1.557  0.1165 -0.9620 -0.2681
 1021TIP3   OH224477   6.017   3.909  15.525  0.3012  0.3684  0.0578
 1021TIP3    H124478   6.037   3.982  15.465  0.8845 -0.8914 -1.3431
 1021TIP3    H224479   6.076   3.922  15.599  1.0587  0.8182 -0.6022
 1022TIP3   OH224480   4.790   4.003  12.115 -0.0941  0.3186  0.4314
 1022TIP3    H124481   4.715   3.945  12.124  1.4323 -1.9492 -0.4851
 1022TIP3    H224482   4.767   4.062  12.043 -0.5334 -1.1806 -0.6996
 1023TIP3   OH224483   0.472   0.772   5.290 -0.3712 -0.2343  0.0225
 1023TIP3    H124484   0.438   0.828   5.360  0.1245  0.8477 -0.5898
 1023TIP3    H224485   0.405   0.705   5.279 -1.6747  1.0485 -0.2028
 1024TIP3   OH224486   0.013   0.753  15.787  0.3551  0.1064 -0.4735
 1024TIP3    H124487   0.032   0.681  15.847  0.8693 -0.2198 -1.0139
 1024TIP3    H224488  -0.012   0.709  15.705 -0.0870  0.5451 -0.5796
 1025TIP3   OH224489   2.995   6.180   3.940  0.1837  0.4792  0.4694
 1025TIP3    H124490   3.082   6.145   3.962 -0.3528  0.5645  3.0462
 1025TIP3    H224491   2.951   6.108   3.895  2.7947  1.6659 -4.7417
 1026TIP3   OH224492   2.932   3.199   5.637 -0.4040 -0.5844 -0.1310
 1026TIP3    H124493   2.900   3.220   5.549  0.8397  0.1505 -0.4385
 1026TIP3    H224494   3.021   3.166   5.623 -0.3838 -0.9575  0.8059
 1027TIP3   OH224495   0.547   6.313  12.182  0.4802 -1.0674  0.2407
 1027TIP3    H124496   0.525   6.298  12.274 -0.2173  0.4560  0.3609
 1027TIP3    H224497   0.500   6.393  12.159  0.1027 -1.7744 -1.6435
 1028TIP3   OH224498   5.200   2.794  15.011  0.0178  0.2895  0.5878
 1028TIP3    H124499   5.288   2.831  14.999 -0.2026  0.2032 -1.6985
 1028TIP3    H224500   5.207   2.704  14.977 -0.9643  0.3130  0.2941
 1029TIP3   OH224501   3.819   6.432   4.036 -0.1653 -0.1321 -0.2338
 1029TIP3    H124502   3.826   6.338   4.022  1.6023  0.0260 -0.6264
 1029TIP3    H224503   3.771   6.440   4.119 -0.0604 -1.3722 -0.0304
 1030TIP3   OH224504   1.233   6.497   0.453 -0.1142 -0.0000  0.1852
 1030TIP3    H124505   1.213   6.408   0.482 -4.5449  1.0475  1.2470
 1030TIP3    H224506   1.271   6.539   0.530  0.3054 -0.5202  0.2632
 1031TIP3   OH224507   4.207   0.800  12.076 -0.5006 -0.4236  0.2676
 1031TIP3    H124508   4.128   0.800  12.022 -0.4644 -2.0252  0.1481
 1031TIP3    H224509   4.273   0.755  12.022 -0.0284 -0.6975  1.0516
 1032TIP3   OH224510   2.134   3.972  15.951 -0.4163  0.1872 -0.8016
 1032TIP3    H124511   2.165   3.936  16.034 -1.3143  0.0261 -0.5221
 1032TIP3    H224512   2.126   4.066  15.966 -2.6384 -0.0592  0.0353
 1033TIP3   OH224513   0.995   3.440  13.613  0.7394 -0.6417  0.1047
 1033TIP3    H124514   1.006   3.466  13.704  0.6957  0.4499 -0.1916
 1033TIP3    H224515   0.915   3.387  13.613  1.3499 -1.5977  0.8749
 1034TIP3   OH224516   4.700   2.670   5.743 -1.3659  0.0220  0.0282
 1034TIP3    H124517   4.773   2.695   5.800 -2.2905  0.6159  0.9844
 1034TIP3    H224518   4.680   2.750   5.694 -1.7903  0.0501  0.2439
 1035TIP3   OH224519   4.772   3.001   2.720 -0.6699 -0.0888  0.0109
 1035TIP3    H124520   4.859   2.967   2.743 -1.2759 -1.8881 -0.2213
 1035TIP3    H224521   4.746   3.052   2.797  0.6965  0.7514 -0.0355
 1036TIP3   OH224522   5.001   5.701  15.879 -0.2584  0.4295 -0.8337
 1036TIP3    H124523   5.085   5.709  15.924 -1.0803 -0.7849  1.0535
 1036TIP3    H224524   4.981   5.607  15.882 -0.4809  0.3167 -3.6399
 1037TIP3   OH224525   2.193   5.434   2.432 -0.6142  0.1818  0.2555
 1037TIP3    H124526   2.185   5.437   2.527 -0.3341 -0.5416  0.3009
 1037TIP3    H224527   2.271   5.381   2.415 -1.4660 -0.8999 -0.4071
 1038TIP3   OH224528   0.102   6.480   0.205 -0.0457 -0.5092  0.7107
 1038TIP3    H124529   0.177   6.489   0.147  1.8581  0.6508  3.2011
 1038TIP3    H224530   0.051   6.560   0.192 -1.1228 -1.4405 -1.2155
 1039TIP3   OH224531   6.515   5.946   3.890  0.1894  0.3198  0.1260
 1039TIP3    H124532   6.475   6.005   3.954 -0.4862  1.0798 -0.9671
 1039TIP3    H224533   6.609   5.964   3.895  0.3542 -0.7934  2.0258
 1040TIP3   OH224534   6.727   2.330   5.720  0.5428 -0.0594  0.6851
 1040TIP3    H124535   6.769   2.405   5.762  0.7456  0.8930 -1.1084
 1040TIP3    H224536   6.635   2.356   5.713  0.7471  0.3873 -0.6196
 1041TIP3   OH224537   0.124   5.916   2.178  0.6762  0.0095  0.3234
 1041TIP3    H124538   0.218   5.911   2.159  0.4689  1.1468 -1.1984
 1041TIP3    H224539   0.110   6.008   2.201 -0.5919  0.7053 -2.8358
 1042TIP3   OH224540   2.349   5.587  12.005  0.2976  0.2313 -0.0632
 1042TIP3    H124541   2.285   5.614  12.071  0.9670  1.4537  0.1255
 1042TIP3    H224542   2.319   5.628  11.924 -0.3763 -1.0479 -0.4799
 1043TIP3   OH224543   3.520   4.532  14.794 -0.2229 -0.2713 -0.8522
 1043TIP3    H124544   3.522   4.590  14.870 -0.4581 -0.1298 -0.9517
 1043TIP3    H224545   3.557   4.584  14.723  0.9793 -0.7530 -0.6097
 1044TIP3   OH224546   5.295   2.388   3.112 -0.2238 -0.3394  0.0124
 1044TIP3    H124547   5.238   2.313   3.129 -2.6110  1.6405  1.3835
 1044TIP3    H224548   5.275   2.412   3.021  0.2375 -1.0853 -0.2952
 1045TIP3   OH224549   0.455   4.150  12.289  0.0930 -0.1670 -0.2184
 1045TIP3    H124550   0.550   4.146  12.296  0.0924  0.8722  0.6842
 1045TIP3    H224551   0.432   4.233  12.331 -1.0594  0.5101 -2.0737
 1046TIP3   OH224552   0.573   3.549   3.189 -0.0761 -0.1993 -0.3745
 1046TIP3    H124553   0.554   3.623   3.132 -1.2601 -1.4295 -1.6342
 1046TIP3    H224554   0.534   3.573   3.273 -1.0092  0.3487 -0.9513
 1047TIP3   OH224555   2.064   2.892  14.812  0.6007 -0.2533  0.0487
 1047TIP3    H124556   1.993   2.894  14.748 -2.2334 -0.6086  2.8789
 1047TIP3    H224557   2.047   2.812  14.863  2.8218 -0.1092  1.1338
 1048TIP3   OH224558   5.578   2.087  17.209  0.3929  0.6356  0.3973
 1048TIP3    H124559   5.666   2.095  17.247  0.7403 -0.8038 -0.0505
 1048TIP3    H224560   5.576   1.999  17.172 -1.5084  0.3683  1.0493
 1049TIP3   OH224561   5.344   0.947  14.472 -0.2442  0.9364  0.4259
 1049TIP3    H124562   5.375   0.976  14.558 -2.7006 -0.2011  1.8203
 1049TIP3    H224563   5.384   0.861  14.460 -0.9858  0.4648  1.1597
 1050TIP3   OH224564   1.247   4.664  15.040 -0.5768  0.0339 -0.2593
 1050TIP3    H124565   1.259   4.755  15.067 -2.8542  0.6251 -0.9767
 1050TIP3    H224566   1.171   4.633  15.090 -0.0887 -1.3539 -0.3221
 1051TIP3   OH224567   3.740   4.348   4.868  0.0491 -0.6855 -0.2097
 1051TIP3    H124568   3.680   4.297   4.814 -0.1568  1.2574 -1.9263
 1051TIP3    H224569   3.827   4.324   4.837 -0.0599  0.2367 -1.2829
 1052TIP3   OH224570   3.898   1.428  16.357 -0.1691  0.2366  0.7583
 1052TIP3    H124571   3.855   1.513  16.348  2.6267  1.5864 -1.2760
 1052TIP3    H224572   3.835   1.375  16.406 -3.2928  2.5543 -0.3694
 1053TIP3   OH224573   2.318   2.661  14.327 -0.6120 -0.1250  0.0400
 1053TIP3    H124574   2.383   2.632  14.263 -1.1776 -1.1969 -0.0687
 1053TIP3    H224575   2.341   2.752  14.345  1.5806 -0.7657  0.8033
 1054TIP3   OH224576   3.700   3.120   3.736  0.0789  0.1574  0.0623
 1054TIP3    H124577   3.624   3.068   3.708 -0.4254  0.6919  0.4059
 1054TIP3    H224578   3.760   3.057   3.775  0.3783 -0.4658 -1.3489
 1055TIP3   OH224579   5.126   1.711   2.382  0.5186 -0.2800 -0.1295
 1055TIP3    H124580   5.185   1.779   2.350  0.7555 -1.4768 -2.5205
 1055TIP3    H224581   5.038   1.744   2.362  0.6343 -0.6319 -1.3389
 1056TIP3   OH224582   0.307   1.173   5.345 -0.3199  0.4702 -0.3031
 1056TIP3    H124583   0.302   1.242   5.411 -1.1931  0.5360 -0.4309
 1056TIP3    H224584   0.397   1.179   5.311  0.4195 -0.0949  1.4266
 1057TIP3   OH224585   4.837   6.090   4.335 -0.1846 -0.3961 -0.2015
 1057TIP3    H124586   4.799   6.156   4.393 -0.7129 -0.9419  0.0911
 1057TIP3    H224587   4.772   6.079   4.266 -0.1372 -0.6778 -0.2007
 1058TIP3   OH224588   2.338   2.506   5.054  0.1750  0.2942 -0.0643
 1058TIP3    H124589   2.291   2.579   5.095 -1.2871  0.0558 -1.2253
 1058TIP3    H224590   2.269   2.444   5.030  1.2302 -0.6909 -0.6335
 1059TIP3   OH224591   1.878   3.535  14.496  0.1879  0.3850  0.1780
 1059TIP3    H124592   1.893   3.602  14.562  2.9999 -0.3197  0.3734
 1059TIP3    H224593   1.884   3.583  14.413 -3.0707  1.2178  0.2924
 1060TIP3   OH224594   1.706   5.215   3.794 -0.1432  0.4874  0.4759
 1060TIP3    H124595   1.735   5.224   3.884  1.9399  0.3353 -0.1262
 1060TIP3    H224596   1.786   5.193   3.745 -1.2669  0.2513 -1.3504
 1061TIP3   OH224597   6.671   2.234   2.961 -0.6689 -0.3418 -0.5258
 1061TIP3    H124598   6.737   2.288   2.917 -0.1605  0.1585  0.7830
 1061TIP3    H224599   6.681   2.256   3.054 -0.7925 -2.3202  0.0012
 1062TIP3   OH224600   6.388   1.328   2.941 -0.4484  0.4033  0.3570
 1062TIP3    H124601   6.418   1.256   2.885  1.6702  1.5033 -0.0203
 1062TIP3    H224602   6.442   1.320   3.020  1.3636  2.7492 -0.5401
 1063TIP3   OH224603   4.575   5.952   4.900  0.0736  0.6030  0.1110
 1063TIP3    H124604   4.509   5.919   4.839  0.9583  2.8300 -2.2063
 1063TIP3    H224605   4.658   5.927   4.860  0.6769  2.1698  0.3454
 1064TIP3   OH224606   3.173   6.509   1.579 -0.0315  0.0786  0.0821
 1064TIP3    H124607   3.094   6.538   1.623  0.4062  1.3305  0.0823
 1064TIP3    H224608   3.235   6.491   1.651 -0.5519 -1.7413  0.1287
 1065TIP3   OH224609   6.194   3.893  12.159 -0.0724 -0.2264 -0.3799
 1065TIP3    H124610   6.102   3.876  12.139 -1.6493  2.8215  3.0575
 1065TIP3    H224611   6.211   3.842  12.238  0.5280  0.6982  0.1078
 1066TIP3   OH224612   0.894   5.979   5.971 -0.0794 -0.7426 -0.7997
 1066TIP3    H124613   0.937   5.894   5.976 -0.0521 -0.6734  0.5761
 1066TIP3    H224614   0.842   5.984   6.052  1.1559  1.1841 -0.0552
 1067TIP3   OH224615   3.162   0.682  15.175 -0.1136  0.0575  0.0536
 1067TIP3    H124616   3.103   0.614  15.144  0.9464 -0.4412 -0.9392
 1067TIP3    H224617   3.137   0.696  15.267 -0.7544 -1.2170  0.0900
 1068TIP3   OH224618   6.037   6.717  13.194  0.2439  0.3338 -0.2873
 1068TIP3    H124619   5.942   6.727  13.196  0.2630  0.5225 -0.3220
 1068TIP3    H224620   6.053   6.633  13.238  0.0856  0.4925  0.0845
 1069TIP3   OH224621   2.495   4.024   0.593  0.1513  0.5631 -0.2440
 1069TIP3    H124622   2.554   4.067   0.654 -1.0144  1.8106  0.0486
 1069TIP3    H224623   2.529   4.045   0.507  1.0638 -0.1288 -0.0730
 1070TIP3   OH224624   0.295   6.156  14.360  0.8470  0.0936 -0.5834
 1070TIP3    H124625   0.340   6.236  14.386  1.1852 -1.0702  2.8434
 1070TIP3    H224626   0.359   6.086  14.377 -0.5134 -1.1649 -0.4321
 1071TIP3   OH224627   5.615   0.724  13.861  0.1221 -0.1517  0.0364
 1071TIP3    H124628   5.677   0.797  13.863 -0.9506  0.7963 -0.3737
 1071TIP3    H224629   5.532   0.764  13.837 -0.8980 -1.2177  1.6214
 1072TIP3   OH224630   5.780   1.656  14.007  0.2265 -0.1982  0.1839
 1072TIP3    H124631   5.745   1.568  14.021 -1.8558  0.3200 -1.3537
 1072TIP3    H224632   5.716   1.699  13.951  1.0990  2.3887  1.0314
 1073TIP3   OH224633   1.662   0.941   6.084 -0.5330 -0.1440 -0.2091
 1073TIP3    H124634   1.635   0.858   6.123  1.1518 -0.2013  0.9475
 1073TIP3    H224635   1.611   1.007   6.131 -1.5085 -0.4782 -0.7821
 1074TIP3   OH224636   5.742   6.662  12.889  0.0863 -0.4103 -0.5268
 1074TIP3    H124637   5.670   6.722  12.908  0.9531  0.4390  0.2075
 1074TIP3    H224638   5.708   6.604  12.820 -1.3588 -0.1799 -0.0501
 1075TIP3   OH224639   6.741   2.215   1.582  0.1844  0.1332 -0.4944
 1075TIP3    H124640   6.766   2.123   1.589 -0.2800  0.0773  0.6927
 1075TIP3    H224641   6.821   2.263   1.602 -0.1724 -0.0408  1.5089
 1076TIP3   OH224642   0.867   4.931   0.170  0.2776 -0.2482  0.8683
 1076TIP3    H124643   0.776   4.921   0.198  0.2503  1.2035  1.3554
 1076TIP3    H224644   0.913   4.858   0.211 -0.9941 -2.2909 -1.0883
 1077TIP3   OH224645   0.638   4.054  16.933 -0.1737 -0.1110  0.2218
 1077TIP3    H124646   0.581   4.015  16.868 -0.5066 -1.9519  1.5346
 1077TIP3    H224647   0.618   4.148  16.931 -1.6621 -0.4316 -0.8302
 1078TIP3   OH224648   6.693   0.712   3.492 -0.3167 -0.0861  0.1931
 1078TIP3    H124649   6.716   0.672   3.576  0.3320  0.8864  0.4839
 1078TIP3    H224650   6.616   0.766   3.512 -1.4901 -1.5175 -0.2984
 1079TIP3   OH224651   1.907   5.346   5.892 -0.1077 -0.1939  0.0572
 1079TIP3    H124652   1.947   5.412   5.949  0.7883  0.5685 -1.4134
 1079TIP3    H224653   1.863   5.285   5.953  0.7046  0.6532  1.5373
 1080TIP3   OH224654   4.072   1.186   0.406  0.5943  0.7174 -0.1777
 1080TIP3    H124655   4.067   1.096   0.375  1.0520  1.2818 -1.9741
 1080TIP3    H224656   4.004   1.232   0.357 -0.3042  1.1868  1.4344
 1081TIP3   OH224657   1.968   3.233  11.113  0.0402 -0.5939  0.2448
 1081TIP3    H124658   1.997   3.319  11.081  0.1562 -0.5578  0.4459
 1081TIP3    H224659   1.977   3.175  11.037  1.0576 -0.6807  0.4190
 1082TIP3   OH224660   3.125   4.059  14.082 -0.2574  0.1796  0.0928
 1082TIP3    H124661   3.100   3.969  14.060 -0.9403  0.6666 -1.2465
 1082TIP3    H224662   3.211   4.071  14.041 -0.9877  0.6941 -1.3802
 1083TIP3   OH224663   4.358   5.799   0.284  0.1315 -0.7569  0.0241
 1083TIP3    H124664   4.416   5.831   0.215  1.0692  0.8807  1.4733
 1083TIP3    H224665   4.413   5.801   0.363 -1.5526 -0.3390  1.2241
 1084TIP3   OH224666   1.001   1.772   5.391 -0.1379 -0.3129  0.4584
 1084TIP3    H124667   0.957   1.815   5.318 -2.9824  1.1369  2.8202
 1084TIP3    H224668   1.017   1.842   5.454  2.2714 -1.5070  1.3035
 1085TIP3   OH224669   0.303   0.309  15.337 -0.2393 -0.1847 -0.3615
 1085TIP3    H124670   0.384   0.319  15.288  0.1771  0.2309  0.4026
 1085TIP3    H224671   0.266   0.397  15.340  0.2396 -0.0107  0.9185
 1086TIP3   OH224672   0.900   1.232  14.011 -0.1142  0.0768 -0.3200
 1086TIP3    H124673   0.909   1.143  13.979 -1.1089  0.2139 -1.0459
 1086TIP3    H224674   0.989   1.261  14.028  0.1635 -1.4395  1.0665
 1087TIP3   OH224675   0.518   5.578  13.824 -0.0848  0.1289  0.5335
 1087TIP3    H124676   0.481   5.666  13.829  1.3504  0.9913 -2.1995
 1087TIP3    H224677   0.579   5.574  13.897 -1.3301  0.7742  1.6513
 1088TIP3   OH224678   0.945   5.262  15.374  0.3613  0.5237  0.0208
 1088TIP3    H124679   0.973   5.352  15.389  0.2466  1.0678 -2.5483
 1088TIP3    H224680   1.008   5.228  15.310 -1.0684 -0.3084 -1.0150
 1089TIP3   OH224681   1.645   5.042  12.034 -0.4305  0.6190  0.1884
 1089TIP3    H124682   1.739   5.036  12.020 -0.1032  0.5309  2.1372
 1089TIP3    H224683   1.628   5.136  12.046 -0.0616  0.4152  2.7588
 1090TIP3   OH224684   0.356   6.059   4.997  0.3962 -0.1076  0.0109
 1090TIP3    H124685   0.338   6.136   5.051  0.1076 -0.5212  0.5076
 1090TIP3    H224686   0.440   6.026   5.029  0.0393 -0.5796  0.4819
 1091TIP3   OH224687   4.125   6.782  13.312 -0.5994  1.0945  0.4189
 1091TIP3    H124688   4.092   6.820  13.231 -3.3010  1.2264  1.4878
 1091TIP3    H224689   4.218   6.769  13.296 -0.1322  5.0283 -1.1935
 1092TIP3   OH224690   6.317   3.642   4.391  0.0292 -1.0130 -0.0461
 1092TIP3    H124691   6.259   3.582   4.345 -1.6608  2.0322 -2.2103
 1092TIP3    H224692   6.403   3.626   4.352 -0.7566 -0.7554 -1.9942
 1093TIP3   OH224693   5.979   4.624  11.232  0.2015  0.4890 -0.5547
 1093TIP3    H124694   6.006   4.532  11.229 -0.5699  0.2792 -2.7373
 1093TIP3    H224695   6.022   4.659  11.310  0.9467 -1.5825  0.0226
 1094TIP3   OH224696   6.430   5.635   4.787  0.3011 -0.0585  0.2501
 1094TIP3    H124697   6.497   5.690   4.745  0.5729  0.0725  0.8457
 1094TIP3    H224698   6.427   5.666   4.877  0.6090 -1.1504  0.6540
 1095TIP3   OH224699   4.125   1.348  11.270  0.3982  0.6352 -0.1646
 1095TIP3    H124700   4.181   1.272  11.253  0.6726  0.4672  1.3488
 1095TIP3    H224701   4.132   1.401  11.191  1.1806 -0.3110 -0.7562
 1096TIP3   OH224702   5.205   6.264  13.696 -0.0870 -0.1164  0.3750
 1096TIP3    H124703   5.145   6.252  13.770 -0.3990 -1.9305 -0.1326
 1096TIP3    H224704   5.151   6.305  13.628  0.3583  2.1705  1.2867
 1097TIP3   OH224705   3.064   4.911   3.205 -0.8145 -0.2319  0.3431
 1097TIP3    H124706   2.986   4.945   3.161 -1.2803 -0.0022  1.3160
 1097TIP3    H224707   3.085   4.831   3.158 -2.1977 -0.7914  0.6288
 1098TIP3   OH224708   3.851   5.932  11.638 -0.2391 -0.3136  0.1922
 1098TIP3    H124709   3.842   5.963  11.728 -1.2242 -0.4618  0.1458
 1098TIP3    H224710   3.782   5.977  11.590  0.2859 -0.2306 -0.4943
 1099TIP3   OH224711   5.148   5.750   3.079 -0.3091 -0.5704 -0.1904
 1099TIP3    H124712   5.098   5.778   3.156 -1.8839  0.8929 -1.6649
 1099TIP3    H224713   5.086   5.699   3.027 -0.2359  0.9022 -1.8497
 1100TIP3   OH224714   1.675   0.968  17.098  0.0932  0.4708  0.5874
 1100TIP3    H124715   1.766   0.975  17.070 -0.2620  0.0868 -0.7327
 1100TIP3    H224716   1.676   0.993  17.191  1.5920  0.0887  0.6945
 1101TIP3   OH224717   6.778   4.848  14.087 -0.1464 -0.3294 -0.4819
 1101TIP3    H124718   6.692   4.846  14.046 -0.3902 -1.6631  0.0103
 1101TIP3    H224719   6.840   4.834  14.016 -0.4961 -1.5052 -0.5888
 1102TIP3   OH224720   0.328   1.354   0.343 -0.1059 -0.5100  0.1714
 1102TIP3    H124721   0.243   1.351   0.386  0.8872 -0.5338  2.2067
 1102TIP3    H224722   0.378   1.283   0.383  1.0825 -0.1371 -0.5863
 1103TIP3   OH224723   5.889   2.272  12.701 -0.0245 -0.5280 -0.1433
 1103TIP3    H124724   5.930   2.355  12.726 -0.1066  0.5140 -3.1215
 1103TIP3    H224725   5.937   2.243  12.624 -3.1235 -0.5497 -2.2427
 1104TIP3   OH224726   5.015   6.064  11.787 -0.4191 -0.6867 -0.8723
 1104TIP3    H124727   5.077   6.057  11.859 -0.8049 -0.1199 -0.4689
 1104TIP3    H224728   5.053   6.013  11.716  0.7608  0.0810 -0.8102
 1105TIP3   OH224729   3.276   6.459  15.655  0.1763  0.4494  0.1287
 1105TIP3    H124730   3.329   6.397  15.706 -0.2511  0.2265  0.3107
 1105TIP3    H224731   3.248   6.524  15.719  0.9053  1.0230 -0.1307
 1106TIP3   OH224732   3.277   0.371  15.837  0.5410  0.0899 -0.2961
 1106TIP3    H124733   3.185   0.345  15.845  0.2612  1.2403  0.4290
 1106TIP3    H224734   3.275   0.450  15.783  1.0133  0.5593  0.3543
 1107TIP3   OH224735   0.943   4.184   0.459 -0.2998 -0.0704  0.1778
 1107TIP3    H124736   1.023   4.223   0.425 -0.5857  0.4566  0.1113
 1107TIP3    H224737   0.912   4.244   0.527 -0.0997 -0.7761  0.9145
 1108TIP3   OH224738   1.292   0.497  14.662  0.3554  0.1328  0.1056
 1108TIP3    H124739   1.238   0.420  14.682 -1.2672  0.9837 -0.8148
 1108TIP3    H224740   1.279   0.512  14.569  1.4339  0.9651  0.0660
 1109TIP3   OH224741   1.892   3.361  11.346 -0.5223  0.3701  0.0423
 1109TIP3    H124742   1.934   3.289  11.300  0.9231  1.3365 -0.2150
 1109TIP3    H224743   1.835   3.401  11.280 -1.4188 -0.5807  0.2204
 1110TIP3   OH224744   4.908   0.348  14.292  0.0242 -0.3876  0.1406
 1110TIP3    H124745   4.990   0.361  14.340 -1.2795 -0.7501  2.6572
 1110TIP3    H224746   4.906   0.419  14.228  1.4554  0.7181  1.2567
 1111TIP3   OH224747   0.781   3.890   6.213  0.5707  0.4111 -0.0367
 1111TIP3    H124748   0.858   3.941   6.238  0.6809  0.6147 -0.7683
 1111TIP3    H224749   0.748   3.933   6.135 -0.0888  0.1144  0.0686
 1112TIP3   OH224750   2.415   4.651  13.270  0.2305 -0.6670 -0.0803
 1112TIP3    H124751   2.466   4.732  13.264 -0.6826  0.0145  0.9779
 1112TIP3    H224752   2.350   4.659  13.200 -1.2663  0.5842  1.3751
 1113TIP3   OH224753   1.099   5.924  15.047 -0.0652 -0.0251 -0.3400
 1113TIP3    H124754   1.048   5.949  15.125 -1.0010 -1.0740 -0.6009
 1113TIP3    H224755   1.083   5.831  15.036  0.0341  0.1128 -1.8187
 1114TIP3   OH224756   1.663   0.677   2.245 -0.1945  0.0148 -0.2270
 1114TIP3    H124757   1.739   0.640   2.201 -0.0223  1.4335 -1.1853
 1114TIP3    H224758   1.688   0.678   2.338  1.1558  0.8349 -0.5609
 1115TIP3   OH224759   2.444   4.261  14.575  0.0432  0.0168 -0.9420
 1115TIP3    H124760   2.443   4.237  14.668 -2.3968 -1.5667 -1.2788
 1115TIP3    H224761   2.510   4.203  14.536 -0.3622 -0.7820 -0.4778
 1116TIP3   OH224762   2.456   6.000  17.142 -0.2320  0.2977  0.0668
 1116TIP3    H124763   2.398   5.928  17.167  1.3121 -0.8279  0.5947
 1116TIP3    H224764   2.533   5.956  17.103  1.2611  1.5579  1.4400
 1117TIP3   OH224765   2.402   0.630  15.702 -0.0809  0.0348  0.4556
 1117TIP3    H124766   2.484   0.675  15.679 -1.2650  0.9728 -2.3954
 1117TIP3    H224767   2.359   0.689  15.764  0.4909  0.5705  0.3571
 1118TIP3   OH224768   1.509   5.853   0.994 -0.5105 -0.3648 -0.1064
 1118TIP3    H124769   1.601   5.835   0.973 -0.1770 -0.7095  1.5329
 1118TIP3    H224770   1.463   5.772   0.969 -0.4221 -0.1183 -1.1179
 1119TIP3   OH224771   5.707   0.444   4.245 -0.2734 -0.1058  0.3498
 1119TIP3    H124772   5.616   0.455   4.216 -0.1109 -1.3401 -0.7177
 1119TIP3    H224773   5.700   0.420   4.337 -1.0199  0.0869  0.3514
 1120TIP3   OH224774   4.982   3.948  15.675 -0.0335 -0.1061 -0.4114
 1120TIP3    H124775   4.995   3.867  15.725 -0.1716  1.0377  1.5708
 1120TIP3    H224776   4.933   3.921  15.597  2.1528 -2.3230 -1.1411
 1121TIP3   OH224777   3.310   1.767  15.208  0.2050  0.3079  0.2208
 1121TIP3    H124778   3.318   1.677  15.178  1.9825  0.7546 -0.7782
 1121TIP3    H224779   3.264   1.761  15.292  1.7907 -1.6843  1.0123
 1122TIP3   OH224780   0.155   5.819  14.809  0.1005 -0.3594  0.3448
 1122TIP3    H124781   0.212   5.889  14.842  0.1739 -0.2559  0.0008
 1122TIP3    H224782   0.116   5.781  14.888  0.4826 -0.2927  0.5677
 1123TIP3   OH224783   2.850   1.138   2.960  0.0690  0.4584 -0.2829
 1123TIP3    H124784   2.924   1.083   2.982 -0.4485  0.1918  0.8575
 1123TIP3    H224785   2.874   1.179   2.877 -0.0394 -2.3903 -1.8119
 1124TIP3   OH224786   5.502   4.777  16.744  0.1339  0.1564  0.2526
 1124TIP3    H124787   5.530   4.863  16.774 -1.4792  0.2956  1.5152
 1124TIP3    H224788   5.407   4.782  16.742  0.0547 -1.1812 -0.9731
 1125TIP3   OH224789   5.527   1.632   4.995  0.2227 -0.0717  0.2815
 1125TIP3    H124790   5.436   1.603   4.983 -0.0508  0.6815  0.4432
 1125TIP3    H224791   5.568   1.563   5.046 -0.2851 -0.3804  0.2826
 1126TIP3   OH224792   3.001   5.282   0.082  0.3502  0.0455  0.2388
 1126TIP3    H124793   3.060   5.355   0.064  1.2961 -0.9018 -0.6819
 1126TIP3    H224794   2.975   5.249  -0.004 -0.4391 -0.4064  0.6355
 1127TIP3   OH224795   3.617   2.711  11.913  0.1216 -0.0988 -0.5794
 1127TIP3    H124796   3.566   2.630  11.918  0.9180 -0.5525  1.1725
 1127TIP3    H224797   3.676   2.697  11.839 -0.6936 -0.5304 -1.1625
 1128TIP3   OH224798   1.536   3.917  11.443  0.3806  0.1034 -0.7021
 1128TIP3    H124799   1.612   3.944  11.496  0.2655 -1.5306  0.3576
 1128TIP3    H224800   1.463   3.965  11.481  0.4817 -0.2383 -0.0450
 1129TIP3   OH224801   1.611   4.271   4.294 -1.1245 -0.3300  0.4791
 1129TIP3    H124802   1.569   4.354   4.319 -0.6042  0.4479 -1.1351
 1129TIP3    H224803   1.626   4.227   4.377 -3.3544  0.2194  1.2663
 1130TIP3   OH224804   4.639   3.435   1.859  0.8737  0.5192 -0.5608
 1130TIP3    H124805   4.589   3.512   1.834  0.0922  0.2920  0.2558
 1130TIP3    H224806   4.608   3.366   1.800  1.1733  0.6844 -0.9183
 1131TIP3   OH224807   3.522   0.555   0.893  0.5614  0.4425 -0.2797
 1131TIP3    H124808   3.481   0.588   0.813  0.6137  0.7532 -0.1817
 1131TIP3    H224809   3.533   0.633   0.947 -0.9923  0.0172  0.7182
 1132TIP3   OH224810   0.722   1.473  12.391 -0.1741 -0.1336  0.1948
 1132TIP3    H124811   0.693   1.388  12.357 -1.4717  0.2125  0.3893
 1132TIP3    H224812   0.813   1.459  12.416 -0.1872 -1.3007 -0.3486
 1133TIP3   OH224813   0.529   0.495   3.292 -0.4145 -0.6057  0.2242
 1133TIP3    H124814   0.494   0.584   3.295  2.2442  0.5550 -0.3763
 1133TIP3    H224815   0.539   0.476   3.199 -1.7624 -1.9213  0.3155
 1134TIP3   OH224816   1.532   6.168   0.612  0.1391 -0.0351 -0.0840
 1134TIP3    H124817   1.553   6.226   0.686 -0.2666  1.4170 -1.0625
 1134TIP3    H224818   1.543   6.223   0.535  0.6987 -1.5598 -1.1430
 1135TIP3   OH224819   5.970   4.158   5.754 -0.3262 -0.0479 -0.1693
 1135TIP3    H124820   6.022   4.079   5.771  2.2588  1.3466 -1.0202
 1135TIP3    H224821   5.912   4.165   5.830  1.1949 -1.3645  1.2086
 1136TIP3   OH224822   0.589   0.858   2.706  0.4844  0.2973 -0.0098
 1136TIP3    H124823   0.656   0.789   2.699  1.0546  0.7864  0.4258
 1136TIP3    H224824   0.511   0.820   2.666  0.9129 -0.4372 -0.1785
 1137TIP3   OH224825   1.826   1.036  15.696 -0.0794  0.3972 -0.0971
 1137TIP3    H124826   1.820   1.124  15.732 -0.0368  0.1340  0.5727
 1137TIP3    H224827   1.739   0.999  15.709  0.8107 -0.9057  2.9814
 1138TIP3   OH224828   2.308   4.678   2.873  0.1825  0.4284  0.0580
 1138TIP3    H124829   2.379   4.623   2.906  1.3018  1.3442 -0.7107
 1138TIP3    H224830   2.263   4.624   2.809 -0.7962 -0.6838  1.6004
 1139TIP3   OH224831   3.205   3.306   4.783 -0.3293  0.5929 -0.3356
 1139TIP3    H124832   3.215   3.211   4.784 -0.7329  0.5522  0.0618
 1139TIP3    H224833   3.231   3.334   4.871 -0.5980  0.8096 -0.3218
 1140TIP3   OH224834   1.248   2.907  16.251  0.4046  0.2131 -0.1277
 1140TIP3    H124835   1.317   2.920  16.186 -0.0096  0.8786 -0.4358
 1140TIP3    H224836   1.170   2.946  16.212 -0.5663 -1.9054 -0.4865
 1141TIP3   OH224837   6.395   2.756   0.292  0.5731 -0.4181  0.3776
 1141TIP3    H124838   6.336   2.793   0.226  1.2042  0.1202  0.1019
 1141TIP3    H224839   6.385   2.814   0.368 -0.6141 -1.3914  0.9990
 1142TIP3   OH224840   4.506   4.087   4.870 -0.0845  0.4357 -0.3833
 1142TIP3    H124841   4.454   4.012   4.899 -0.2689  0.3161 -1.0246
 1142TIP3    H224842   4.573   4.096   4.937 -1.3321  1.0214  0.8441
 1143TIP3   OH224843   5.484   1.855   2.973  0.1165 -0.6484 -0.9637
 1143TIP3    H124844   5.447   1.909   3.043 -0.7771 -1.8841 -0.4492
 1143TIP3    H224845   5.569   1.895   2.955 -0.4520  0.8600 -0.5366
 1144TIP3   OH224846   3.861   5.830  15.911 -0.5392 -0.3249  0.2054
 1144TIP3    H124847   3.853   5.920  15.881 -0.6199 -1.3613 -3.3843
 1144TIP3    H224848   3.954   5.811  15.908 -0.5565 -0.4759  0.5648
 1145TIP3   OH224849   0.412   3.770   3.859 -0.0779  0.0469  0.9785
 1145TIP3    H124850   0.409   3.706   3.930  1.0533 -0.8842  0.2265
 1145TIP3    H224851   0.505   3.795   3.855  0.2057 -1.1134 -1.1719
 1146TIP3   OH224852   2.315   0.033   0.730 -0.5228 -0.1170  0.6487
 1146TIP3    H124853   2.302   0.111   0.676  0.0465  0.7201  1.6888
 1146TIP3    H224854   2.259   0.048   0.807 -0.3180 -0.6764  0.9090
 1147TIP3   OH224855   4.499   4.977  10.665 -0.3703 -0.4389 -0.0122
 1147TIP3    H124856   4.441   4.914  10.707 -0.8708 -0.3079 -0.5059
 1147TIP3    H224857   4.446   5.017  10.596  0.0117  0.3496  0.1341
 1148TIP3   OH224858   6.521   1.243   4.242  0.3271  0.2668 -0.2190
 1148TIP3    H124859   6.449   1.189   4.275  1.0127 -0.4043  0.2003
 1148TIP3    H224860   6.478   1.307   4.185 -0.8242  1.0238  1.3969
 1149TIP3   OH224861   6.045   3.020   0.928  0.2129  0.2641 -0.1045
 1149TIP3    H124862   6.133   3.010   0.890 -0.7780 -1.5215 -2.1675
 1149TIP3    H224863   6.023   3.112   0.912  1.0442  0.3019 -1.1635
 1150TIP3   OH224864   5.783   0.071  11.854 -0.3186  0.9884 -0.4843
 1150TIP3    H124865   5.792   0.116  11.770 -2.1435  2.4156  0.0188
 1150TIP3    H224866   5.729   0.130  11.907 -0.8426 -0.7612  1.0300
 1151TIP3   OH224867   6.446   1.138  13.591 -0.1294 -0.0587  0.7108
 1151TIP3    H124868   6.418   1.199  13.523  1.1720 -0.6257 -0.3919
 1151TIP3    H224869   6.370   1.082  13.607 -0.0974 -0.7114 -1.1971
 1152TIP3   OH224870   4.172   1.964  11.159  0.3690 -0.0067  0.6467
 1152TIP3    H124871   4.127   1.915  11.090  1.3498 -1.0753  0.7227
 1152TIP3    H224872   4.264   1.938  11.150  0.3590 -1.3388  3.2436
 1153TIP3   OH224873   2.044   4.557  12.036  0.3779  0.2502 -0.4159
 1153TIP3    H124874   2.051   4.502  12.113  0.8584  1.5177  0.4780
 1153TIP3    H224875   2.101   4.516  11.971 -0.1704 -0.9193 -0.1732
 1154TIP3   OH224876   2.005   4.893  11.757  0.6785  0.1372  0.0224
 1154TIP3    H124877   1.994   4.963  11.821  1.0693 -0.7416  1.0818
 1154TIP3    H224878   2.058   4.827  11.802  1.9384 -0.0237 -1.5798
 1155TIP3   OH224879   3.888   0.619  15.882 -1.1457  0.6290 -0.4372
 1155TIP3    H124880   3.953   0.686  15.859  0.0250  0.1065  1.1284
 1155TIP3    H224881   3.893   0.556  15.810  2.3955 -0.9738  0.9503
 1156TIP3   OH224882   6.429   0.484   3.255 -0.2012 -0.8976 -0.8856
 1156TIP3    H124883   6.453   0.513   3.343  0.3302 -0.1789 -1.2586
 1156TIP3    H224884   6.513   0.474   3.210 -0.4542 -1.6055 -1.2111
 1157TIP3   OH224885   1.734   0.213   3.369  0.2083 -0.0896 -0.6830
 1157TIP3    H124886   1.670   0.280   3.394  2.0809  1.7147 -0.4429
 1157TIP3    H224887   1.713   0.138   3.426 -1.7143  0.3826 -0.6873
 1158TIP3   OH224888   5.181   4.685   1.102 -0.5525 -0.2395 -0.2692
 1158TIP3    H124889   5.106   4.632   1.131 -1.4734 -0.8850 -3.4656
 1158TIP3    H224890   5.244   4.621   1.068  0.0049  0.4927 -0.6550
 1159TIP3   OH224891   1.355   3.495  16.031  0.3771  0.3879  0.3290
 1159TIP3    H124892   1.422   3.554  15.997  0.1362 -0.0316 -0.9134
 1159TIP3    H224893   1.391   3.463  16.114  1.7009  0.1980 -0.2950
 1160TIP3   OH224894   5.257   3.775  14.642  0.0438 -0.2190 -0.4505
 1160TIP3    H124895   5.194   3.762  14.571 -0.1543 -0.1224 -0.2948
 1160TIP3    H224896   5.273   3.686  14.675 -0.2882 -0.2083 -0.2572
 1161TIP3   OH224897   2.857   3.348  11.866  0.1490 -0.2378  0.0429
 1161TIP3    H124898   2.821   3.370  11.952  0.5630  0.4883  0.0452
 1161TIP3    H224899   2.796   3.386  11.803 -0.8704 -1.9099 -0.0348
 1162TIP3   OH224900   5.565   4.200   4.046  0.3272  0.6142  0.0378
 1162TIP3    H124901   5.579   4.215   3.953  0.8065  0.9819  0.1698
 1162TIP3    H224902   5.538   4.285   4.080 -2.7372 -0.1114 -0.2830
 1163TIP3   OH224903   4.192   0.505  12.056 -0.3139 -0.2057 -0.6826
 1163TIP3    H124904   4.197   0.600  12.054  2.8593 -0.2652 -0.4652
 1163TIP3    H224905   4.098   0.486  12.058 -1.0399  2.8816 -0.3892
 1164TIP3   OH224906   1.210   4.497  16.036  0.3841 -0.2684 -0.6286
 1164TIP3    H124907   1.208   4.491  16.132  1.7945 -3.4587 -0.6528
 1164TIP3    H224908   1.184   4.587  16.017 -0.0215  0.4706  2.7283
 1165TIP3   OH224909   4.515   5.711   5.098  0.3795 -0.3745 -0.1134
 1165TIP3    H124910   4.448   5.646   5.120  0.0625  0.3378  1.1536
 1165TIP3    H224911   4.542   5.689   5.010 -0.1059 -1.9048  0.0905
 1166TIP3   OH224912   1.423   6.423  14.547  0.1559  0.6308  0.2537
 1166TIP3    H124913   1.390   6.414  14.637 -3.0878 -0.6921 -0.9200
 1166TIP3    H224914   1.410   6.516  14.527 -0.7874  0.5854  0.6010
 1167TIP3   OH224915   6.234   1.863   0.466 -0.0891 -0.7164  0.3562
 1167TIP3    H124916   6.221   1.775   0.431 -0.3898 -0.2320 -0.8053
 1167TIP3    H224917   6.330   1.873   0.472 -0.0044 -0.5785 -0.9957
 1168TIP3   OH224918   3.956   4.710   4.276  0.3624  0.1056  0.1432
 1168TIP3    H124919   4.028   4.772   4.263  0.4449 -0.1228 -0.5138
 1168TIP3    H224920   3.992   4.644   4.336 -0.2702  1.5755  2.2600
 1169TIP3   OH224921   4.988   1.020   5.740  0.3456  0.7032  0.1965
 1169TIP3    H124922   5.010   0.994   5.651  1.4769 -0.0738  0.6740
 1169TIP3    H224923   5.048   1.092   5.760  1.7096 -0.6294  1.0939
 1170TIP3   OH224924   6.546   4.761   0.781 -0.4062  0.5541 -0.1346
 1170TIP3    H124925   6.583   4.850   0.783 -0.1526  0.4299  1.2688
 1170TIP3    H224926   6.584   4.722   0.702  0.1208  1.4258 -0.3290
 1171TIP3   OH224927   2.506   0.019  12.497  0.5009  0.3389  0.1467
 1171TIP3    H124928   2.433  -0.011  12.443 -0.3611  1.7085  0.4974
 1171TIP3    H224929   2.571  -0.051  12.492  0.1314  0.1072 -2.0365
 1172TIP3   OH224930   3.593   2.296   6.383 -0.3250 -0.1213 -0.2847
 1172TIP3    H124931   3.597   2.336   6.296  0.7582  2.7330  0.9351
 1172TIP3    H224932   3.564   2.206   6.367 -0.4226  0.3580 -3.5357
 1173TIP3   OH224933   2.768   4.674   0.386 -0.1939 -0.2114  0.0418
 1173TIP3    H124934   2.843   4.617   0.365  0.4722  0.4103  0.6720
 1173TIP3    H224935   2.801   4.733   0.453 -1.2614  0.0884  0.3208
 1174TIP3   OH224936   6.433   5.125   4.947  0.4132  0.2476 -0.2822
 1174TIP3    H124937   6.424   5.119   5.042 -0.9349 -1.8031 -0.4661
 1174TIP3    H224938   6.503   5.064   4.926  1.6406  1.6842 -0.5476
 1175TIP3   OH224939   5.845   2.322   5.606  0.8352  0.0460 -0.5527
 1175TIP3    H124940   5.832   2.407   5.649  0.8343 -0.5512  0.6856
 1175TIP3    H224941   5.772   2.268   5.638 -0.8486  0.3565 -3.5360
 1176TIP3   OH224942   0.504   1.927   2.283  0.1863  0.6525 -0.0379
 1176TIP3    H124943   0.556   2.000   2.315  0.1743  0.5058  0.3201
 1176TIP3    H224944   0.451   1.965   2.212 -0.8110  1.3277  1.0202
 1177TIP3   OH224945   2.376   4.922   5.676 -0.6130  0.0143 -0.0170
 1177TIP3    H124946   2.396   4.869   5.753  3.0323 -0.8937 -1.3631
 1177TIP3    H224947   2.390   5.012   5.704 -0.2965 -0.2239  0.6139
 1178TIP3   OH224948   2.247   6.175   2.180  0.2474  0.4482 -1.0751
 1178TIP3    H124949   2.245   6.244   2.114 -0.0070 -0.6201 -2.2158
 1178TIP3    H224950   2.327   6.125   2.161  0.4578  0.4446 -0.2346
 1179TIP3   OH224951   1.271   4.901  16.922 -0.5109  0.0194 -0.1715
 1179TIP3    H124952   1.348   4.875  16.974 -0.7373 -0.5619 -0.1227
 1179TIP3    H224953   1.267   4.996  16.932  0.7608  0.1753 -0.9509
 1180TIP3   OH224954   1.301   2.741  11.996 -0.8187  0.3051 -0.5273
 1180TIP3    H124955   1.223   2.790  11.970 -0.9921  1.1718  1.4428
 1180TIP3    H224956   1.273   2.692  12.074  0.4756  0.3145 -0.0332
 1181TIP3   OH224957   1.392   1.850  14.592  0.1495  0.6600  0.7661
 1181TIP3    H124958   1.356   1.925  14.639 -0.7278  0.7990 -0.0939
 1181TIP3    H224959   1.317   1.814  14.544  0.9193  0.2581 -0.1590
 1182TIP3   OH224960   1.897   1.635  12.687 -0.1486  0.1862 -0.0105
 1182TIP3    H124961   1.900   1.728  12.665  0.1564  0.0458 -0.5701
 1182TIP3    H224962   1.833   1.598  12.626 -0.7229  0.1290  0.6100
 1183TIP3   OH224963   0.446   2.297   5.051 -0.0534 -0.4798 -0.3518
 1183TIP3    H124964   0.444   2.366   4.985 -1.9404  0.2439  0.3745
 1183TIP3    H224965   0.539   2.280   5.066  0.4700  1.7504 -0.7327
 1184TIP3   OH224966   6.569   4.539  12.568  0.0084  0.3968  0.6003
 1184TIP3    H124967   6.497   4.500  12.519  0.1861 -0.3399  0.9203
 1184TIP3    H224968   6.648   4.504  12.526  0.1639  0.0900  1.1476
 1185TIP3   OH224969   4.410   4.820  10.378  0.1342 -0.2534  0.8120
 1185TIP3    H124970   4.450   4.906  10.382  0.4786 -0.4080  0.6591
 1185TIP3    H224971   4.317   4.836  10.395 -0.2743  0.4671 -1.7571
 1186TIP3   OH224972   0.392   1.232  16.311 -0.5314  0.0366 -0.4966
 1186TIP3    H124973   0.326   1.297  16.285 -1.7081 -1.4000 -1.2940
 1186TIP3    H224974   0.472   1.260  16.266 -0.9013  1.1410 -0.4991
 1187TIP3   OH224975   1.451   4.511   5.100  0.8109  0.1001  0.2514
 1187TIP3    H124976   1.440   4.422   5.068  1.5148  0.0554  0.1114
 1187TIP3    H224977   1.363   4.549   5.098  0.3233 -0.9089  1.2848
 1188TIP3   OH224978   0.268   3.722  15.156  0.6467  0.1691 -0.4023
 1188TIP3    H124979   0.190   3.676  15.187  1.6596 -0.2846  1.6652
 1188TIP3    H224980   0.268   3.804  15.205  0.0260  1.4750 -2.4633
 1189TIP3   OH224981   0.202   1.852  12.298 -0.2490  0.1018  0.1048
 1189TIP3    H124982   0.164   1.894  12.374  0.6078 -0.0300  0.6192
 1189TIP3    H224983   0.238   1.924  12.245 -0.4137  0.1542  0.0642
 1190TIP3   OH224984   4.041   0.414   2.661 -0.1443  0.3656  0.0799
 1190TIP3    H124985   4.111   0.380   2.607 -0.4529 -0.2645  0.0654
 1190TIP3    H224986   4.044   0.361   2.741  0.8466  1.8287  1.0647
 1191TIP3   OH224987   2.243   1.826   3.542 -0.1362 -0.0164 -0.3625
 1191TIP3    H124988   2.337   1.808   3.545 -0.4232 -1.6801 -0.0009
 1191TIP3    H224989   2.215   1.822   3.634 -0.6983 -0.5293 -0.5461
 1192TIP3   OH224990   4.443   4.178   1.496  0.0245 -0.4163 -0.1266
 1192TIP3    H124991   4.429   4.221   1.412  1.8123  1.0900  0.2636
 1192TIP3    H224992   4.393   4.230   1.559  0.4929 -0.1664  0.0465
 1193TIP3   OH224993   6.542   1.042   0.219  0.9468  0.0904  0.6024
 1193TIP3    H124994   6.492   1.117   0.253  0.0967  0.2802 -0.9699
 1193TIP3    H224995   6.628   1.051   0.259  1.0662  2.2731  0.0077
 1194TIP3   OH224996   5.548   0.271   0.093  0.1985  0.5121 -0.0496
 1194TIP3    H124997   5.585   0.207   0.032 -0.2838 -0.1853  0.3658
 1194TIP3    H224998   5.614   0.340   0.099  0.2665  0.5696 -1.3157
 1195TIP3   OH224999   3.872   6.555  13.636  0.1435 -0.1259  0.4085
 1195TIP3    H125000   3.831   6.640  13.618  0.1799 -0.4128 -1.2489
 1195TIP3    H225001   3.966   6.572  13.627  0.2670 -0.0033  1.7460
 1196TIP3   OH225002   4.968   5.600   4.586 -0.6712  0.8086  0.3112
 1196TIP3    H125003   5.064   5.597   4.578 -0.7310 -1.3067 -0.1756
 1196TIP3    H225004   4.942   5.674   4.532  0.5758  0.1184 -1.3432
 1197TIP3   OH225005   4.384   0.415   5.637 -0.4135  0.1635  0.2566
 1197TIP3    H125006   4.356   0.328   5.664  0.5817 -0.4429 -0.6173
 1197TIP3    H225007   4.393   0.463   5.719 -1.4817 -0.3726  0.7188
 1198TIP3   OH225008   5.844   0.949   4.680 -0.6370  0.2084  0.1460
 1198TIP3    H125009   5.832   0.990   4.765 -1.1492 -0.1490  0.2549
 1198TIP3    H225010   5.763   0.969   4.632 -1.4288 -1.6127  0.6096
 1199TIP3   OH225011   2.539   2.992  14.837 -0.2131  0.1295  0.2619
 1199TIP3    H125012   2.487   2.930  14.786 -0.2528  0.2754  0.1238
 1199TIP3    H225013   2.474   3.049  14.879 -0.1681  0.2481  0.1705
 1200TIP3   OH225014   6.700   0.049  12.745  0.4273  0.6252 -0.2138
 1200TIP3    H125015   6.714   0.032  12.838 -3.3037  1.1174  0.5883
 1200TIP3    H225016   6.608   0.076  12.739  0.8026  1.5958 -3.9350
 1201TIP3   OH225017   6.338   1.502  10.576  0.7707  0.3203 -0.4325
 1201TIP3    H125018   6.258   1.450  10.577 -0.1570  1.6782 -1.0466
 1201TIP3    H225019   6.400   1.452  10.629 -0.1990 -1.1821 -0.6524
 1202TIP3   OH225020   6.700   0.377  16.753  0.0668 -0.5581  0.2932
 1202TIP3    H125021   6.669   0.323  16.679  0.8477 -0.3147 -0.2216
 1202TIP3    H225022   6.719   0.462  16.714  2.0147 -0.8794  0.4406
 1203TIP3   OH225023   2.296   0.872  16.740  0.4715 -0.6349 -0.0556
 1203TIP3    H125024   2.263   0.928  16.670 -0.5656  1.1461  1.7711
 1203TIP3    H225025   2.219   0.851  16.793  1.6940  0.9763  2.5135
 1204TIP3   OH225026   3.684   1.011   2.170  0.6203 -0.7444  0.1226
 1204TIP3    H125027   3.622   0.950   2.131  1.2794  0.0851 -2.3728
 1204TIP3    H225028   3.694   1.080   2.105  1.9210  0.6631  1.7314
 1205TIP3   OH225029   0.008   0.664  15.143  0.0038  0.2142  0.3528
 1205TIP3    H125030  -0.026   0.629  15.061  1.9048 -1.0406  0.0202
 1205TIP3    H225031  -0.012   0.596  15.208  1.5457 -0.4423  0.1930
 1206TIP3   OH225032   0.333   6.778  13.169  0.0815 -0.1789 -0.1829
 1206TIP3    H125033   0.259   6.837  13.181  0.4909  0.6932 -1.7083
 1206TIP3    H225034   0.397   6.828  13.118  0.4948 -1.8640 -1.4200
 1207TIP3   OH225035   2.269   5.691  15.385 -0.1039  0.4535  0.0968
 1207TIP3    H125036   2.215   5.763  15.416 -3.0787 -1.6262  0.2239
 1207TIP3    H225037   2.279   5.634  15.461  1.5859  0.3230 -0.1795
 1208TIP3   OH225038   1.534   0.549  16.488  0.4513 -0.1408  0.4560
 1208TIP3    H125039   1.480   0.627  16.490 -0.4909 -0.7682  0.2230
 1208TIP3    H225040   1.617   0.575  16.529  1.3105  1.8040 -2.2220
 1209TIP3   OH225041   5.230   5.733  15.393 -0.1303 -0.3201 -0.1022
 1209TIP3    H125042   5.249   5.754  15.484  1.0181 -0.1619 -0.3508
 1209TIP3    H225043   5.221   5.819  15.351 -1.0078 -0.3956 -0.0735
 1210TIP3   OH225044   5.260   3.607  16.792  0.1130 -1.0354  0.2741
 1210TIP3    H125045   5.182   3.587  16.739  0.4191  0.5713 -0.8530
 1210TIP3    H225046   5.229   3.603  16.882 -0.8298 -2.1815 -0.0688
 1211TIP3   OH225047   6.020   2.446   1.651  0.1132  0.1132 -0.3498
 1211TIP3    H125048   5.998   2.519   1.709  0.6591  0.8024 -0.9887
 1211TIP3    H225049   5.963   2.374   1.680 -1.1813  1.0938 -0.3662
 1212TIP3   OH225050   2.763   4.368  12.097  0.4649 -0.3528 -0.5508
 1212TIP3    H125051   2.737   4.432  12.031 -0.1354  0.6076  0.5687
 1212TIP3    H225052   2.837   4.322  12.059 -0.3907 -0.4104 -2.2173
 1213TIP3   OH225053   3.057   5.248   2.380  0.0050 -0.4172 -0.2682
 1213TIP3    H125054   3.007   5.195   2.318 -0.6391  0.2089 -0.2917
 1213TIP3    H225055   3.140   5.201   2.390 -1.7960 -3.4413  2.4200
 1214TIP3   OH225056   5.082   6.700  13.029  0.7202 -0.4182 -0.5115
 1214TIP3    H125057   5.069   6.710  12.934  1.5240 -1.0367 -0.6961
 1214TIP3    H225058   5.177   6.694  13.039  0.5791 -2.7025  0.0767
 1215TIP3   OH225059   1.244   5.927   0.615  0.5583  0.5218 -0.1138
 1215TIP3    H125060   1.162   5.909   0.660  0.6777  1.0446  0.3239
 1215TIP3    H225061   1.254   5.855   0.553 -0.0981  0.3183  0.0146
 1216TIP3   OH225062   3.140   1.449   5.354 -0.0917  0.5249  0.5435
 1216TIP3    H125063   3.142   1.458   5.449  1.5387 -1.5495  0.7642
 1216TIP3    H225064   3.230   1.431   5.329 -0.7788 -0.8352 -1.1679
 1217TIP3   OH225065   1.330   3.167   4.061  0.0330  0.1471  0.0540
 1217TIP3    H125066   1.235   3.168   4.074 -0.2458  0.2520 -1.7404
 1217TIP3    H225067   1.342   3.124   3.976  1.4929  1.4821 -0.4641
 1218TIP3   OH225068   0.560   4.991  13.590 -0.3103  0.5011  0.6535
 1218TIP3    H125069   0.652   5.017  13.580 -0.1848 -0.1877 -0.1278
 1218TIP3    H225070   0.521   5.010  13.504 -0.3035 -1.4680  0.1614
 1219TIP3   OH225071   4.400   5.898   4.669  0.0670 -0.5352  0.2965
 1219TIP3    H125072   4.326   5.868   4.615  1.7037  0.5279 -2.8163
 1219TIP3    H225073   4.410   5.991   4.646  1.2705 -0.1940  2.0240
 1220TIP3   OH225074   1.951   1.627   4.903  0.4569  0.0814 -0.7715
 1220TIP3    H125075   1.881   1.680   4.865 -0.9016 -0.3739  0.9809
 1220TIP3    H225076   1.983   1.679   4.977  1.8163  0.1649 -1.3904
 1221TIP3   OH225077   6.607   6.550  15.212 -0.1129 -0.1118  0.6006
 1221TIP3    H125078   6.658   6.606  15.153  0.0416  0.6969  1.4854
 1221TIP3    H225079   6.548   6.609  15.257 -1.1860 -0.9212  0.2864
 1222TIP3   OH225080   5.502   5.273   2.584 -0.3248  0.5459  0.3438
 1222TIP3    H125081   5.415   5.265   2.545 -1.4267 -0.3172  2.7662
 1222TIP3    H225082   5.560   5.224   2.525 -1.6980  0.0553 -0.6381
 1223TIP3   OH225083   2.546   3.903   3.335  0.0937  0.2675 -0.5925
 1223TIP3    H125084   2.506   3.967   3.276 -0.1020 -0.0484 -0.8054
 1223TIP3    H225085   2.562   3.827   3.280 -0.1698 -0.0628 -0.2172
 1224TIP3   OH225086   3.770   6.642  14.104 -0.4033  0.3809 -0.7045
 1224TIP3    H125087   3.695   6.691  14.070 -1.1052  0.4174  0.8022
 1224TIP3    H225088   3.834   6.709  14.126 -0.0062  0.3668 -1.7445
 1225TIP3   OH225089   5.973   0.719   4.525  0.2966  0.5104  0.0753
 1225TIP3    H125090   5.946   0.771   4.601  0.8666  2.6176 -1.0764
 1225TIP3    H225091   6.055   0.678   4.553  1.1494  2.2412  0.2485
 1226TIP3   OH225092   0.192   1.765   5.527 -0.2178  0.2493 -0.0183
 1226TIP3    H125093   0.209   1.792   5.617 -1.2932  1.2835 -0.1056
 1226TIP3    H225094   0.261   1.807   5.476 -0.3374  0.6789  0.1733
 1227TIP3   OH225095   2.559   3.849   5.529 -0.5654  0.0820 -0.3046
 1227TIP3    H125096   2.650   3.872   5.509 -0.9041 -0.3272 -2.5741
 1227TIP3    H225097   2.515   3.933   5.538 -0.0993  0.2798  0.2674
 1228TIP3   OH225098   4.332   4.585   2.211  0.9805 -0.1730  0.0692
 1228TIP3    H125099   4.297   4.572   2.299  1.3332  0.8165  0.3753
 1228TIP3    H225100   4.259   4.621   2.161  0.3118 -2.1837 -0.4987
 1229TIP3   OH225101   6.294   5.154   1.825 -0.2431 -0.3429 -0.0270
 1229TIP3    H125102   6.208   5.181   1.791  0.2443  0.0026 -1.0072
 1229TIP3    H225103   6.291   5.179   1.918 -0.1703  2.3336 -0.6403
 1230TIP3   OH225104   5.387   1.358   1.818 -0.3166  0.2337 -0.5612
 1230TIP3    H125105   5.335   1.438   1.809  0.9305  1.3343  1.3056
 1230TIP3    H225106   5.462   1.372   1.761 -0.1204  0.3847 -0.2680
 1231TIP3   OH225107   6.477   6.077   4.742  0.2114 -0.8003 -0.0030
 1231TIP3    H125108   6.521   6.082   4.657  2.1791 -1.7682  0.8795
 1231TIP3    H225109   6.502   5.992   4.777  0.2062 -0.0686  1.9225
 1232TIP3   OH225110   6.019   3.407   3.796 -0.0240 -0.1960  0.2616
 1232TIP3    H125111   5.942   3.435   3.746  0.1243  0.3019  0.3001
 1232TIP3    H225112   6.067   3.489   3.811  0.6622 -0.5426 -0.0172
 1233TIP3   OH225113   1.231   6.703   2.572  0.2027 -0.2571 -0.6106
 1233TIP3    H125114   1.264   6.622   2.611  0.8463  0.6865  0.9338
 1233TIP3    H225115   1.310   6.747   2.540 -0.1469 -0.2489 -1.4685
 1234TIP3   OH225116   6.749   5.139  16.661  0.2406  0.1707 -0.0839
 1234TIP3    H125117   6.707   5.151  16.576  0.5395  1.1333 -0.1136
 1234TIP3    H225118   6.799   5.057  16.652 -0.0348  0.0653 -0.7050
 1235TIP3   OH225119   1.339   4.294   2.858 -0.4609 -0.4772  0.0723
 1235TIP3    H125120   1.362   4.334   2.941 -0.7960 -1.2437  0.5454
 1235TIP3    H225121   1.405   4.326   2.796 -0.9138  1.0634  0.3394
 1236TIP3   OH225122   6.725   2.816   0.884 -0.1566  0.0311  0.0451
 1236TIP3    H125123   6.633   2.795   0.900 -0.5024  2.0275  1.1902
 1236TIP3    H225124   6.772   2.735   0.903 -1.7042 -1.1944 -1.1312
 1237TIP3   OH225125   2.836   5.542  14.839 -0.1083 -0.0008  0.4626
 1237TIP3    H125126   2.832   5.481  14.913  0.9428  0.4048  0.8708
 1237TIP3    H225127   2.854   5.627  14.878  1.6864  0.0283 -0.3146
 1238TIP3   OH225128   1.950   2.554   5.705  0.4308  1.0821  0.0343
 1238TIP3    H125129   1.897   2.571   5.783  0.1660  1.0162 -0.1287
 1238TIP3    H225130   1.921   2.467   5.675  1.7338  0.3485  0.8336
 1239TIP3   OH225131   4.359   0.900   2.485 -0.1571  0.0763 -1.0760
 1239TIP3    H125132   4.358   0.971   2.550 -0.7671  2.0884 -3.1313
 1239TIP3    H225133   4.309   0.830   2.526  2.1871 -0.0997  1.8981
 1240TIP3   OH225134   0.907   1.946  13.843 -0.3045  0.1557 -0.4220
 1240TIP3    H125135   0.956   1.886  13.788 -0.6990  0.2823 -0.9179
 1240TIP3    H225136   0.964   1.961  13.919 -0.4306 -1.2943  0.0013
 1241TIP3   OH225137   0.230   1.870   5.771 -0.1992 -0.2443  0.4150
 1241TIP3    H125138   0.251   1.813   5.845  1.3816 -0.8506 -0.4471
 1241TIP3    H225139   0.246   1.959   5.803  0.9791 -0.5315  0.6597
 1242TIP3   OH225140   2.284   1.123  12.365 -0.1969 -0.4027  0.3132
 1242TIP3    H125141   2.301   1.211  12.330 -2.1407  0.0224  0.3433
 1242TIP3    H225142   2.364   1.101  12.413 -0.1698  1.9379  1.4766
 1243TIP3   OH225143   5.484   0.060  10.767  0.3298 -0.4154  0.0792
 1243TIP3    H125144   5.462   0.083  10.677 -2.7393 -0.8183  0.5905
 1243TIP3    H225145   5.503  -0.033  10.764  0.5916 -0.3555 -0.1879
 1244TIP3   OH225146   1.680   3.097  11.908 -0.1945 -0.7306  0.2193
 1244TIP3    H125147   1.763   3.068  11.944 -1.1138 -1.4882  1.8079
 1244TIP3    H225148   1.638   3.146  11.979 -0.7079  0.4976 -0.8742
 1245TIP3   OH225149   1.197   1.159   0.381 -0.5966 -0.3045  0.6126
 1245TIP3    H125150   1.135   1.168   0.308  0.6241 -1.0838 -0.5725
 1245TIP3    H225151   1.267   1.220   0.360  0.3754 -1.4472  0.4546
 1246TIP3   OH225152   2.717   5.299  12.397  0.1980  0.5871 -0.0539
 1246TIP3    H125153   2.651   5.291  12.467  0.4843  1.3871  0.3199
 1246TIP3    H225154   2.669   5.277  12.317 -0.7437  1.8769  0.1165
 1247TIP3   OH225155   3.894   6.055  15.426  0.0129  0.3811 -0.7501
 1247TIP3    H125156   3.802   6.081  15.434 -0.2116 -0.1813 -1.3943
 1247TIP3    H225157   3.920   6.084  15.339  0.4259  0.4565 -0.6056
 1248TIP3   OH225158   5.502   0.983  15.763  0.1003  0.1141  0.1150
 1248TIP3    H125159   5.531   0.972  15.672 -0.0415  0.8455 -0.0221
 1248TIP3    H225160   5.448   0.906  15.780 -1.6555  1.0010 -1.1457
 1249TIP3   OH225161   6.215   3.251  11.934  0.3187 -0.6456 -0.0215
 1249TIP3    H125162   6.148   3.319  11.931  0.5484 -0.3154  1.4486
 1249TIP3    H225163   6.182   3.181  11.877 -0.4195  0.2407 -0.7019
 1250TIP3   OH225164   4.956   3.114   6.012  0.7611 -0.1431  0.0235
 1250TIP3    H125165   5.046   3.113   6.045  0.7519 -1.1959  0.0378
 1250TIP3    H225166   4.912   3.044   6.060  0.4541 -0.9535 -1.4110
 1251TIP3   OH225167   4.083   4.706  11.233 -0.5461 -0.0665  0.0632
 1251TIP3    H125168   4.109   4.694  11.142  0.2786  1.1759  0.1209
 1251TIP3    H225169   4.055   4.797  11.239 -1.3324 -0.3375  0.8920
 1252TIP3   OH225170   6.621   6.717   4.636 -0.1961  0.2230  0.2760
 1252TIP3    H125171   6.577   6.800   4.624  0.9709  0.6529 -1.4007
 1252TIP3    H225172   6.665   6.725   4.721 -1.1089  0.8143  0.7023
 1253TIP3   OH225173   3.628   2.217   0.966  0.2135 -0.0282 -0.4842
 1253TIP3    H125174   3.547   2.260   0.994 -0.9041 -0.9934 -2.1145
 1253TIP3    H225175   3.695   2.286   0.975 -0.8639  0.9647  0.3309
 1254TIP3   OH225176   0.236   1.302  11.646 -0.7933 -0.3706 -0.0195
 1254TIP3    H125177   0.153   1.319  11.600 -0.2435 -2.1704 -1.8402
 1254TIP3    H225178   0.243   1.206  11.648  1.0289 -0.2657  0.4740
 1255TIP3   OH225179   6.456   5.659   3.389  0.4088  0.0586 -0.0793
 1255TIP3    H125180   6.367   5.630   3.368  0.3724  0.0112  0.1355
 1255TIP3    H225181   6.509   5.580   3.384  0.4399  0.0885 -0.2165
 1256TIP3   OH225182   1.170   0.991  13.021  0.0249  0.4956  0.1892
 1256TIP3    H125183   1.134   0.979  12.933 -0.1295 -0.6457  0.4002
 1256TIP3    H225184   1.149   1.082  13.042  0.0590  0.7880 -0.9478
 1257TIP3   OH225185   4.957   5.434  13.551  0.3332 -0.1341  0.0891
 1257TIP3    H125186   4.887   5.499  13.549  0.2916  0.1817  3.9292
 1257TIP3    H225187   4.960   5.399  13.462 -1.4724  3.1445 -1.4498
 1258TIP3   OH225188   0.679   4.762  17.139  0.0787  0.0781  0.3671
 1258TIP3    H125189   0.631   4.779  17.220  0.7186  0.0466  0.7591
 1258TIP3    H225190   0.737   4.837  17.129  0.0692  0.0392 -0.0195
 1259TIP3   OH225191   2.541   6.692  15.825 -0.1092  0.3696 -0.5086
 1259TIP3    H125192   2.481   6.682  15.899 -0.2778 -0.8864 -0.8057
 1259TIP3    H225193   2.617   6.737  15.862 -0.4146  0.2333  0.3057
 1260TIP3   OH225194   6.260   0.949   2.635 -0.4213 -0.1036  0.2252
 1260TIP3    H125195   6.318   0.873   2.636  0.5457  0.6110 -0.5151
 1260TIP3    H225196   6.172   0.912   2.643 -0.1004 -1.4348 -1.8612
 1261TIP3   OH225197   2.964   0.286   4.957  0.2520  0.0050  0.0595
 1261TIP3    H125198   3.002   0.262   4.873 -0.2782  0.8592 -0.4318
 1261TIP3    H225199   2.874   0.256   4.953  0.4112 -0.5622  0.5932
 1262TIP3   OH225200   5.018   2.540  16.607  0.3291  0.0616 -0.4056
 1262TIP3    H125201   4.954   2.486  16.561 -0.4423 -0.7446  1.5033
 1262TIP3    H225202   5.098   2.532  16.556 -0.2627 -1.4505 -1.1470
 1263TIP3   OH225203   5.171   2.718  16.914  0.2080 -0.4617  0.5339
 1263TIP3    H125204   5.184   2.691  17.005 -0.7891 -0.5925  0.6477
 1263TIP3    H225205   5.080   2.748  16.911  0.0324 -1.0637 -0.5574
 1264TIP3   OH225206   0.745   5.824   1.572  0.2895 -0.5356  0.6994
 1264TIP3    H125207   0.788   5.897   1.617 -0.1340  0.5428 -0.6125
 1264TIP3    H225208   0.763   5.838   1.480 -0.3570 -1.7391  0.3672
 1265TIP3   OH225209   5.630   3.522  16.360  0.8697  0.5734  0.2159
 1265TIP3    H125210   5.725   3.521  16.351  0.8585  0.7933  0.0461
 1265TIP3    H225211   5.610   3.612  16.387  0.9598 -0.1778  3.2257
 1266TIP3   OH225212   3.317   0.490  13.200 -0.2291 -0.2325  0.4183
 1266TIP3    H125213   3.316   0.585  13.214 -1.3470 -0.1156 -0.3700
 1266TIP3    H225214   3.377   0.477  13.127  0.0915 -0.1619  0.6645
 1267TIP3   OH225215   4.242   0.628   4.201  0.2457 -0.4126  0.0224
 1267TIP3    H125216   4.227   0.719   4.230  2.2440 -0.0472  0.0415
 1267TIP3    H225217   4.164   0.606   4.150  0.2185  1.7251 -0.9679
 1268TIP3   OH225218   2.031   2.883   3.169 -0.3239 -0.7366 -0.5097
 1268TIP3    H125219   2.121   2.866   3.196 -0.5225 -2.1087 -0.6181
 1268TIP3    H225220   2.025   2.978   3.161  0.0811 -0.2668  3.0967
 1269TIP3   OH225221   0.884   2.697  13.955  0.7199 -0.3762 -0.2834
 1269TIP3    H125222   0.887   2.761  14.026  2.2847  0.5132 -1.0956
 1269TIP3    H225223   0.872   2.612  13.999 -0.7408  0.3691  0.8431
 1270TIP3   OH225224   2.488   4.035   3.605  0.4952  0.0888  0.0476
 1270TIP3    H125225   2.398   4.012   3.581  0.5405  0.3134 -0.3414
 1270TIP3    H225226   2.491   4.023   3.700 -0.5016  1.8959  0.3617
 1271TIP3   OH225227   4.805   2.815   4.607  0.5224  0.1641  0.2626
 1271TIP3    H125228   4.863   2.743   4.582 -0.0848  0.2239 -1.4190
 1271TIP3    H225229   4.718   2.789   4.577 -0.1148  0.6712  1.5479
 1272TIP3   OH225230   3.367   5.306   1.984 -0.2099 -0.4036 -0.0009
 1272TIP3    H125231   3.445   5.255   1.962  0.8705 -0.0271  2.6519
 1272TIP3    H225232   3.294   5.251   1.954  1.0077 -1.3145 -1.4403
 1273TIP3   OH225233   1.478   5.697  15.661 -0.1333  0.0098  0.3679
 1273TIP3    H125234   1.427   5.767  15.702  0.5283  1.5977 -1.3795
 1273TIP3    H225235   1.566   5.734  15.651 -0.0969 -0.5260 -1.8112
 1274TIP3   OH225236   5.107   3.125  13.119  0.0596 -0.3624 -0.0891
 1274TIP3    H125237   5.172   3.185  13.154  0.7144 -0.2487 -1.4327
 1274TIP3    H225238   5.051   3.104  13.194  0.3091  1.2496  0.5912
 1275TIP3   OH225239   0.570   4.119  11.405 -0.0513 -0.5419 -0.3887
 1275TIP3    H125240   0.568   4.184  11.335  3.6620 -0.3952 -0.5883
 1275TIP3    H225241   0.538   4.165  11.482  3.7707  2.2775 -0.1717
 1276TIP3   OH225242   5.753   5.137   0.391  0.4699 -0.0655  0.1519
 1276TIP3    H125243   5.848   5.129   0.395  0.6209  0.7984 -1.1116
 1276TIP3    H225244   5.737   5.231   0.396 -0.1876 -0.0618 -1.5407
 1277TIP3   OH225245   2.386   4.757  12.210 -0.2845 -0.3838 -0.1638
 1277TIP3    H125246   2.300   4.740  12.248 -0.2860 -0.2995 -0.1291
 1277TIP3    H225247   2.378   4.727  12.119 -1.0973  1.7740 -0.8751
 1278TIP3   OH225248   5.811   5.303   2.687 -0.0416  0.1625 -0.1579
 1278TIP3    H125249   5.739   5.244   2.709 -0.1664 -0.3216 -1.7588
 1278TIP3    H225250   5.887   5.245   2.679  0.0149  0.3376 -0.8785
 1279TIP3   OH225251   2.457   4.878   4.657  0.2547 -0.0145 -0.0195
 1279TIP3    H125252   2.467   4.797   4.707 -0.1597  0.2742  0.5475
 1279TIP3    H225253   2.544   4.896   4.622  0.3079 -0.8042 -0.3086
 1280TIP3   OH225254   1.340   0.211  15.226  0.0919 -0.2006  0.4573
 1280TIP3    H125255   1.324   0.125  15.263  1.9845 -0.5456  0.5501
 1280TIP3    H225256   1.380   0.261  15.298 -1.4822  0.9807  0.5880
 1281TIP3   OH225257   6.100   3.427   2.622  0.2319 -0.2843  0.2633
 1281TIP3    H125258   6.128   3.492   2.686  0.2878 -0.6037  0.5691
 1281TIP3    H225259   6.145   3.347   2.648  0.6251 -0.3013 -0.4667
 1282TIP3   OH225260   3.508   4.804   0.567 -0.1384 -0.2796  0.0658
 1282TIP3    H125261   3.451   4.878   0.587 -1.7294 -1.0926 -1.2132
 1282TIP3    H225262   3.532   4.768   0.652 -1.0465  0.4663  0.6560
 1283TIP3   OH225263   6.209   1.625  16.587  0.7640  0.2769  0.3510
 1283TIP3    H125264   6.270   1.558  16.558  1.4644  0.5959  1.0530
 1283TIP3    H225265   6.255   1.708  16.572 -0.3911  0.6920 -1.2684
 1284TIP3   OH225266   6.371   2.621  16.620 -0.4932  0.4906 -0.4786
 1284TIP3    H125267   6.400   2.541  16.663 -1.7855  0.4093  0.2965
 1284TIP3    H225268   6.314   2.591  16.549  0.3182  0.6911 -1.2459
 1285TIP3   OH225269   5.965   3.790   3.490  0.2839  0.8936 -0.9455
 1285TIP3    H125270   5.951   3.851   3.563  1.5704  0.4401 -0.2768
 1285TIP3    H225271   5.907   3.716   3.509 -0.2806  1.3063 -1.0402
 1286TIP3   OH225272   1.123   6.339   3.254  0.0881 -0.0909 -0.1793
 1286TIP3    H125273   1.177   6.417   3.244 -1.9027  1.4003  0.0015
 1286TIP3    H225274   1.096   6.318   3.165  0.8660 -0.7777 -0.2600
 1287TIP3   OH225275   1.829   1.077  14.170  0.3854 -0.4103 -0.6396
 1287TIP3    H125276   1.898   1.036  14.222 -1.7510 -3.5030  0.0313
 1287TIP3    H225277   1.809   1.159  14.216  0.9030 -1.4049  1.4639
 1288TIP3   OH225278   1.726   6.493  11.504 -0.1250 -0.1049 -0.2596
 1288TIP3    H125279   1.797   6.556  11.516 -0.2087  0.1844 -1.1707
 1288TIP3    H225280   1.768   6.407  11.516 -0.3737  0.1008  2.8012
 1289TIP3   OH225281   2.547   4.952  16.821 -0.1936 -0.4170  0.2643
 1289TIP3    H125282   2.494   4.877  16.794  0.6947 -0.4679 -1.4869
 1289TIP3    H225283   2.510   5.026  16.773 -1.8401  0.5992  2.8962
 1290TIP3   OH225284   5.988   2.582  11.936 -0.0121 -0.1993 -0.3726
 1290TIP3    H125285   6.072   2.562  11.894 -0.1552 -0.9084 -0.3346
 1290TIP3    H225286   5.955   2.497  11.964 -0.3954  0.1605  0.2746
 1291TIP3   OH225287   6.142   1.053  13.071  0.4784 -0.4316  0.3043
 1291TIP3    H125288   6.179   0.965  13.067  1.3853 -0.0573  0.2355
 1291TIP3    H225289   6.081   1.058  12.997 -0.5917 -1.4370  1.0764
 1292TIP3   OH225290   4.011   4.709  12.778 -0.1914 -0.4181 -0.0436
 1292TIP3    H125291   3.919   4.725  12.760 -0.1434 -0.1364 -0.0310
 1292TIP3    H225292   4.011   4.635  12.839 -0.4092 -0.3763  0.0053
 1293TIP3   OH225293   4.087   4.467   0.869  0.0065 -0.2853  0.5804
 1293TIP3    H125294   4.021   4.495   0.932 -0.1395  0.6753  0.0224
 1293TIP3    H225295   4.170   4.496   0.907  0.4871 -3.6787  2.5308
 1294TIP3   OH225296   2.280   2.959  15.009 -0.1793  0.2184 -0.0655
 1294TIP3    H125297   2.299   2.906  15.086 -0.1542  0.1776 -0.0997
 1294TIP3    H225298   2.191   2.934  14.984  0.2068 -0.5754 -0.7025
 1295TIP3   OH225299   3.244   5.011   2.120 -0.4447 -0.7309 -0.1102
 1295TIP3    H125300   3.188   4.934   2.125 -2.2024  0.5742  1.1126
 1295TIP3    H225301   3.201   5.068   2.056 -0.1265 -0.0131  0.3097
 1296TIP3   OH225302   4.537   2.936  16.889 -0.2341  0.5267 -0.1535
 1296TIP3    H125303   4.516   3.029  16.874 -1.1769  0.2594 -0.5478
 1296TIP3    H225304   4.480   2.910  16.960  0.0875  0.2597  0.0085
 1297TIP3   OH225305   4.899   5.425   6.087  0.3398 -0.4348 -0.2868
 1297TIP3    H125306   4.972   5.386   6.039  0.4672 -1.7076  0.9010
 1297TIP3    H225307   4.939   5.486   6.148  0.3240 -0.3807 -0.3297
 1298TIP3   OH225308   0.843   2.623   6.358 -0.6885  0.0719  0.0376
 1298TIP3    H125309   0.914   2.562   6.376 -0.9754 -0.2709 -0.0020
 1298TIP3    H225310   0.871   2.705   6.398 -0.8927 -0.4224  1.2070
 1299TIP3   OH225311   0.957   5.017   0.893  0.3615 -0.2665  0.2599
 1299TIP3    H125312   0.893   5.089   0.895  1.4738  0.7702 -0.0334
 1299TIP3    H225313   0.992   5.015   0.982  2.2846  1.4370 -0.3781
 1300TIP3   OH225314   5.987   5.502   1.271 -0.0692 -0.1685  0.7465
 1300TIP3    H125315   6.032   5.434   1.321  0.6690 -0.9753 -0.9367
 1300TIP3    H225316   6.008   5.583   1.318  0.6991 -0.8683  1.6640
 1301TIP3   OH225317   2.708   6.178   0.837  0.9053 -0.0621  0.1433
 1301TIP3    H125318   2.735   6.136   0.755  1.9194  1.4011 -0.3252
 1301TIP3    H225319   2.627   6.224   0.814 -0.8276 -2.5088  0.9351
 1302TIP3   OH225320   1.915   3.548   1.239 -0.5050  0.2418 -0.6394
 1302TIP3    H125321   1.905   3.631   1.192 -0.8406 -0.0107 -1.0094
 1302TIP3    H225322   1.880   3.566   1.327 -0.7047  0.4517 -0.7625
 1303TIP3   OH225323   0.020   2.405  11.457  0.0695  0.3817  0.7933
 1303TIP3    H125324   0.032   2.336  11.392  0.3041 -0.6386  1.8780
 1303TIP3    H225325   0.082   2.473  11.431 -0.8490  0.6463 -0.8513
 1304TIP3   OH225326   2.065   5.403   0.601 -0.4987  0.5104  0.3168
 1304TIP3    H125327   2.082   5.323   0.552 -1.8130  0.1292  0.4591
 1304TIP3    H225328   2.148   5.451   0.598  0.9342 -1.6884  1.8579
 1305TIP3   OH225329   2.350   3.712  14.049  0.0274  0.6172  0.6193
 1305TIP3    H125330   2.416   3.759  13.997  0.4999  0.1433  0.7875
 1305TIP3    H225331   2.318   3.643  13.990 -0.4438  0.9515  0.4787
 1306TIP3   OH225332   1.681   4.209  14.356 -0.1404  0.2676  0.2144
 1306TIP3    H125333   1.708   4.179  14.443 -2.0565  1.7155  1.3910
 1306TIP3    H225334   1.758   4.253  14.320  0.0550  1.5796  2.1176
 1307TIP3   OH225335   6.474   4.574   0.991  0.0027 -0.4174  0.0957
 1307TIP3    H125336   6.380   4.563   1.002  0.0233  0.4180  1.3786
 1307TIP3    H225337   6.483   4.635   0.918 -0.5268  0.6088  0.8665
 1308TIP3   OH225338   4.402   5.226  17.136  0.5407 -0.5831 -0.1223
 1308TIP3    H125339   4.463   5.171  17.087  2.1138  1.1906 -0.2598
 1308TIP3    H225340   4.448   5.309  17.147 -0.6476 -0.1740  2.4582
 1309TIP3   OH225341   2.944   5.148   0.818 -0.5228  0.0304  0.6702
 1309TIP3    H125342   3.035   5.143   0.849 -1.2882  1.2413  3.4599
 1309TIP3    H225343   2.903   5.070   0.855 -0.3217 -1.4881 -2.0811
 1310TIP3   OH225344   2.697   3.080  11.625  0.0889 -0.0727 -0.0541
 1310TIP3    H125345   2.791   3.096  11.634 -0.1514  1.0414  0.6278
 1310TIP3    H225346   2.671   3.129  11.547 -0.1475  0.6629  0.4775
 1311TIP3   OH225347   1.834   2.620   0.160 -0.5368  0.6840  0.2063
 1311TIP3    H125348   1.925   2.648   0.149 -0.5358  0.0500 -2.0789
 1311TIP3    H225349   1.822   2.612   0.254  1.4092  1.9395  0.6119
 1312TIP3   OH225350   2.548   4.080  17.126 -0.0098 -0.2408  0.0599
 1312TIP3    H125351   2.617   4.143  17.108  0.9492 -0.2557  3.1026
 1312TIP3    H225352   2.485   4.128  17.181 -0.2830 -1.3515  0.7543
 1313TIP3   OH225353   0.458   5.624   2.626  0.0848 -0.3612 -0.4741
 1313TIP3    H125354   0.531   5.684   2.642  0.5553 -0.6889 -1.3610
 1313TIP3    H225355   0.484   5.542   2.667 -1.1533  0.3558  1.9924
 1314TIP3   OH225356   2.939   4.271  13.708  0.1035  0.0399  0.2251
 1314TIP3    H125357   2.939   4.214  13.785  0.7631 -1.5657 -0.9006
 1314TIP3    H225358   3.005   4.233  13.650 -1.4573  0.2415 -1.7964
 1315TIP3   OH225359   1.226   2.705   0.265  0.5755  0.3708  0.1693
 1315TIP3    H125360   1.185   2.788   0.292 -0.2718  0.1226 -0.3094
 1315TIP3    H225361   1.164   2.638   0.292  1.1130 -0.0959  0.2667
 1316TIP3   OH225362   5.130   2.156   3.784 -0.1779  0.3815  0.3093
 1316TIP3    H125363   5.207   2.136   3.837  0.6106 -0.2090 -1.0341
 1316TIP3    H225364   5.113   2.077   3.734 -1.4036  0.6547  0.2603
 1317TIP3   OH225365   4.128   0.768  13.377  0.4891  0.0446 -0.4498
 1317TIP3    H125366   4.054   0.713  13.403  0.0008  0.7342 -0.3536
 1317TIP3    H225367   4.205   0.712  13.391 -0.0045 -0.6694 -0.5175
 1318TIP3   OH225368   3.505   4.631   4.029  0.4790 -0.4012 -0.1228
 1318TIP3    H125369   3.525   4.566   3.962  1.2597 -0.1680 -0.1281
 1318TIP3    H225370   3.451   4.584   4.093  0.4595 -0.8633 -0.4738
 1319TIP3   OH225371   1.922   0.988   2.077 -0.4050 -1.1568 -0.3346
 1319TIP3    H125372   2.012   1.022   2.073 -0.7524  0.3082  2.2202
 1319TIP3    H225373   1.889   0.998   1.988  1.5102 -0.4467 -1.0297
 1320TIP3   OH225374   2.511   3.560   5.241 -0.0075  0.0244  0.0892
 1320TIP3    H125375   2.574   3.617   5.197  0.8984 -0.5503  0.5815
 1320TIP3    H225376   2.443   3.543   5.176 -1.0948  2.8115  0.3920
 1321TIP3   OH225377   6.075   5.339  17.075  0.5141 -0.2071 -0.1155
 1321TIP3    H125378   6.147   5.319  17.134 -0.3102  0.6460  1.2342
 1321TIP3    H225379   6.039   5.421  17.108  0.1796  0.4436 -1.9802
 1322TIP3   OH225380   3.246   2.908   2.263 -0.5501 -0.0882 -0.5353
 1322TIP3    H125381   3.314   2.848   2.233 -0.3579 -1.9679  3.0349
 1322TIP3    H225382   3.221   2.875   2.349 -4.5929  1.7022 -0.7548
 1323TIP3   OH225383   3.606   0.210  13.682  0.0574  0.1256 -0.0636
 1323TIP3    H125384   3.575   0.130  13.722 -0.6962  1.7171  2.8098
 1323TIP3    H225385   3.528   0.264  13.672  0.5618  0.6001 -1.8501
 1324TIP3   OH225386   2.517   0.001  14.645 -0.2662  0.1899  0.6830
 1324TIP3    H125387   2.507  -0.072  14.706 -0.5753  1.2927  2.0139
 1324TIP3    H225388   2.510   0.079  14.700 -1.3125  1.2597 -0.8761
 1325TIP3   OH225389   5.520   6.389   1.712  0.3765  0.1158  0.3642
 1325TIP3    H125390   5.547   6.375   1.803  0.2850  1.9087  0.6890
 1325TIP3    H225391   5.598   6.422   1.669  0.5203 -1.0613 -0.3342
 1326TIP3   OH225392   2.683   0.173   0.610 -0.1989 -0.2378  0.2013
 1326TIP3    H125393   2.648   0.148   0.525  0.6737  0.9526 -0.5398
 1326TIP3    H225394   2.664   0.267   0.618  0.3184 -0.1854  1.0099
 1327TIP3   OH225395   0.512   0.382  15.675  0.1422 -0.4131  0.7111
 1327TIP3    H125396   0.559   0.345  15.600  2.0717 -0.2448  1.7572
 1327TIP3    H225397   0.511   0.477  15.659 -1.1114 -0.5217  0.0323
 1328TIP3   OH225398   0.296   3.139  10.841  0.6549  0.4970  1.0555
 1328TIP3    H125399   0.205   3.150  10.867 -0.1574 -0.3419 -1.1915
 1328TIP3    H225400   0.341   3.215  10.878 -1.0863  1.3219  1.5871
 1329TIP3   OH225401   6.174   1.442   2.812 -0.1679  0.1245 -0.1651
 1329TIP3    H125402   6.248   1.397   2.852 -0.1100 -0.2363 -0.6648
 1329TIP3    H225403   6.160   1.519   2.867 -0.9961 -1.0804  1.4096
 1330TIP3   OH225404   6.597   1.778  15.292 -0.1529  0.2323  0.2907
 1330TIP3    H125405   6.615   1.872  15.291 -0.5300  0.4642 -4.0910
 1330TIP3    H225406   6.503   1.772  15.280 -0.0904 -0.7229  0.2374
 1331TIP3   OH225407   2.528   1.424   5.879 -0.8235 -0.0902  0.2586
 1331TIP3    H125408   2.534   1.519   5.872 -0.6862 -0.1441 -0.4656
 1331TIP3    H225409   2.469   1.398   5.807  1.2846 -0.7740 -1.3339
 1332TIP3   OH225410   6.430   1.437  15.722  0.6796  0.0520  0.1937
 1332TIP3    H125411   6.472   1.407  15.803 -0.1987  1.7410  1.3255
 1332TIP3    H225412   6.344   1.468  15.750  0.7399  1.6121 -1.2309
 1333TIP3   OH225413   6.381   2.106  15.140 -0.5070 -0.1671  0.3010
 1333TIP3    H125414   6.401   2.185  15.191  1.4122 -0.6552  0.3720
 1333TIP3    H225415   6.454   2.097  15.080  0.0011 -2.5904  1.1531
 1334TIP3   OH225416   2.111   2.866  16.363 -0.5852  0.4075 -0.3313
 1334TIP3    H125417   2.198   2.852  16.399  0.2922  3.0842 -1.1744
 1334TIP3    H225418   2.116   2.835  16.272 -0.6030  0.2340 -0.2715
 1335TIP3   OH225419   2.688   1.973   4.383 -0.0579 -0.4254 -0.2289
 1335TIP3    H125420   2.702   1.911   4.311 -0.4374 -0.1099 -0.5755
 1335TIP3    H225421   2.657   2.053   4.341 -0.5467 -0.3253  0.3087
 1336TIP3   OH225422   3.060   4.828   2.170 -0.4272  0.3603 -1.0329
 1336TIP3    H125423   3.000   4.891   2.209  1.7014  1.9750 -0.1564
 1336TIP3    H225424   3.075   4.763   2.238  0.3769  1.0933 -0.4972
 1337TIP3   OH225425   2.728   0.553  12.133 -0.0562 -0.3359 -0.2448
 1337TIP3    H125426   2.812   0.557  12.087 -0.6032  1.5682 -1.2104
 1337TIP3    H225427   2.698   0.463  12.119  1.3082 -0.7354 -0.8213
 1338TIP3   OH225428   6.728   6.510  17.132 -0.2471  0.1391 -0.3527
 1338TIP3    H125429   6.661   6.575  17.112 -0.3710  0.1291  0.0186
 1338TIP3    H225430   6.719   6.444  17.064  0.3625  0.8744 -1.1632
 1339TIP3   OH225431   1.539   2.000  16.768 -0.5136 -0.0904 -0.0921
 1339TIP3    H125432   1.586   2.021  16.848 -0.6264  2.4012 -0.6086
 1339TIP3    H225433   1.449   1.983  16.797 -0.1749 -1.0407  0.4659
 1340TIP3   OH225434   2.042   0.166   5.567  0.0598  0.0768  1.0193
 1340TIP3    H125435   2.113   0.120   5.611 -0.2112 -0.7254  0.6315
 1340TIP3    H225436   1.973   0.100   5.557  0.6426 -0.2087 -1.9167
 1341TIP3   OH225437   1.299   5.677   2.536  0.7500 -0.2621 -0.1307
 1341TIP3    H125438   1.263   5.757   2.573  0.5540 -0.6500  0.5452
 1341TIP3    H225439   1.247   5.659   2.458  0.5270  0.0394 -0.0488
 1342TIP3   OH225440   1.547   5.101  16.852 -0.1119 -0.2317  0.1229
 1342TIP3    H125441   1.505   5.144  16.777  0.4238  0.7104  0.3385
 1342TIP3    H225442   1.633   5.143  16.858  0.4456 -1.3568  0.3517
 1343TIP3   OH225443   6.242   3.446   3.259 -0.3041 -0.2420  0.0364
 1343TIP3    H125444   6.187   3.523   3.274  0.8292  0.5887  0.0764
 1343TIP3    H225445   6.327   3.482   3.232 -0.3959 -1.5215 -2.2296
 1344TIP3   OH225446   3.543   2.115   5.662 -0.4125 -0.3323 -0.2104
 1344TIP3    H125447   3.548   2.130   5.756  0.7022 -1.0364 -0.1361
 1344TIP3    H225448   3.452   2.092   5.645 -0.9642  1.2364  0.4598
 1345TIP3   OH225449   3.869   1.046   3.542 -0.2037 -0.3525  0.0473
 1345TIP3    H125450   3.957   1.010   3.542 -0.4062 -0.8601 -0.8950
 1345TIP3    H225451   3.837   1.028   3.631  0.7052  0.0326  0.4674
 1346TIP3   OH225452   2.087   5.668  16.444  0.1711  0.0451 -0.0791
 1346TIP3    H125453   2.131   5.614  16.378  0.8075  0.1279  0.2709
 1346TIP3    H225454   2.121   5.637  16.528 -4.0621 -3.3959  0.7628
 1347TIP3   OH225455   2.935   5.235   5.813 -0.5483  0.1858 -0.2790
 1347TIP3    H125456   2.965   5.144   5.807 -2.6885 -0.5257 -1.0896
 1347TIP3    H225457   2.848   5.234   5.773  0.3754  3.0966 -2.7524
 1348TIP3   OH225458   0.454   4.620   5.063 -0.1668 -0.5734  0.9158
 1348TIP3    H125459   0.423   4.538   5.026  0.5603 -0.8154  0.8283
 1348TIP3    H225460   0.494   4.595   5.146 -1.0336 -0.1422  1.4898
 1349TIP3   OH225461   4.881   3.176  12.923 -0.0846  0.3172  0.8575
 1349TIP3    H125462   4.957   3.209  12.972  0.4941  0.3572 -0.0485
 1349TIP3    H225463   4.873   3.084  12.949 -0.9467  0.8068  2.4483
 1350TIP3   OH225464   2.099   3.202   3.619  0.1636  0.3571 -0.0379
 1350TIP3    H125465   2.046   3.264   3.669  0.3800 -0.8167  1.7152
 1350TIP3    H225466   2.186   3.205   3.660  0.3381 -0.6603 -0.3023
 1351TIP3   OH225467   6.613   4.474  15.347  0.1887 -0.7580 -0.0055
 1351TIP3    H125468   6.614   4.565  15.377  2.1844 -0.1085 -1.8215
 1351TIP3    H225469   6.692   4.435  15.384  0.9185 -0.8718 -1.6054
 1352TIP3   OH225470   0.611   1.884  13.771 -0.4229 -0.4115 -0.3032
 1352TIP3    H125471   0.651   1.934  13.842 -1.0893  0.3868 -0.4795
 1352TIP3    H225472   0.522   1.865  13.802 -0.3700 -0.9728 -0.4858
 1353TIP3   OH225473   1.735   2.251  15.347  0.2655  0.5263 -0.5076
 1353TIP3    H125474   1.651   2.290  15.322  0.6654  0.4682 -2.0440
 1353TIP3    H225475   1.720   2.218  15.435 -0.8682  1.8341 -0.1697
 1354TIP3   OH225476   0.687   2.049  12.929 -0.0374 -0.4698  0.8792
 1354TIP3    H125477   0.612   2.101  12.956  0.1261  0.2326 -0.0110
 1354TIP3    H225478   0.762   2.090  12.972  0.0459 -0.1665  0.4517
 1355TIP3   OH225479   3.761   0.752   5.826  0.2104  0.2381 -0.0897
 1355TIP3    H125480   3.683   0.806   5.838 -0.2327 -0.6562  1.2645
 1355TIP3    H225481   3.731   0.677   5.775  0.1490 -0.1270  0.4670
 1356TIP3   OH225482   6.783   5.770  16.113  0.4990 -0.3087 -0.0839
 1356TIP3    H125483   6.708   5.823  16.085  0.8420 -0.1625 -0.7545
 1356TIP3    H225484   6.860   5.821  16.086  0.8355 -1.0450 -0.5425
 1357TIP3   OH225485   5.755   4.116   0.659  0.0002  0.4054 -0.0039
 1357TIP3    H125486   5.767   4.073   0.743  1.3275  3.3916  1.4779
 1357TIP3    H225487   5.761   4.210   0.678 -1.4761  1.3056 -3.1674
 1358TIP3   OH225488   6.443   1.809  15.882 -0.1505 -0.1402  0.4055
 1358TIP3    H125489   6.398   1.868  15.942 -0.3977  0.6669 -0.5436
 1358TIP3    H225490   6.533   1.804  15.915  0.1999  1.7320 -0.1548
 1359TIP3   OH225491   5.085   4.149   3.942  0.1146 -0.4027  0.3228
 1359TIP3    H125492   5.082   4.060   3.978 -0.2969 -1.1717 -1.5013
 1359TIP3    H225493   5.116   4.138   3.852  0.6408  1.3776  0.2547
 1360TIP3   OH225494   5.251   0.219  15.792  0.0193 -0.2963 -0.2581
 1360TIP3    H125495   5.325   0.279  15.788 -0.2830  0.1643  0.7495
 1360TIP3    H225496   5.228   0.202  15.701 -0.0612  1.3329 -0.5546
 1361TIP3   OH225497   4.533   2.364  14.626  0.6196 -0.0981 -0.4538
 1361TIP3    H125498   4.488   2.337  14.706  1.2798  1.2365  0.4192
 1361TIP3    H225499   4.462   2.392  14.567  0.2191  1.1634  0.5770
 1362TIP3   OH225500   1.454   2.283   0.057  0.0957 -0.1177  0.1981
 1362TIP3    H125501   1.399   2.268   0.133  2.7842  1.6375  2.7355
 1362TIP3    H225502   1.442   2.376   0.037  0.0636 -0.3661 -1.0084
 1363TIP3   OH225503   5.728   0.987  16.396 -0.1873 -0.0180 -0.3620
 1363TIP3    H125504   5.729   0.892  16.387  0.0574 -0.0236 -0.2785
 1363TIP3    H225505   5.817   1.010  16.423  0.4010  0.4333 -2.4646
 1364TIP3   OH225506   3.557   1.575   4.605  0.8251 -0.1264 -0.0921
 1364TIP3    H125507   3.481   1.601   4.657  0.4185 -1.6500  0.1447
 1364TIP3    H225508   3.632   1.610   4.653  0.3869 -0.4269  0.8530
 1365TIP3   OH225509   2.749   0.492   3.122 -0.2039 -0.0224 -0.3976
 1365TIP3    H125510   2.778   0.405   3.149 -1.1909 -0.2797 -0.1345
 1365TIP3    H225511   2.826   0.548   3.134  0.4863 -0.8830 -0.7275
 1366TIP3   OH225512   1.972   2.910  12.943  0.3045 -0.7326  0.3105
 1366TIP3    H125513   1.888   2.870  12.921  0.0445  0.0233 -0.1049
 1366TIP3    H225514   1.954   2.965  13.019  0.4405 -0.5989  0.2462
 1367TIP3   OH225515   3.580   5.448  15.451  0.0094 -0.4181  0.0920
 1367TIP3    H125516   3.609   5.539  15.452 -0.3348 -0.2972 -0.3025
 1367TIP3    H225517   3.658   5.397  15.430 -0.5766  0.1622 -5.0236
 1368TIP3   OH225518   0.797   1.297   1.996 -0.3201  0.5573  0.0297
 1368TIP3    H125519   0.714   1.309   2.043 -1.0070 -1.0378 -0.6873
 1368TIP3    H225520   0.806   1.377   1.944 -1.0868  1.0309  0.5859
 1369TIP3   OH225521   4.623   3.850  15.609 -0.1240 -0.3274  0.1396
 1369TIP3    H125522   4.647   3.925  15.554 -0.3644 -0.2617  0.1211
 1369TIP3    H225523   4.548   3.881  15.661 -0.2674 -0.5733  0.0838
 1370TIP3   OH225524   2.440   4.276  16.217  0.0662 -0.1503 -0.2387
 1370TIP3    H125525   2.474   4.199  16.171  1.4945  0.0212  0.4653
 1370TIP3    H225526   2.497   4.347  16.188  0.4157  0.1318  1.0828
 1371TIP3   OH225527   1.826   4.592   4.032  0.5195 -0.4339 -0.9173
 1371TIP3    H125528   1.860   4.550   3.953  0.2164 -0.6978 -0.9119
 1371TIP3    H225529   1.766   4.659   3.999  0.6872 -0.2860 -0.9191
 1372TIP3   OH225530   3.868   4.814   5.827 -0.3076 -0.5886 -0.2502
 1372TIP3    H125531   3.780   4.848   5.810  0.3720  0.1324 -2.8350
 1372TIP3    H225532   3.915   4.888   5.865 -0.1745 -0.1747 -1.1964
 1373TIP3   OH225533   5.122   2.548   5.106  0.0860  0.6274 -0.6129
 1373TIP3    H125534   5.170   2.574   5.028  1.2291 -0.6171 -0.3573
 1373TIP3    H225535   5.035   2.588   5.096  0.9842  2.4792 -1.3422
 1374TIP3   OH225536   1.452   6.722   5.526 -0.4429 -0.0072 -0.0479
 1374TIP3    H125537   1.387   6.787   5.499 -0.6138 -0.9769 -2.1797
 1374TIP3    H225538   1.507   6.768   5.590 -1.0073  1.9951 -0.9108
 1375TIP3   OH225539   0.510   0.416   6.382  0.2399  0.2071 -0.2701
 1375TIP3    H125540   0.475   0.341   6.429 -0.3636  0.0223 -0.9990
 1375TIP3    H225541   0.487   0.491   6.437  0.8422 -0.1353  0.4575
 1376TIP3   OH225542   1.105   1.837   1.133  0.1510 -0.3548 -0.3097
 1376TIP3    H125543   1.056   1.816   1.212  1.1636  1.8149  1.0042
 1376TIP3    H225544   1.057   1.794   1.062 -2.5728  0.1600  1.0943
 1377TIP3   OH225545   2.004   6.658  11.881  0.3851 -0.1839  0.2178
 1377TIP3    H125546   2.013   6.720  11.953  3.1403  0.4237 -0.5105
 1377TIP3    H225547   2.000   6.572  11.924  1.8185  0.1755  1.1584
 1378TIP3   OH225548   4.471   0.377  13.898  0.4338 -0.6864 -0.5156
 1378TIP3    H125549   4.530   0.412  13.965  1.8470 -0.7446 -1.6673
 1378TIP3    H225550   4.396   0.343  13.947  1.0236  0.0276  0.9541
 1379TIP3   OH225551   2.769   3.595  12.936  0.6399  0.0746 -0.0641
 1379TIP3    H125552   2.753   3.509  12.976 -0.1230 -0.4122 -1.3425
 1379TIP3    H225553   2.687   3.643  12.948  0.1934 -0.2846 -1.4834
 1380TIP3   OH225554   4.138   6.760   0.821 -0.2630 -0.8222  0.5042
 1380TIP3    H125555   4.096   6.779   0.905  0.6680 -1.7362  1.1963
 1380TIP3    H225556   4.227   6.733   0.844  0.6659  0.8033 -0.8996
 1381TIP3   OH225557   2.315   5.528  13.840 -0.2328  0.0722 -0.2966
 1381TIP3    H125558   2.320   5.591  13.911 -0.8203  1.6620 -1.5938
 1381TIP3    H225559   2.407   5.509  13.818 -0.0248  1.3314 -0.5862
 1382TIP3   OH225560   0.165   4.396  14.635 -0.2410 -0.2098 -0.4597
 1382TIP3    H125561   0.225   4.325  14.655 -0.9069 -0.6808 -0.0749
 1382TIP3    H225562   0.220   4.465  14.600  0.5783 -0.4707  0.2775
 1383TIP3   OH225563   2.496   5.740   1.390 -0.5471  0.3792 -0.2165
 1383TIP3    H125564   2.560   5.765   1.323 -0.2643 -0.7654 -0.3915
 1383TIP3    H225565   2.442   5.673   1.347 -0.6969  0.0159  0.5325
 1384TIP3   OH225566   1.517   5.464   5.398 -0.2652  0.1170 -0.5967
 1384TIP3    H125567   1.578   5.393   5.419  1.2522  1.9466  1.5992
 1384TIP3    H225568   1.543   5.493   5.310  1.5663  0.3384 -0.0215
 1385TIP3   OH225569   5.117   4.909  14.709 -0.0896  0.3873 -0.2640
 1385TIP3    H125570   5.103   4.971  14.781 -0.1049  0.9921 -0.7829
 1385TIP3    H225571   5.034   4.861  14.704  0.4468 -0.7496  1.1401
 1386TIP3   OH225572   4.268   2.697   4.348 -0.3306 -0.2029  0.4958
 1386TIP3    H125573   4.238   2.701   4.439 -1.8504  0.9257  0.0050
 1386TIP3    H225574   4.295   2.786   4.328  0.3458 -0.5256 -0.0516
 1387TIP3   OH225575   0.183   4.732   2.159 -0.2063 -0.2532  0.6258
 1387TIP3    H125576   0.226   4.797   2.215  0.1444 -1.0110  1.2557
 1387TIP3    H225577   0.107   4.704   2.209 -1.3991  0.9692 -0.4177
 1388TIP3   OH225578   4.040   1.042   4.427  0.2318  0.6220  0.0938
 1388TIP3    H125579   4.048   1.112   4.363  0.4109  1.0332  0.5638
 1388TIP3    H225580   3.978   1.074   4.492  0.9105  0.6804  0.7350
 1389TIP3   OH225581   6.072   3.396   0.012  0.0512 -0.3558  0.4910
 1389TIP3    H125582   6.009   3.464  -0.012  1.4587  1.3838  1.5354
 1389TIP3    H225583   6.033   3.315  -0.021 -1.0741  1.0747 -1.9626
 1390TIP3   OH225584   3.886   4.893  11.881 -0.3414 -0.5945  0.2060
 1390TIP3    H125585   3.803   4.929  11.852 -1.5408 -2.1825  1.4921
 1390TIP3    H225586   3.876   4.798  11.873  2.0594 -0.8077 -1.4195
 1391TIP3   OH225587   5.695   2.885   2.813  0.2458  0.2731  0.4125
 1391TIP3    H125588   5.725   2.887   2.722  0.9067  3.3603  0.5802
 1391TIP3    H225589   5.770   2.850   2.862  1.0745  1.4134  0.0322
 1392TIP3   OH225590   2.532   1.830   4.614 -0.6889  0.5572 -0.1697
 1392TIP3    H125591   2.460   1.773   4.584  0.3611 -1.4570  0.9765
 1392TIP3    H225592   2.603   1.812   4.553 -0.5910  1.2776 -0.2772
 1393TIP3   OH225593   1.768   6.589   4.228 -0.3154 -0.1120  0.1127
 1393TIP3    H125594   1.858   6.569   4.252 -0.7089 -0.3316  1.4764
 1393TIP3    H225595   1.746   6.667   4.278 -0.6317  0.4309 -0.8463
 1394TIP3   OH225596   0.520   0.309  12.456  0.1253  0.4149  0.2518
 1394TIP3    H125597   0.466   0.233  12.476 -0.4702  0.6654 -0.3513
 1394TIP3    H225598   0.487   0.378  12.514 -0.6210  0.7347 -0.5331
 1395TIP3   OH225599   4.043   5.914  15.650 -0.2133  0.1584  0.9134
 1395TIP3    H125600   4.019   5.961  15.570 -2.5709  0.6593  1.8133
 1395TIP3    H225601   4.119   5.961  15.684  1.9187 -1.0698 -1.7935
 1396TIP3   OH225602   1.619   1.290   2.804  0.3891 -0.0032  0.1657
 1396TIP3    H125603   1.691   1.235   2.772  1.9287  0.9002  1.8934
 1396TIP3    H225604   1.614   1.361   2.740 -0.5702 -1.2468 -1.2193
 1397TIP3   OH225605   4.337   1.638  12.896  0.6905 -0.7100 -0.3091
 1397TIP3    H125606   4.299   1.725  12.910  2.7111  0.1109  0.4239
 1397TIP3    H225607   4.401   1.651  12.826  1.1868 -1.5682 -0.0242
 1398TIP3   OH225608   2.740   3.428   5.918  0.0664  0.0849  0.2441
 1398TIP3    H125609   2.719   3.354   5.862  0.1061  0.5494 -0.3920
 1398TIP3    H225610   2.739   3.392   6.007 -1.0247 -0.4227  0.0397
 1399TIP3   OH225611   1.077   5.653  15.007 -0.0222 -0.3944 -0.2166
 1399TIP3    H125612   1.088   5.563  15.039  0.8118 -0.6425 -1.1286
 1399TIP3    H225613   1.154   5.667  14.952  0.3336  1.2118  0.6502
 1400TIP3   OH225614   5.241   2.810   4.794  0.4440 -0.5667  0.0853
 1400TIP3    H125615   5.210   2.879   4.735  0.2350 -1.6981 -1.1668
 1400TIP3    H225616   5.222   2.844   4.882 -1.1046  0.2972 -0.5325
 1401TIP3   OH225617   3.518   0.208   3.285  0.2806  0.1958  0.2596
 1401TIP3    H125618   3.598   0.164   3.256  1.3174  0.7240  2.1407
 1401TIP3    H225619   3.542   0.300   3.293  0.0280  0.1211  2.4824
 1402TIP3   OH225620   1.038   1.417   0.043 -0.0066  0.0246  0.2709
 1402TIP3    H125621   1.034   1.513   0.048 -0.0423 -0.0588  3.3329
 1402TIP3    H225622   0.960   1.393  -0.008 -1.3956  1.5450  1.5814
 1403TIP3   OH225623   0.110   0.343   4.597  0.7261 -0.0771  0.5777
 1403TIP3    H125624   0.083   0.347   4.506  2.3081 -1.4101 -0.0077
 1403TIP3    H225625   0.173   0.414   4.607 -0.6404  1.1070  1.1187
 1404TIP3   OH225626   2.064   1.106   1.675 -0.4287  0.0237 -0.1142
 1404TIP3    H125627   2.155   1.116   1.647  0.0725 -1.4982  0.7997
 1404TIP3    H225628   2.025   1.192   1.662  1.7543  1.4071  1.5691
 1405TIP3   OH225629   6.460   6.681   3.067 -0.9536 -0.1158 -0.2894
 1405TIP3    H125630   6.409   6.746   3.019  0.2950  2.1621  1.2481
 1405TIP3    H225631   6.508   6.632   3.000 -1.5123  0.9138 -1.4750
 1406TIP3   OH225632   3.330   5.350  16.076 -0.4396  0.1061  0.0177
 1406TIP3    H125633   3.384   5.295  16.019 -0.5056  0.1668 -0.1017
 1406TIP3    H225634   3.247   5.303  16.082 -0.3824  0.0254  0.1830
 1407TIP3   OH225635   5.760   0.542  16.852 -0.2636 -0.6735 -0.0983
 1407TIP3    H125636   5.814   0.534  16.930 -1.9618 -0.8458  1.1294
 1407TIP3    H225637   5.791   0.472  16.794  2.0213  0.4022 -0.2746
 1408TIP3   OH225638   1.200   5.767  13.405  0.1189  0.9834  0.3938
 1408TIP3    H125639   1.289   5.733  13.392  0.2037  1.1149  0.6281
 1408TIP3    H225640   1.182   5.753  13.498 -0.8580 -0.8306 -0.0131
 1409TIP3   OH225641   5.654   2.327  13.633  0.5404  0.7713 -0.6901
 1409TIP3    H125642   5.687   2.342  13.721 -0.8073  0.5751 -0.1363
 1409TIP3    H225643   5.628   2.235  13.632  0.1412  0.8877 -1.1552
 1410TIP3   OH225644   5.216   5.648  13.031 -0.4894 -0.1481 -0.6792
 1410TIP3    H125645   5.290   5.605  13.074 -0.9445 -1.5271 -1.1914
 1410TIP3    H225646   5.173   5.577  12.983 -2.0574  0.6533 -0.5108
 1411TIP3   OH225647   4.412   6.337  12.268 -0.1374  0.6110 -0.1329
 1411TIP3    H125648   4.332   6.390  12.266 -0.6241 -0.1132 -0.5209
 1411TIP3    H225649   4.454   6.354  12.183 -0.7847 -0.3377 -0.6592
 1412TIP3   OH225650   0.652   6.737   0.482  0.7121  0.4968 -0.5041
 1412TIP3    H125651   0.579   6.722   0.542  0.1342  1.2819 -0.9972
 1412TIP3    H225652   0.678   6.649   0.454 -0.2649  0.2243 -0.5888
 1413TIP3   OH225653   5.299   2.840   0.968  0.1616 -0.3967  0.4009
 1413TIP3    H125654   5.368   2.823   0.903 -0.3665 -3.2008  0.4571
 1413TIP3    H225655   5.232   2.774   0.950 -1.8572  1.2892  1.3234
 1414TIP3   OH225656   5.810   5.916  15.182  0.0174 -0.2026 -0.3677
 1414TIP3    H125657   5.724   5.958  15.184 -0.6485 -1.4986 -0.5723
 1414TIP3    H225658   5.857   5.960  15.112  0.5417  2.3814  1.4772
 1415TIP3   OH225659   3.771   6.662   4.733 -0.0829 -0.4096  0.0261
 1415TIP3    H125660   3.701   6.703   4.682  1.1862  1.2807 -0.4427
 1415TIP3    H225661   3.843   6.652   4.671  0.3559 -1.4878  0.6722
 1416TIP3   OH225662   0.365   2.244  14.315  0.0984  0.2672  0.1024
 1416TIP3    H125663   0.377   2.170  14.375 -1.3029  0.0498  0.1384
 1416TIP3    H225664   0.293   2.295  14.353  0.5523  1.2645 -0.3128
 1417TIP3   OH225665   2.456   1.343   4.058  0.0232 -0.8779 -0.0469
 1417TIP3    H125666   2.435   1.367   3.968 -0.7977 -1.6721 -0.0760
 1417TIP3    H225667   2.484   1.425   4.099  0.3139 -0.4899 -0.9878
 1418TIP3   OH225668   1.071   4.137  16.573 -0.0391  0.1521  0.3026
 1418TIP3    H125669   1.057   4.051  16.613  1.0675  0.5151  1.5475
 1418TIP3    H225670   1.142   4.123  16.510 -0.6319 -0.0704 -0.3239
 1419TIP3   OH225671   0.528   4.414  14.281  0.0940  0.2510  0.6366
 1419TIP3    H125672   0.573   4.372  14.208 -0.5086  0.9879 -0.1749
 1419TIP3    H225673   0.439   4.429  14.250  0.0997  1.4879  1.1482
 1420TIP3   OH225674   3.389   6.698  11.801  0.0213 -0.5783 -0.4893
 1420TIP3    H125675   3.376   6.615  11.756 -0.0027 -0.6082 -0.4275
 1420TIP3    H225676   3.305   6.716  11.842  0.1877 -0.8081 -0.0334
 1421TIP3   OH225677   2.102   2.243   5.816 -0.0585 -0.3534  0.5737
 1421TIP3    H125678   2.029   2.185   5.793 -0.6577  0.4999  0.2638
 1421TIP3    H225679   2.121   2.221   5.908 -0.0433 -1.2664  0.3668
 1422TIP3   OH225680   6.108   6.592   0.728 -0.2110  0.3141  0.2527
 1422TIP3    H125681   6.202   6.576   0.723 -0.4302 -1.7208  1.3386
 1422TIP3    H225682   6.096   6.641   0.809 -0.1117  0.3570  0.2413
 1423TIP3   OH225683   4.960   2.338   1.289 -0.1243 -0.3119  0.2885
 1423TIP3    H125684   5.046   2.381   1.282 -0.2898 -0.1247 -0.6773
 1423TIP3    H225685   4.980   2.247   1.310  0.2697 -0.0371  1.1496
 1424TIP3   OH225686   3.435   0.534   2.851 -0.9414  0.3244  0.4890
 1424TIP3    H125687   3.477   0.570   2.773 -0.6688 -1.4984 -0.2343
 1424TIP3    H225688   3.506   0.519   2.913 -0.8596 -0.3555  0.2314
 1425TIP3   OH225689   1.676   2.901  16.040 -0.4604 -0.2506  0.2360
 1425TIP3    H125690   1.771   2.910  16.033 -0.6028  0.9207 -0.3543
 1425TIP3    H225691   1.663   2.816  16.082  0.8141 -1.0160 -0.8576
 1426TIP3   OH225692   3.327   5.694  15.695  0.0520 -0.1391  0.0799
 1426TIP3    H125693   3.348   5.743  15.774 -1.9666  0.3011  0.4032
 1426TIP3    H225694   3.296   5.609  15.726  0.1126 -0.2992 -0.2904
 1427TIP3   OH225695   4.683   2.163  11.097 -0.1723  0.9741  0.3042
 1427TIP3    H125696   4.635   2.096  11.049  0.6482  1.6465 -1.5208
 1427TIP3    H225697   4.765   2.174  11.048  0.6426  1.8090  1.7828
 1428TIP3   OH225698   6.691   0.153   1.488 -0.2796 -0.3645 -0.0332
 1428TIP3    H125699   6.624   0.141   1.555  0.7233 -0.1915  1.0371
 1428TIP3    H225700   6.690   0.072   1.437 -0.4738 -0.8563  0.7392
 1429TIP3   OH225701   0.695   0.386  13.356  0.0965 -0.2180 -0.5603
 1429TIP3    H125702   0.697   0.440  13.435  0.9347 -1.0696  0.0310
 1429TIP3    H225703   0.617   0.414  13.309  0.0412  0.8835  0.1606
 1430TIP3   OH225704   2.452   1.992   2.964  0.5243 -0.2208 -1.1264
 1430TIP3    H125705   2.389   2.054   2.929  0.9596  1.7886  1.3496
 1430TIP3    H225706   2.400   1.913   2.981 -0.8314  0.6187 -1.2269
 1431TIP3   OH225707   5.810   4.550  13.750 -0.2724  0.3796 -0.1784
 1431TIP3    H125708   5.732   4.494  13.752 -0.6399  0.8856  1.8277
 1431TIP3    H225709   5.883   4.489  13.745 -0.6860 -0.2939  1.5028
 1432TIP3   OH225710   2.926   6.087   0.996 -0.5033 -0.1200  0.3866
 1432TIP3    H125711   2.895   6.091   1.086 -1.0141  1.1072  0.1707
 1432TIP3    H225712   2.854   6.121   0.944  0.5301  1.1628 -0.2852
 1433TIP3   OH225713   1.911   2.457  15.150 -0.5656  0.0004  0.1832
 1433TIP3    H125714   1.906   2.384  15.211 -0.0968 -0.2782 -0.1042
 1433TIP3    H225715   1.997   2.496  15.165 -1.2923  1.2786  1.2049
 1434TIP3   OH225716   0.967   4.876   3.847  0.5241  0.1882 -0.6187
 1434TIP3    H125717   0.902   4.869   3.777 -0.2558 -2.1235  0.2572
 1434TIP3    H225718   0.928   4.830   3.921  1.1998  2.7833  1.5247
 1435TIP3   OH225719   3.924   5.682   3.737  0.1250  0.3580  0.0740
 1435TIP3    H125720   3.991   5.749   3.727 -0.9965  1.4100 -0.6889
 1435TIP3    H225721   3.937   5.623   3.663 -1.2877  1.9587 -1.5382
 1436TIP3   OH225722   0.350   2.289   5.880  0.5235  0.4020  0.1834
 1436TIP3    H125723   0.398   2.268   5.960  0.4820 -1.9409 -0.3340
 1436TIP3    H225724   0.274   2.231   5.882 -0.2668  1.3669 -0.8630
 1437TIP3   OH225725   2.524   6.362  13.253 -0.1101 -0.1633 -0.0305
 1437TIP3    H125726   2.561   6.277  13.278 -0.3769 -0.3080 -0.1192
 1437TIP3    H225727   2.461   6.341  13.183 -1.2560 -0.0799  0.9485
 1438TIP3   OH225728   1.308   2.106   4.281  0.2911  0.4880 -0.3944
 1438TIP3    H125729   1.377   2.081   4.219  0.4841  0.0425 -0.0037
 1438TIP3    H225730   1.325   2.198   4.299  1.4909  0.1193  0.5635
 1439TIP3   OH225731   1.035   0.382  13.296 -0.3525  0.3678  0.6766
 1439TIP3    H125732   0.982   0.366  13.374 -0.6641 -0.0004  0.3938
 1439TIP3    H225733   1.125   0.382  13.327 -0.4390 -0.4162  0.9369
 1440TIP3   OH225734   3.748   2.990   4.150  0.4154  0.6493 -0.7203
 1440TIP3    H125735   3.738   2.935   4.228  2.3645  0.3547 -0.6325
 1440TIP3    H225736   3.699   3.070   4.171  0.4370  0.3504  0.5759
 1441TIP3   OH225737   3.036   5.434  13.785 -0.5829 -0.2400 -0.4550
 1441TIP3    H125738   3.107   5.385  13.741 -1.6017 -1.5853 -0.6606
 1441TIP3    H225739   3.024   5.389  13.868 -2.1515 -0.9589 -1.0323
 1442TIP3   OH225740   5.758   5.096  13.341  0.0377  0.3174 -0.0042
 1442TIP3    H125741   5.720   5.150  13.411  0.5265  0.9780 -0.2389
 1442TIP3    H225742   5.821   5.154  13.297 -0.2480 -0.0975 -0.9835
 1443TIP3   OH225743   0.167   0.154   5.032  0.0302  0.5085 -0.1077
 1443TIP3    H125744   0.144   0.194   5.115 -0.9956  0.6058 -0.4314
 1443TIP3    H225745   0.221   0.078   5.056 -0.4367  0.4115  0.6462
 1444TIP3   OH225746   2.966   1.184  13.522 -0.2750 -0.1442 -0.1886
 1444TIP3    H125747   2.976   1.274  13.491  0.3037 -0.3548 -0.6390
 1444TIP3    H225748   3.052   1.144  13.508 -0.3052 -0.5527  0.7246
 1445TIP3   OH225749   1.801   6.031   2.860  0.0662 -0.4599 -0.0957
 1445TIP3    H125750   1.784   6.005   2.769  0.0376 -0.0640 -0.2049
 1445TIP3    H225751   1.715   6.056   2.894  0.1056 -0.4398 -0.0114
 1446TIP3   OH225752   3.552   4.412  15.595 -0.7090 -0.6848 -0.2593
 1446TIP3    H125753   3.555   4.352  15.670 -0.4472 -2.8082 -1.8548
 1446TIP3    H225754   3.459   4.422  15.575 -0.7436 -0.9620 -0.2483
 1447TIP3   OH225755   1.021   5.375   0.034 -0.7104  0.1873  0.5292
 1447TIP3    H125756   0.969   5.416   0.103 -1.2341 -0.6962  0.6734
 1447TIP3    H225757   0.959   5.320  -0.013  0.4469 -2.6991  2.1046
 1448TIP3   OH225758   1.703   6.139   0.209 -0.5885 -0.5782 -0.4650
 1448TIP3    H125759   1.707   6.234   0.197  0.2355 -0.7682 -2.0369
 1448TIP3    H225760   1.756   6.122   0.286  0.3980  0.1360 -0.9667
 1449TIP3   OH225761   2.915   3.247  10.734 -0.0811  0.2114  0.4882
 1449TIP3    H125762   2.983   3.308  10.765 -0.1048 -0.3579  1.6955
 1449TIP3    H225763   2.833   3.294  10.747 -0.0720  0.0701  1.0736
 1450TIP3   OH225764   4.615   1.779   4.274 -0.5829 -0.2020 -0.8976
 1450TIP3    H125765   4.577   1.795   4.360  1.0666  0.2535 -0.2046
 1450TIP3    H225766   4.599   1.860   4.225 -0.5969 -0.0542 -0.6473
 1451TIP3   OH225767   3.306   5.600   3.043  0.3313  0.0033 -0.0256
 1451TIP3    H125768   3.261   5.516   3.030  0.9019 -0.4789  1.0258
 1451TIP3    H225769   3.241   5.654   3.089 -0.5159  0.6223 -1.8395
 1452TIP3   OH225770   5.491   2.222  14.563  0.3196  0.0435 -0.2116
 1452TIP3    H125771   5.571   2.209  14.511  0.1893 -1.6169 -0.0567
 1452TIP3    H225772   5.504   2.168  14.640  0.0774  1.7099  1.0440
 1453TIP3   OH225773   2.739   3.615  16.010 -0.0900 -0.0117 -0.1102
 1453TIP3    H125774   2.782   3.534  15.981 -1.6288 -0.6662 -0.6464
 1453TIP3    H225775   2.785   3.684  15.963 -0.4128 -0.7978 -1.6775
 1454TIP3   OH225776   6.360   1.724   5.264 -0.0581 -0.0994 -0.0184
 1454TIP3    H125777   6.388   1.806   5.305  0.3078 -0.8484  1.2769
 1454TIP3    H225778   6.405   1.723   5.180  2.0950 -0.2163  1.0666
 1455TIP3   OH225779   1.690   3.850  16.027 -0.2659 -0.1265  0.5284
 1455TIP3    H125780   1.779   3.851  16.063  0.5684 -0.5599 -1.4226
 1455TIP3    H225781   1.663   3.758  16.033  0.1712 -0.3421 -0.5768
 1456TIP3   OH225782   2.500   0.712  12.585  0.3548 -0.1736 -0.0750
 1456TIP3    H125783   2.405   0.710  12.577  0.2312 -2.2033  1.1372
 1456TIP3    H225784   2.533   0.691  12.498 -0.3316 -0.2324 -0.3244
 1457TIP3   OH225785   3.973   3.031  16.150  0.0998 -0.2067 -0.0759
 1457TIP3    H125786   3.997   2.992  16.234 -1.5684 -4.2060 -1.1935
 1457TIP3    H225787   3.881   3.056  16.160 -0.2565 -1.1719 -0.8074
 1458TIP3   OH225788   0.695   3.418   1.609 -0.3502 -0.3015  0.5316
 1458TIP3    H125789   0.614   3.445   1.651  0.4670  1.7404  0.9188
 1458TIP3    H225790   0.751   3.496   1.611  0.8573 -1.0112 -1.6028
 1459TIP3   OH225791   2.553   1.042  15.203 -0.5902 -0.0424 -0.0616
 1459TIP3    H125792   2.611   0.986  15.255 -1.0449  1.3141  2.0228
 1459TIP3    H225793   2.599   1.126  15.198 -1.5502  0.4989  0.0050
 1460TIP3   OH225794   3.913   4.541   5.868  0.5100  0.2831 -0.2715
 1460TIP3    H125795   3.876   4.627   5.845  1.1563  0.2463 -1.5490
 1460TIP3    H225796   3.942   4.551   5.958 -2.0315  0.4882  0.6096
 1461TIP3   OH225797   3.766   0.399  11.720  0.0339 -0.5899 -0.2085
 1461TIP3    H125798   3.803   0.332  11.777  0.9317  1.2157  1.4540
 1461TIP3    H225799   3.842   0.449  11.689 -0.6332 -0.0382 -1.0160
 1462TIP3   OH225800   3.606   2.333  12.750 -0.4556  0.0619 -0.2526
 1462TIP3    H125801   3.687   2.377  12.723  0.0236  0.3922  1.5869
 1462TIP3    H225802   3.564   2.307  12.668  1.4702 -0.0417 -1.2576
 1463TIP3   OH225803   6.665   5.411   2.073 -0.5440  0.1940 -0.6402
 1463TIP3    H125804   6.749   5.456   2.084  0.9572 -2.6636  0.6674
 1463TIP3    H225805   6.658   5.395   1.979  0.4116  0.4132 -0.7592
 1464TIP3   OH225806   0.099   6.508  12.589 -0.0613 -0.2283 -0.4064
 1464TIP3    H125807   0.005   6.524  12.588  0.1150  0.8886 -1.5245
 1464TIP3    H225808   0.112   6.441  12.521 -0.1737 -1.3014  0.6034
 1465TIP3   OH225809   0.445   6.564   3.485  0.3776  0.0747  0.2188
 1465TIP3    H125810   0.515   6.506   3.454  0.6898  0.3233  0.4583
 1465TIP3    H225811   0.491   6.638   3.524 -0.0209  0.1667  0.5099
 1466TIP3   OH225812   1.267   1.097   3.191  0.1612  0.4303  0.2083
 1466TIP3    H125813   1.289   1.033   3.122 -1.3889  0.5501 -0.4222
 1466TIP3    H225814   1.205   1.156   3.149  0.6948  1.6845  1.1461
 1467TIP3   OH225815   4.324   4.365  14.527  0.2711 -0.9450 -0.1375
 1467TIP3    H125816   4.327   4.418  14.448 -2.5040 -2.5257 -1.4998
 1467TIP3    H225817   4.358   4.421  14.597  1.7159  0.9098 -2.2171
 1468TIP3   OH225818   3.472   1.748   2.441 -0.6867  0.2928 -0.3997
 1468TIP3    H125819   3.561   1.766   2.474 -0.9229 -1.2701  1.2915
 1468TIP3    H225820   3.416   1.806   2.492 -0.6486  1.5263 -1.7092
 1469TIP3   OH225821   3.035   0.314  11.188 -0.4809 -0.9611 -0.0810
 1469TIP3    H125822   2.987   0.395  11.207  3.1022  1.7181 -1.2628
 1469TIP3    H225823   3.025   0.302  11.094  0.5439 -0.7087 -0.2383
 1470TIP3   OH225824   3.437   3.412  15.865 -0.0854 -0.2815 -0.3094
 1470TIP3    H125825   3.370   3.471  15.830  0.4141  0.1060 -0.6247
 1470TIP3    H225826   3.433   3.335  15.809  0.7917  0.3854 -1.3223
 1471TIP3   OH225827   1.224   4.343  13.276 -0.5886 -0.2245 -0.2537
 1471TIP3    H125828   1.291   4.407  13.299  0.6613 -1.7958  0.7264
 1471TIP3    H225829   1.169   4.336  13.354  0.0936 -1.2573  0.1707
 1472TIP3   OH225830   6.598   0.510  10.667 -0.3225 -0.3300 -1.0634
 1472TIP3    H125831   6.610   0.569  10.593  2.9326 -0.1877 -0.5710
 1472TIP3    H225832   6.599   0.567  10.744  0.3933 -0.7978 -0.7133
 1473TIP3   OH225833   6.635   4.053  12.780  0.2126 -0.7269 -0.0653
 1473TIP3    H125834   6.653   4.073  12.688  0.0586  0.8629  0.2223
 1473TIP3    H225835   6.721   4.039  12.819  0.9457  4.2049  0.7129
 1474TIP3   OH225836   4.650   6.343  15.568 -0.1128  0.2661  0.8354
 1474TIP3    H125837   4.736   6.302  15.572 -0.0993 -0.2246 -2.0997
 1474TIP3    H225838   4.594   6.279  15.524 -0.8575  2.1338 -1.1351
 1475TIP3   OH225839   1.206   1.992  14.725  0.2205 -0.1932  0.1753
 1475TIP3    H125840   1.212   2.070  14.779  0.7499 -1.0098  1.3479
 1475TIP3    H225841   1.124   1.950  14.751 -0.1994  0.0993 -0.6460
 1476TIP3   OH225842   0.559   5.669  10.630  0.1281  0.0880 -0.1949
 1476TIP3    H125843   0.581   5.636  10.717 -2.0482 -1.0064  0.0123
 1476TIP3    H225844   0.556   5.590  10.575 -1.1495  0.4008 -0.6152
 1477TIP3   OH225845   5.882   6.660   3.833  0.1441  0.1053 -0.1686
 1477TIP3    H125846   5.843   6.636   3.749 -0.8447 -0.3279  0.4046
 1477TIP3    H225847   5.882   6.756   3.833 -2.6268  0.1944  0.5397
 1478TIP3   OH225848   4.172   1.613   1.132 -0.4255 -0.6088  0.1671
 1478TIP3    H125849   4.161   1.538   1.191  1.2562 -1.2250 -0.2715
 1478TIP3    H225850   4.179   1.575   1.045  0.9866 -0.0148 -0.0105
 1479TIP3   OH225851   5.074   3.284   4.350  0.4585  0.3702 -0.3781
 1479TIP3    H125852   5.135   3.311   4.281  0.7924  1.2069  0.2276
 1479TIP3    H225853   5.076   3.356   4.413 -0.7951  0.1825 -0.1052
 1480TIP3   OH225854   0.688   2.017  14.269 -0.1560 -0.1818  0.2452
 1480TIP3    H125855   0.654   2.007  14.181 -0.1048  0.8950  0.0935
 1480TIP3    H225856   0.780   1.991  14.262  0.2157  1.2074 -0.3382
 1481TIP3   OH225857   0.419   4.882  16.785 -0.2261 -0.6189 -0.0489
 1481TIP3    H125858   0.500   4.849  16.746 -1.3330 -0.4312 -2.6831
 1481TIP3    H225859   0.437   4.974  16.805  0.7248 -1.0197  1.0059
 1482TIP3   OH225860   1.943   5.560   2.648  0.2340  0.1385 -0.2555
 1482TIP3    H125861   1.896   5.505   2.585 -0.1611  0.1750  0.0063
 1482TIP3    H225862   1.965   5.501   2.720  1.1732 -0.0309 -0.6728
 1483TIP3   OH225863   5.946   2.359   1.192 -0.0588 -0.4255  0.7893
 1483TIP3    H125864   6.034   2.358   1.155  0.3645 -1.3371  1.7559
 1483TIP3    H225865   5.943   2.281   1.248 -1.1242  0.1613  1.5872
 1484TIP3   OH225866   5.096   6.649  13.974 -0.6301 -0.7186 -0.0956
 1484TIP3    H125867   5.122   6.718  14.035  0.1854 -0.8106 -0.3276
 1484TIP3    H225868   5.006   6.626  14.000 -0.3112 -0.7384  1.0432
 1485TIP3   OH225869   0.579   6.279  13.561 -0.5079 -0.1757  0.1912
 1485TIP3    H125870   0.551   6.362  13.599 -0.4900  0.0431 -0.2654
 1485TIP3    H225871   0.511   6.257  13.497 -1.3740 -1.3567  1.4614
 1486TIP3   OH225872   3.845   5.222  16.984  0.5082  0.0984 -0.5067
 1486TIP3    H125873   3.941   5.224  16.983  0.5001  1.3411 -0.4647
 1486TIP3    H225874   3.821   5.282  17.055 -0.3095  0.9186 -1.4610
 1487TIP3   OH225875   6.177   0.762   3.819  0.3491 -0.0639 -0.2706
 1487TIP3    H125876   6.251   0.764   3.758  1.0939  0.0772  0.6081
 1487TIP3    H225877   6.204   0.700   3.887 -0.3073  0.0555  0.1071
 1488TIP3   OH225878   5.491   1.092  16.417  0.3617 -0.3799  0.1560
 1488TIP3    H125879   5.568   1.037  16.405 -1.0450 -2.2443 -0.9058
 1488TIP3    H225880   5.450   1.096  16.330 -2.1198 -1.6758  1.1491
 1489TIP3   OH225881   0.417   3.868  12.376  0.5769  0.1877 -0.1945
 1489TIP3    H125882   0.411   3.940  12.313 -1.0526  0.2539 -0.0212
 1489TIP3    H225883   0.356   3.893  12.446 -0.4552 -1.5992 -0.3948
 1490TIP3   OH225884   4.861   1.344   2.784  0.0137 -0.1107 -0.1013
 1490TIP3    H125885   4.846   1.265   2.732  0.4257  0.2590 -0.8119
 1490TIP3    H225886   4.804   1.335   2.860  0.1202 -1.1296 -0.1252
 1491TIP3   OH225887   4.143   4.032   4.786 -0.3866  0.4943 -0.2024
 1491TIP3    H125888   4.052   4.059   4.799  0.0575  2.0470 -0.1624
 1491TIP3    H225889   4.137   3.955   4.730 -1.7201  0.6490 -0.3088
 1492TIP3   OH225890   5.550   0.929   1.187 -0.0834 -0.3251 -0.5075
 1492TIP3    H125891   5.636   0.943   1.227 -0.1860  0.5958 -0.5915
 1492TIP3    H225892   5.568   0.871   1.113  0.7533  1.1269 -1.5078
 1493TIP3   OH225893   6.135   2.651   1.031  0.4129  0.3099 -0.0384
 1493TIP3    H125894   6.175   2.568   1.005 -0.3392 -0.1541  0.2563
 1493TIP3    H225895   6.084   2.678   0.955 -1.6706 -0.9748  0.8134
 1494TIP3   OH225896   2.732   0.377  17.121 -0.6447 -0.3483 -0.1438
 1494TIP3    H125897   2.761   0.410  17.036 -1.2449  1.2186  0.2188
 1494TIP3    H225898   2.754   0.284  17.120  2.8953  0.3347 -0.5261
 1495TIP3   OH225899   5.971   4.638   5.597 -0.3401 -0.0122 -0.4814
 1495TIP3    H125900   5.989   4.545   5.586 -1.0162 -0.0925 -0.9363
 1495TIP3    H225901   6.013   4.660   5.680  1.0899 -0.3804 -1.0702
 1496TIP3   OH225902   1.175   1.329  12.734  0.2044 -0.3010  0.4490
 1496TIP3    H125903   1.167   1.422  12.752  0.5455  0.2502 -1.9955
 1496TIP3    H225904   1.268   1.315  12.716  0.3824 -1.3965  1.9390
 1497TIP3   OH225905   6.287   0.033   2.800  0.3348  0.0471  0.4462
 1497TIP3    H125906   6.327   0.052   2.716 -0.6128  1.4209  0.2847
 1497TIP3    H225907   6.227  -0.040   2.782  1.1041 -0.5409  0.2266
 1498TIP3   OH225908   5.077   0.169  16.814 -0.3993  0.1275 -0.8524
 1498TIP3    H125909   5.129   0.222  16.874 -0.1779 -1.0592  0.0475
 1498TIP3    H225910   5.061   0.087  16.862 -1.4076 -0.3063 -1.8796
 1499TIP3   OH225911   6.675   1.042  11.667  0.8714 -0.0972  0.6709
 1499TIP3    H125912   6.691   1.090  11.586  0.6186 -0.4319  0.4166
 1499TIP3    H225913   6.659   0.952  11.638  2.3519 -0.5542  1.2080
 1500TIP3   OH225914   3.848   5.057   6.309 -0.3609 -0.9460 -0.2743
 1500TIP3    H125915   3.782   5.125   6.317 -0.8517 -1.4063 -0.3784
 1500TIP3    H225916   3.929   5.105   6.292 -0.6623 -0.3791 -0.1460
 1501TIP3   OH225917   4.453   1.292  11.349  0.2137 -0.0207 -0.2546
 1501TIP3    H125918   4.406   1.211  11.328 -0.6022  0.3483  0.0899
 1501TIP3    H225919   4.400   1.332  11.418  0.8501  0.5937 -0.1193
 1502TIP3   OH225920   0.856   4.178  15.124  0.3327 -0.2642 -0.0950
 1502TIP3    H125921   0.816   4.243  15.181  0.8401  1.0225 -1.1619
 1502TIP3    H225922   0.789   4.161  15.057  0.1686 -0.9257  0.2278
 1503TIP3   OH225923   6.590   1.864  14.111 -0.4651  0.5143 -0.8219
 1503TIP3    H125924   6.526   1.794  14.097  0.7561 -0.7920 -0.1758
 1503TIP3    H225925   6.622   1.884  14.023 -0.8121  0.2365 -1.0170
 1504TIP3   OH225926   2.927   3.598  15.607  0.2289 -0.0999 -0.0052
 1504TIP3    H125927   3.015   3.602  15.571  0.5602  0.7491  0.8270
 1504TIP3    H225928   2.885   3.679  15.577  0.5001  0.6006  1.4155
 1505TIP3   OH225929   3.651   6.438   5.127 -0.2480 -0.2329 -0.3592
 1505TIP3    H125930   3.597   6.360   5.117 -1.6302  0.6833 -0.2060
 1505TIP3    H225931   3.695   6.448   5.043 -1.0848 -0.4439 -0.8320
 1506TIP3   OH225932   6.070   4.392   4.924  0.4510  0.2988  0.2682
 1506TIP3    H125933   6.043   4.484   4.917 -0.3071  0.0153 -0.8690
 1506TIP3    H225934   6.149   4.387   4.870  0.6712  0.3434  0.5840
 1507TIP3   OH225935   0.235   3.090  15.710 -0.0449  0.2579 -0.0028
 1507TIP3    H125936   0.166   3.026  15.722  0.0156  0.3024  0.6125
 1507TIP3    H225937   0.315   3.045  15.737 -0.0299  0.6483  0.6255
 1508TIP3   OH225938   3.587   4.084  10.920  0.1984 -0.2572 -0.0155
 1508TIP3    H125939   3.605   4.123  10.835 -1.0952  2.6727  0.9322
 1508TIP3    H225940   3.514   4.024  10.905  0.0507  0.1552 -0.9766
 1509TIP3   OH225941   4.093   3.646  13.917  0.1278 -0.3081  0.1329
 1509TIP3    H125942   4.068   3.558  13.947  0.7503 -0.3841  0.4364
 1509TIP3    H225943   4.163   3.631  13.853  0.6938 -0.0062  0.6704
 1510TIP3   OH225944   5.857   2.082  16.657 -0.3467 -0.1031 -0.0930
 1510TIP3    H125945   5.852   2.009  16.719  0.0660  0.8492  1.1244
 1510TIP3    H225946   5.769   2.120  16.658 -0.1909  0.2680  0.4001
 1511TIP3   OH225947   4.619   0.653  11.108 -0.5418  0.3478 -0.2757
 1511TIP3    H125948   4.600   0.566  11.140  0.0984  0.7297  1.2197
 1511TIP3    H225949   4.689   0.640  11.044 -1.4875 -0.3704 -1.1962
 1512TIP3   OH225950   2.095   0.748   0.677 -0.3169 -0.3765 -0.1514
 1512TIP3    H125951   2.091   0.654   0.694  0.7128 -0.8668 -2.2587
 1512TIP3    H225952   2.084   0.756   0.582 -0.6258  1.6705  0.0007
 1513TIP3   OH225953   3.581   3.170  16.660  0.0230  0.0673 -0.0923
 1513TIP3    H125954   3.540   3.119  16.590  0.0173 -0.5749  0.3713
 1513TIP3    H225955   3.669   3.133  16.669  0.5919  1.1582 -0.7900
 1514TIP3   OH225956   0.980   4.764  11.415  0.8920  0.3798  0.1863
 1514TIP3    H125957   1.031   4.755  11.335 -0.8326  1.4456 -1.1036
 1514TIP3    H225958   1.039   4.808  11.476  1.1964  2.7939 -1.6761
 1515TIP3   OH225959   4.249   0.965   5.811 -0.0427 -0.2131 -0.2340
 1515TIP3    H125960   4.229   1.017   5.889 -0.1636  1.7448 -1.4906
 1515TIP3    H225961   4.167   0.922   5.788 -0.1499 -0.3371  0.3757
 1516TIP3   OH225962   2.195   4.920  13.306 -0.2026 -0.7674  0.4549
 1516TIP3    H125963   2.146   4.840  13.283  1.0384 -1.4704  0.1911
 1516TIP3    H225964   2.217   4.960  13.222  1.7509 -1.7559  0.4410
 1517TIP3   OH225965   1.970   0.239   1.913  0.0622  0.9294  0.1886
 1517TIP3    H125966   1.891   0.196   1.945  0.2023  0.6916  0.2249
 1517TIP3    H225967   2.020   0.259   1.992 -0.3227  1.8018  0.2137
 1518TIP3   OH225968   1.654   0.953   0.396  0.2276 -0.5117 -0.2160
 1518TIP3    H125969   1.619   0.864   0.401  1.7604 -1.0972  1.0241
 1518TIP3    H225970   1.588   1.007   0.440 -0.2150 -1.2117 -0.0011
 1519TIP3   OH225971   0.338   3.470  15.034 -0.1497 -0.2563  0.1160
 1519TIP3    H125972   0.296   3.456  14.949  2.9290 -0.6410 -1.4768
 1519TIP3    H225973   0.314   3.559  15.058  1.3771  1.0517 -2.7645
 1520TIP3   OH225974   1.217   5.465   0.278 -0.0880 -0.2016 -0.0002
 1520TIP3    H125975   1.302   5.440   0.241 -0.0103  1.9099 -1.4170
 1520TIP3    H225976   1.153   5.434   0.214 -0.2507 -0.0523  0.0898
 1521TIP3   OH225977   2.704   1.599   3.911  0.2104  0.2716 -0.5347
 1521TIP3    H125978   2.656   1.596   3.994 -0.2871 -0.3956 -0.8324
 1521TIP3    H225979   2.638   1.625   3.846  0.1369 -1.0790 -1.0220
 1522TIP3   OH225980   4.419   5.842  14.642 -0.3834  0.0247 -0.3041
 1522TIP3    H125981   4.504   5.806  14.667  0.4920  0.2227 -2.7406
 1522TIP3    H225982   4.362   5.766  14.632  0.2545 -0.3567 -1.1674
 1523TIP3   OH225983   3.398   5.884   5.812 -0.4903  0.3521 -0.0193
 1523TIP3    H125984   3.322   5.865   5.867  1.0062 -0.8247  1.7808
 1523TIP3    H225985   3.402   5.811   5.751  1.3884 -1.9178  2.5336
 1524TIP3   OH225986   2.074   3.771   0.614 -0.4448 -0.2315 -0.1006
 1524TIP3    H125987   2.048   3.682   0.638  1.2347 -0.9239 -0.6450
 1524TIP3    H225988   2.114   3.761   0.528 -2.2585  1.4520 -1.2163
 1525TIP3   OH225989   2.891   4.534  10.426 -0.1788 -0.9488 -0.3413
 1525TIP3    H125990   2.949   4.516  10.500 -2.1477  3.0133  2.5894
 1525TIP3    H225991   2.930   4.611  10.383 -1.8855  0.2723  0.1851
 1526TIP3   OH225992   2.813   5.457   2.944 -0.2491  0.4545 -0.3848
 1526TIP3    H125993   2.734   5.428   2.898  0.5466 -0.5051 -1.1805
 1526TIP3    H225994   2.832   5.386   3.004 -0.4329  1.0489  0.3962
 1527TIP3   OH225995   5.380   5.923   2.079  0.1584  0.1424 -0.2081
 1527TIP3    H125996   5.326   5.940   2.002  0.7580  1.9207 -0.2757
 1527TIP3    H225997   5.362   5.996   2.138 -0.7312 -1.4965  1.6415
 1528TIP3   OH225998   3.515   6.650   5.512  0.2645 -0.2158 -0.1226
 1528TIP3    H125999   3.521   6.639   5.417 -1.8017 -0.2088 -0.3062
 1528TIP3    H226000   3.523   6.561   5.547 -0.3823 -0.3953 -0.4192
 1529TIP3   OH226001   5.855   6.064   4.319  0.0429  0.9878  0.2448
 1529TIP3    H126002   5.763   6.048   4.299 -0.1524  1.6837  0.5589
 1529TIP3    H226003   5.896   5.978   4.313 -0.9832  0.3197  1.9162
 1530TIP3   OH226004   0.878   5.682  16.469 -0.0048 -0.2333  0.8804
 1530TIP3    H126005   0.790   5.717  16.453  0.4108 -0.0224 -1.1794
 1530TIP3    H226006   0.921   5.749  16.522 -0.4903  0.5353  0.3236
 1531TIP3   OH226007   1.639   4.675  15.696  0.0098  0.8391  0.0572
 1531TIP3    H126008   1.567   4.699  15.754  0.2862  1.6064  0.0908
 1531TIP3    H226009   1.667   4.589  15.727 -2.2472 -0.4527 -1.2575
 1532TIP3   OH226010   1.384   2.877  10.761 -0.5486 -0.0140 -0.0888
 1532TIP3    H126011   1.290   2.861  10.769 -0.4014 -0.8287  0.1609
 1532TIP3    H226012   1.405   2.848  10.672 -0.4800 -0.1470 -0.0305
 1533TIP3   OH226013   6.703   2.589   5.318  0.1862  0.1899  0.1669
 1533TIP3    H126014   6.700   2.629   5.405 -2.8082 -1.2120  0.8492
 1533TIP3    H226015   6.676   2.660   5.259 -0.4782  0.4459  0.7543
 1534TIP3   OH226016   1.506   0.281  16.356  0.6344 -0.0755  0.4376
 1534TIP3    H126017   1.498   0.367  16.397 -1.8285  0.1322 -0.3077
 1534TIP3    H226018   1.562   0.296  16.279 -0.3385  1.0522 -0.0829
 1535TIP3   OH226019   1.196   2.160   5.093  0.0671  0.1243  0.2249
 1535TIP3    H126020   1.242   2.142   5.011  0.2389  1.9124 -0.1192
 1535TIP3    H226021   1.260   2.207   5.147 -0.6950  0.8645  0.5187
 1536TIP3   OH226022   1.549   4.979  13.588  0.4267  0.2125 -0.1616
 1536TIP3    H126023   1.466   4.931  13.585  0.7381 -0.3475 -0.0077
 1536TIP3    H226024   1.603   4.936  13.522  0.3111  1.1228 -0.8604
 1537TIP3   OH226025   5.308   5.164   3.781 -0.4182 -0.6941 -0.6989
 1537TIP3    H126026   5.229   5.115   3.755 -1.0299  0.4512 -1.0665
 1537TIP3    H226027   5.284   5.256   3.768  0.1329 -0.1871  1.5028
 1538TIP3   OH226028   1.748   4.500   0.998 -0.2915 -0.2970  0.2272
 1538TIP3    H126029   1.764   4.495   0.904 -1.1859 -0.2826  0.0666
 1538TIP3    H226030   1.694   4.424   1.018 -2.5603  1.2158  0.1854
 1539TIP3   OH226031   6.223   0.009  13.844 -0.2786  0.4872  0.1545
 1539TIP3    H126032   6.214  -0.053  13.916  0.0465  0.6612  0.3460
 1539TIP3    H226033   6.256  -0.044  13.771 -2.6273 -0.1459 -0.5286
 1540TIP3   OH226034   2.111   5.337   2.014 -0.3271 -0.3018 -0.0000
 1540TIP3    H126035   2.091   5.246   1.994  1.3229 -0.4533 -1.1327
 1540TIP3    H226036   2.165   5.367   1.942 -0.4305  1.4540  0.5884
 1541TIP3   OH226037   6.698   4.884   2.172  0.5609  0.2789 -0.0872
 1541TIP3    H126038   6.663   4.971   2.154  1.5359  0.7294  0.1128
 1541TIP3    H226039   6.647   4.825   2.116 -0.1846  0.9642 -0.1358
 1542TIP3   OH226040   6.255   2.107   4.096  0.2246 -0.4286  0.7021
 1542TIP3    H126041   6.319   2.036   4.092 -1.5619 -2.0604 -2.3666
 1542TIP3    H226042   6.303   2.183   4.062  1.4131 -0.7972  1.4976
 1543TIP3   OH226043   3.174   1.135  16.937  0.0753  0.0201  0.6744
 1543TIP3    H126044   3.270   1.131  16.945  0.1269 -0.0426  0.0936
 1543TIP3    H226045   3.157   1.221  16.898 -0.1387  0.2079  1.1734
 1544TIP3   OH226046   0.321   5.027  12.158 -0.1511  0.2866 -0.7232
 1544TIP3    H126047   0.246   4.987  12.202 -0.6058 -0.2151 -1.8866
 1544TIP3    H226048   0.368   4.953  12.119  1.0912  0.5761  0.1637
 1545TIP3   OH226049   2.317   4.127   2.919 -0.2487 -0.4630  0.1337
 1545TIP3    H126050   2.303   4.034   2.902  1.3681 -0.7780  0.3223
 1545TIP3    H226051   2.409   4.132   2.946  0.0532  1.3728 -1.1247
 1546TIP3   OH226052   0.617   5.975  16.037 -0.5399  0.0153  0.3229
 1546TIP3    H126053   0.587   5.999  15.950  0.0338 -1.1427 -0.2124
 1546TIP3    H226054   0.689   5.914  16.022  1.2688  1.7186  1.5692
 1547TIP3   OH226055   0.726   1.160   0.527  0.2007 -0.4525  0.2400
 1547TIP3    H126056   0.748   1.232   0.469 -2.1335  1.0594  1.0850
 1547TIP3    H226057   0.735   1.082   0.472 -0.0605  0.7389 -1.6038
 1548TIP3   OH226058   1.426   1.600  12.684 -0.3239  0.4463 -0.0316
 1548TIP3    H126059   1.371   1.568  12.612 -1.1912 -0.4764  1.0176
 1548TIP3    H226060   1.516   1.589  12.652 -0.6882 -0.2492 -0.8574
 1549TIP3   OH226061   4.395   1.860  11.462  0.0578  0.1767  0.0463
 1549TIP3    H126062   4.423   1.770  11.450 -0.3063  0.0939 -0.2175
 1549TIP3    H226063   4.314   1.854  11.512  1.1089  0.4817  1.8679
 1550TIP3   OH226064   2.107   6.215   0.810 -0.4590  0.4217 -0.4666
 1550TIP3    H126065   2.100   6.130   0.854  0.8828  1.6788  2.4865
 1550TIP3    H226066   2.030   6.263   0.839  0.1727  1.0908  0.1444
 1551TIP3   OH226067   4.762   6.761  15.360 -0.0715  0.3137 -0.1327
 1551TIP3    H126068   4.824   6.816  15.312  0.8741 -0.5831  0.0248
 1551TIP3    H226069   4.768   6.792  15.450 -1.4714  1.6571 -0.4574
 1552TIP3   OH226070   5.046   0.140  15.956 -0.5434 -0.0915  0.5033
 1552TIP3    H126071   5.118   0.161  15.897  0.1262 -0.5926  1.1258
 1552TIP3    H226072   4.968   0.171  15.911  0.1408  1.2578  0.1979
 1553TIP3   OH226073   5.170   2.636  13.116  0.5074 -0.1248 -0.6165
 1553TIP3    H126074   5.092   2.592  13.148 -0.4995  0.2712 -2.3756
 1553TIP3    H226075   5.187   2.705  13.180  1.5204 -2.3297  1.6463
 1554TIP3   OH226076   5.778   0.548   5.303  0.0709  0.5220  0.5115
 1554TIP3    H126077   5.836   0.498   5.246 -1.3604  0.3319 -0.8502
 1554TIP3    H226078   5.836   0.606   5.352  1.3445  0.7500 -1.1989
 1555TIP3   OH226079   3.568   2.954   1.347 -0.2764 -0.4031  0.4944
 1555TIP3    H126080   3.474   2.952   1.332 -0.3607 -1.9959  1.0651
 1555TIP3    H226081   3.578   3.012   1.423 -0.6430  0.8582 -0.3947
 1556TIP3   OH226082   5.534   2.420  11.438 -0.1494 -0.3703  0.0154
 1556TIP3    H126083   5.469   2.475  11.482  0.5073  0.0920  0.4328
 1556TIP3    H226084   5.517   2.432  11.344  0.4624  1.1883  0.0631
 1557TIP3   OH226085   3.476   4.027   4.490  0.1878  0.7019 -0.3234
 1557TIP3    H126086   3.523   4.051   4.569  0.1348  1.8215 -0.6252
 1557TIP3    H226087   3.384   4.030   4.515  0.2119 -0.2627 -0.0752
 1558TIP3   OH226088   0.181   0.706   0.833 -0.1711 -0.1833  0.1379
 1558TIP3    H126089   0.117   0.664   0.775  0.1402 -0.8589  0.2781
 1558TIP3    H226090   0.147   0.690   0.921 -2.2638  3.3513  0.1880
 1559TIP3   OH226091   2.113   6.572  12.236  0.1266 -0.5091 -0.5324
 1559TIP3    H126092   2.074   6.657  12.256  1.9493  0.5840 -1.3770
 1559TIP3    H226093   2.039   6.517  12.209 -1.1900  0.5429  0.7701
 1560TIP3   OH226094   5.152   5.387   5.108 -0.0449 -0.0558  0.0597
 1560TIP3    H126095   5.248   5.389   5.113 -0.0948  0.4164  3.4350
 1560TIP3    H226096   5.130   5.452   5.042  1.9406 -0.6028 -1.2362
 1561TIP3   OH226097   3.449   5.497   1.303 -0.5783 -0.5187  0.2142
 1561TIP3    H126098   3.514   5.476   1.370 -1.0014 -1.0832  0.4536
 1561TIP3    H226099   3.483   5.576   1.260 -0.1950 -0.2821  0.9437
 1562TIP3   OH226100   0.935   0.456   3.885  0.1839  0.2572 -0.5416
 1562TIP3    H126101   0.862   0.410   3.844  1.8165 -3.0862 -0.0897
 1562TIP3    H226102   0.895   0.503   3.959 -1.8249  0.8987 -1.9392
 1563TIP3   OH226103   0.788   5.308  11.661  0.2218 -0.4942 -0.0242
 1563TIP3    H126104   0.734   5.337  11.588  1.3279  2.4108  0.1557
 1563TIP3    H226105   0.857   5.374  11.667  1.0187 -1.4381  2.7117
 1564TIP3   OH226106   6.278   1.307   1.161  0.6018 -0.0179  0.1901
 1564TIP3    H126107   6.205   1.348   1.207 -0.7302  0.1691 -1.9442
 1564TIP3    H226108   6.349   1.370   1.169 -0.2587  0.9851  0.1721
 1565TIP3   OH226109   4.901   6.493  15.463  0.3100 -0.4400  0.0723
 1565TIP3    H126110   4.828   6.551  15.483 -1.0188 -2.3307  0.9962
 1565TIP3    H226111   4.978   6.535  15.501 -0.2636  1.5625 -0.8731
 1566TIP3   OH226112   2.696   5.398  10.801 -0.3848  0.1298 -0.1263
 1566TIP3    H126113   2.623   5.359  10.753  0.8389 -1.0847 -1.0734
 1566TIP3    H226114   2.662   5.482  10.833 -1.7744  0.1947 -1.6650
 1567TIP3   OH226115   0.078   4.532   0.821  0.3304 -0.2788  0.0371
 1567TIP3    H126116   0.171   4.556   0.824  0.0933  1.1434 -1.8032
 1567TIP3    H226117   0.078   4.439   0.799  1.3253 -0.3014  0.0782
 1568TIP3   OH226118   5.470   0.737   3.218  0.2622  0.1568 -0.2688
 1568TIP3    H126119   5.544   0.744   3.157  0.0399 -1.5302 -0.7814
 1568TIP3    H226120   5.396   0.714   3.162 -0.8678  2.4946  0.1322
 1569TIP3   OH226121   2.232   5.224  15.698 -0.1102  0.4908  0.4532
 1569TIP3    H126122   2.159   5.181  15.743  1.8226 -2.0007  1.4787
 1569TIP3    H226123   2.210   5.219  15.605 -1.5224  0.3888  0.7727
 1570TIP3   OH226124   1.193   2.910   2.686 -0.3157 -0.5493  0.0934
 1570TIP3    H126125   1.182   2.995   2.728 -0.9790 -1.2540  1.3998
 1570TIP3    H226126   1.140   2.850   2.739  0.2117 -1.7935 -0.7478
 1571TIP3   OH226127   0.848   4.950   0.648  0.4491  0.0862 -0.0893
 1571TIP3    H126128   0.866   5.040   0.623  0.2956  0.3538  0.7251
 1571TIP3    H226129   0.877   4.944   0.739  0.5546 -0.7165 -0.1692
 1572TIP3   OH226130   4.118   3.037   5.747 -0.0167  0.1719 -0.1975
 1572TIP3    H126131   4.106   3.125   5.711  0.6423 -0.2526 -1.5149
 1572TIP3    H226132   4.212   3.025   5.750 -0.0914 -0.3112  0.4775
 1573TIP3   OH226133   5.047   2.924  12.050  0.6522  0.7057  0.4683
 1573TIP3    H126134   4.994   2.917  11.970  1.5611  0.8545 -0.1697
 1573TIP3    H226135   4.986   2.955  12.117 -0.5538 -1.1401  0.2880
 1574TIP3   OH226136   5.678   5.378   2.977  0.5312  0.0319 -0.0416
 1574TIP3    H126137   5.651   5.386   3.069  0.6729 -1.5261  0.1704
 1574TIP3    H226138   5.608   5.328   2.935  0.8489  0.0375 -0.5867
 1575TIP3   OH226139   6.397   6.510   2.518  0.3183  0.7184  0.1650
 1575TIP3    H126140   6.368   6.600   2.534 -1.0652  0.5849 -1.3532
 1575TIP3    H226141   6.393   6.467   2.603 -1.4832  1.4221  0.4651
 1576TIP3   OH226142   4.714   5.083  15.293 -0.6233 -0.2870 -0.2490
 1576TIP3    H126143   4.733   5.031  15.371  0.4736  0.8796  0.2875
 1576TIP3    H226144   4.639   5.039  15.253  0.0124 -2.0435  0.3956
 1577TIP3   OH226145   3.713   2.043   1.378 -0.6201  0.0886  0.2468
 1577TIP3    H126146   3.641   2.078   1.429  0.4960  0.1510  1.8620
 1577TIP3    H226147   3.747   2.119   1.329 -1.3185  0.1631 -0.1269
 1578TIP3   OH226148   2.571   5.472  11.320 -0.0325  0.4892 -0.3855
 1578TIP3    H126149   2.554   5.541  11.383  0.0893  0.1095  0.0644
 1578TIP3    H226150   2.512   5.491  11.247 -1.2163  0.1141  0.4560
 1579TIP3   OH226151   6.173   1.632  13.087  0.3352  0.5992 -0.4856
 1579TIP3    H126152   6.217   1.641  13.002  0.3946  1.0203 -0.4142
 1579TIP3    H226153   6.091   1.587  13.067  0.9550 -0.5127 -0.5671
 1580TIP3   OH226154   0.804   5.929  14.112 -0.3314  0.2425  0.0040
 1580TIP3    H126155   0.780   5.911  14.021 -1.1933 -1.5412  0.5326
 1580TIP3    H226156   0.858   5.853  14.137  1.1257  1.4179  0.5714
 1581TIP3   OH226157   0.384   4.836  13.718  0.4691  0.3523 -0.2996
 1581TIP3    H126158   0.461   4.891  13.704 -0.1826  1.2572 -0.4041
 1581TIP3    H226159   0.372   4.791  13.634  0.0772  1.2666 -0.7501
 1582TIP3   OH226160   5.723   3.889   1.208  0.2120  0.4373  0.4566
 1582TIP3    H126161   5.775   3.818   1.244  0.8372  1.0632  0.8246
 1582TIP3    H226162   5.646   3.895   1.265  0.4735  0.4762  0.8015
 1583TIP3   OH226163   6.249   1.598   5.660  0.1515 -0.4809 -0.1201
 1583TIP3    H126164   6.165   1.573   5.697 -0.6316  0.2075 -1.3530
 1583TIP3    H226165   6.312   1.585   5.731 -1.0050 -0.8853  0.8607
 1584TIP3   OH226166   0.821   0.585  16.260  0.3804  0.5488 -0.3103
 1584TIP3    H126167   0.842   0.678  16.262 -1.4502  1.0238  2.3297
 1584TIP3    H226168   0.751   0.575  16.324  0.4164 -2.6470 -0.6078
 1585TIP3   OH226169   2.188   0.627   2.330  0.2342  0.4992  0.1949
 1585TIP3    H126170   2.158   0.536   2.336 -0.3393  0.6972  0.3472
 1585TIP3    H226171   2.283   0.621   2.342  0.2436 -0.1146 -0.1331
 1586TIP3   OH226172   6.217   2.088   5.162 -0.0962 -0.7089 -0.0862
 1586TIP3    H126173   6.187   2.161   5.216  1.1851 -0.9634  0.9980
 1586TIP3    H226174   6.204   2.118   5.072  1.0758  1.1577  0.3303
 1587TIP3   OH226175   5.409   6.074  10.700 -0.2858 -0.3870 -0.1966
 1587TIP3    H126176   5.353   6.014  10.750  0.5333 -0.4590  0.6701
 1587TIP3    H226177   5.379   6.161  10.725 -0.9094 -0.4258 -0.7926
 1588TIP3   OH226178   3.949   2.325   1.701 -0.0771  0.0713  0.0181
 1588TIP3    H126179   3.966   2.304   1.609  0.0921  1.1013 -0.1996
 1588TIP3    H226180   4.008   2.398   1.720 -0.0575 -0.1808  0.9691
 1589TIP3   OH226181   1.745   5.195  16.553  0.3370  0.1392  0.2794
 1589TIP3    H126182   1.649   5.190  16.550  0.2183  1.0909  1.6553
 1589TIP3    H226183   1.772   5.109  16.585 -0.0907  0.0265  0.3481
 1590TIP3   OH226184   3.056   5.186  13.453 -0.2895 -0.2120 -0.2226
 1590TIP3    H126185   3.112   5.241  13.509 -1.5647  1.3753 -0.4127
 1590TIP3    H226186   3.036   5.110  13.507  2.3465 -1.0538 -0.3000
 1591TIP3   OH226187   4.607   1.247   4.055 -0.5783  0.5822 -0.4931
 1591TIP3    H126188   4.607   1.194   4.134  0.9259 -0.4033 -1.0958
 1591TIP3    H226189   4.627   1.336   4.085 -2.3971  0.7198  0.4456
 1592TIP3   OH226190   4.235   5.482   4.358 -0.1350  0.4139 -0.0030
 1592TIP3    H126191   4.255   5.411   4.298 -0.5286 -0.4847  0.8993
 1592TIP3    H226192   4.153   5.456   4.400 -0.1924  1.3135  0.4698
 1593TIP3   OH226193   6.090   6.473  13.316  0.2456  0.2047  0.2923
 1593TIP3    H126194   6.062   6.433  13.398  1.5917 -1.5020 -0.0503
 1593TIP3    H226195   6.077   6.405  13.250  1.9841  0.5292 -0.4211
 1594TIP3   OH226196   3.206   4.214   4.094  0.6748 -0.0548 -0.6037
 1594TIP3    H126197   3.135   4.259   4.049 -0.8494 -0.4993  1.2392
 1594TIP3    H226198   3.214   4.258   4.178  1.1087 -1.3707  0.0825
 1595TIP3   OH226199   2.684   5.245  11.247  0.6334  0.4734 -0.5800
 1595TIP3    H126200   2.715   5.192  11.321  2.0008  0.5233 -1.0880
 1595TIP3    H226201   2.646   5.323  11.287  1.7543  0.7015  0.0728
 1596TIP3   OH226202   2.828   6.147  16.992  0.6446 -0.2216 -0.3740
 1596TIP3    H126203   2.887   6.133  17.066 -2.0246 -2.0629  1.5416
 1596TIP3    H226204   2.806   6.240  16.996  1.4657 -0.0499  0.3772
 1597TIP3   OH226205   1.494   5.621   0.567 -0.0720 -0.1314  0.1805
 1597TIP3    H126206   1.508   5.715   0.555  0.6891 -0.1814  0.6145
 1597TIP3    H226207   1.478   5.611   0.661  4.8053 -0.9380  1.2115
 1598TIP3   OH226208   3.226   0.514  11.066 -0.0906 -0.5112  0.5914
 1598TIP3    H126209   3.196   0.434  11.109 -0.2708  0.2709  1.9652
 1598TIP3    H226210   3.170   0.522  10.989  1.5808 -3.0529 -1.0695
 1599TIP3   OH226211   2.430   0.271   0.890  0.0801  0.6395 -0.0173
 1599TIP3    H126212   2.418   0.310   0.803  3.9924 -1.8527 -2.0070
 1599TIP3    H226213   2.414   0.177   0.876  0.8613  0.1705  1.9192
 1600TIP3   OH226214   6.094   2.522  14.707  0.1639  0.7277 -0.3160
 1600TIP3    H126215   6.091   2.450  14.643 -0.1016 -0.6383  1.1647
 1600TIP3    H226216   6.155   2.585  14.670 -0.4647  0.2912 -2.2140
 1601TIP3   OH226217   1.323   6.497   4.425  0.4935  0.1627 -0.1037
 1601TIP3    H126218   1.312   6.405   4.402  1.3465  0.4237 -1.7580
 1601TIP3    H226219   1.240   6.538   4.401 -0.0038 -0.2230  0.9427
 1602TIP3   OH226220   4.858   0.414   1.238  0.1235 -0.0461  0.6717
 1602TIP3    H126221   4.936   0.467   1.221 -0.6183  0.6698 -0.6432
 1602TIP3    H226222   4.826   0.446   1.322 -0.2448  1.5736 -0.0347
 1603TIP3   OH226223   4.128   1.715   0.011  0.4687  0.2934 -0.3214
 1603TIP3    H126224   4.106   1.623  -0.007  0.1417  0.4675 -0.8606
 1603TIP3    H226225   4.071   1.740   0.083  0.0024  0.2865 -0.6796
 1604TIP3   OH226226   0.987   5.366  14.816  0.2357 -0.4835  0.4636
 1604TIP3    H126227   1.061   5.349  14.759 -0.5532 -1.3180 -0.3427
 1604TIP3    H226228   0.923   5.411  14.760 -0.5358 -1.2896  0.6746
 1605TIP3   OH226229   3.251   3.166  12.154  0.0172 -0.3857 -0.3081
 1605TIP3    H126230   3.244   3.261  12.152  1.9707 -0.0645  2.1241
 1605TIP3    H226231   3.331   3.147  12.105 -0.8715 -0.9180 -1.6070
 1606TIP3   OH226232   5.498   2.633  13.912 -0.7492  0.3316  0.0563
 1606TIP3    H126233   5.429   2.676  13.963 -0.4718  0.0478  0.6831
 1606TIP3    H226234   5.471   2.542  13.908 -0.0178  0.0559  1.0013
 1607TIP3   OH226235   6.040   4.005   6.509 -0.1515  0.1572 -0.3067
 1607TIP3    H126236   6.025   4.011   6.603  2.1410 -1.2226  0.2133
 1607TIP3    H226237   5.952   4.008   6.471 -1.0513  3.4151  1.6115
 1608TIP3   OH226238   0.740   5.399  13.063 -0.5335  0.2381 -0.5636
 1608TIP3    H126239   0.697   5.462  13.121  0.1643 -1.0921  1.5003
 1608TIP3    H226240   0.683   5.322  13.065  0.3222 -0.3997 -0.3372
 1609TIP3   OH226241   4.592   5.474  14.342 -0.3324  0.2833  0.0574
 1609TIP3    H126242   4.616   5.382  14.329  1.0861  0.8487 -1.7263
 1609TIP3    H226243   4.631   5.497  14.426 -0.8308 -0.7569  0.5976
 1610TIP3   OH226244   6.514   5.721  11.837 -0.2445  0.5200  0.9738
 1610TIP3    H126245   6.557   5.784  11.779 -0.2633 -0.5505 -0.2657
 1610TIP3    H226246   6.549   5.636  11.809  0.0102 -0.0267  2.7893
 1611TIP3   OH226247   1.245   2.824   4.506 -0.7362 -0.1504  0.2005
 1611TIP3    H126248   1.281   2.912   4.495  2.8681 -1.2900  1.3570
 1611TIP3    H226249   1.184   2.832   4.580 -1.4362  1.5485 -0.5176
 1612TIP3   OH226250   1.755   2.992   0.210 -0.4263  0.2806  0.0521
 1612TIP3    H126251   1.739   3.074   0.164 -1.2898 -0.1752 -0.4754
 1612TIP3    H226252   1.834   2.956   0.168  0.9715  1.6172  1.3991
 1613TIP3   OH226253   4.137   4.441   0.606  1.0490  0.3192  0.3997
 1613TIP3    H126254   4.219   4.393   0.617  0.3626 -0.3047  3.7083
 1613TIP3    H226255   4.105   4.457   0.695 -2.5037  0.3840 -0.6988
 1614TIP3   OH226256   1.643   3.446   0.003 -0.2523  0.0460 -0.1303
 1614TIP3    H126257   1.603   3.367   0.039  0.9073 -0.4045  0.2296
 1614TIP3    H226258   1.569   3.504  -0.016 -1.1723 -1.2894 -0.8477
 1615TIP3   OH226259   5.528   2.446   3.826  0.0851 -0.2017  0.1562
 1615TIP3    H126260   5.461   2.400   3.776  1.5011 -1.7591 -0.4083
 1615TIP3    H226261   5.491   2.533   3.842 -2.4793 -1.3228  0.7748
 1616TIP3   OH226262   0.766   6.758   2.332 -0.7129  0.3063  0.1045
 1616TIP3    H126263   0.842   6.776   2.388  0.9804 -0.6471 -1.7430
 1616TIP3    H226264   0.711   6.835   2.342  0.1779  0.7760  1.9766
 1617TIP3   OH226265   4.570   3.359   3.107  0.2570 -0.8286 -0.1627
 1617TIP3    H126266   4.629   3.418   3.062  0.1603 -0.5735  0.0392
 1617TIP3    H226267   4.579   3.276   3.061  0.4524 -0.6782 -0.3990
 1618TIP3   OH226268   2.600   2.269   3.008 -0.0962  0.0534  0.3305
 1618TIP3    H126269   2.607   2.245   2.916  0.8602  2.1235 -0.1905
 1618TIP3    H226270   2.525   2.328   3.011  0.3598  0.6181  0.7288
 1619TIP3   OH226271   4.610   6.434   2.584 -0.0771  0.3702  0.0701
 1619TIP3    H126272   4.595   6.456   2.492  0.4742  1.5093  0.2439
 1619TIP3    H226273   4.547   6.486   2.633  0.0582  0.2459  0.3837
 1620TIP3   OH226274   2.307   0.476   3.460 -0.2697 -0.1364 -0.2072
 1620TIP3    H126275   2.348   0.392   3.480 -2.8605 -1.2401  0.8591
 1620TIP3    H226276   2.214   0.462   3.476 -1.3815  1.7669 -3.8272
 1621TIP3   OH226277   6.663   6.347  16.859  0.2955 -0.3240 -0.1170
 1621TIP3    H126278   6.644   6.294  16.781  0.9845 -0.9964  0.1523
 1621TIP3    H226279   6.750   6.383  16.841  0.3887 -0.3557  0.2741
 1622TIP3   OH226280   6.060   3.906   2.292 -0.5432  0.6248 -0.1119
 1622TIP3    H126281   6.076   3.871   2.205 -2.8092  2.1683 -1.2619
 1622TIP3    H226282   6.141   3.951   2.316  0.0253  0.4266 -1.5574
 1623TIP3   OH226283   5.432   1.635   0.909 -0.0899 -0.3443  0.7690
 1623TIP3    H126284   5.448   1.727   0.888  0.4700 -0.6395 -0.1797
 1623TIP3    H226285   5.438   1.590   0.824 -2.4798 -0.9941  0.8791
 1624TIP3   OH226286   4.556   5.023  13.114  0.3279 -0.2907  0.4151
 1624TIP3    H126287   4.502   4.946  13.128 -1.0718  0.8397  1.4617
 1624TIP3    H226288   4.558   5.033  13.019  0.8243 -1.7790  0.2341
 1625TIP3   OH226289   0.392   0.594  15.170 -0.1494  0.0507  0.2736
 1625TIP3    H126290   0.369   0.675  15.125 -3.1011 -0.8832 -0.1281
 1625TIP3    H226291   0.364   0.609  15.261  0.2320 -0.1818  0.4319
 1626TIP3   OH226292   4.835   4.211  12.770  0.7311  0.0899 -0.4210
 1626TIP3    H126293   4.805   4.163  12.693 -0.0411 -1.5830  0.8497
 1626TIP3    H226294   4.786   4.293  12.768  1.1536  0.3387 -1.9924
 1627TIP3   OH226295   2.595   4.083  10.972 -0.0866 -0.0114 -0.0082
 1627TIP3    H126296   2.605   4.055  10.881 -1.1937  1.1289 -0.5100
 1627TIP3    H226297   2.554   4.009  11.016 -1.0803  0.0291 -0.8344
 1628TIP3   OH226298   0.316   4.689   3.643  0.2837 -0.1206  0.2262
 1628TIP3    H126299   0.336   4.764   3.698 -0.9981  0.4149 -0.0074
 1628TIP3    H226300   0.326   4.613   3.701 -1.3238  0.4456  1.3213
 1629TIP3   OH226301   1.851   2.824   2.011  0.0152  0.7313  0.5437
 1629TIP3    H126302   1.942   2.849   1.995 -0.4369  0.9731 -1.9754
 1629TIP3    H226303   1.813   2.901   2.054  0.6717  1.1703  0.3618
 1630TIP3   OH226304   6.543   0.429  14.037 -0.2919 -0.1893 -0.3309
 1630TIP3    H126305   6.575   0.402  13.950 -0.9096 -1.0781 -0.3014
 1630TIP3    H226306   6.519   0.346  14.079  1.4281  0.0614  1.2790
 1631TIP3   OH226307   2.449   3.916  14.848  0.2087 -0.7946  0.4591
 1631TIP3    H126308   2.404   3.880  14.924 -0.5060 -0.7200  0.0731
 1631TIP3    H226309   2.507   3.983  14.884 -1.2034  0.2708  0.7968
 1632TIP3   OH226310   1.260   1.057   2.916 -0.5720  0.1156 -0.4992
 1632TIP3    H126311   1.177   1.105   2.913 -0.1308  0.9739  0.4905
 1632TIP3    H226312   1.299   1.072   2.830 -0.7583  0.9409 -0.4414
 1633TIP3   OH226313   2.647   4.059  13.115  0.0495  0.8667  0.3078
 1633TIP3    H126314   2.705   3.984  13.130 -0.4718  0.5052  0.5284
 1633TIP3    H226315   2.647   4.106  13.198  0.2156  1.0006  0.2328
 1634TIP3   OH226316   2.723   2.528  16.858 -0.0062  0.2786  0.3751
 1634TIP3    H126317   2.684   2.445  16.883  0.2439 -0.2446 -0.8844
 1634TIP3    H226318   2.687   2.591  16.920 -1.5052 -0.4709  0.3169
 1635TIP3   OH226319   0.979   0.545   2.319  0.6727  0.0176 -0.0038
 1635TIP3    H126320   0.975   0.490   2.240 -0.9553 -1.0127  0.7390
 1635TIP3    H226321   0.966   0.484   2.391  2.2031  0.9355  1.0975
 1636TIP3   OH226322   4.651   4.328   4.226 -0.4360 -0.2390 -0.1323
 1636TIP3    H126323   4.562   4.304   4.250 -0.4874 -0.5743 -0.6525
 1636TIP3    H226324   4.692   4.246   4.199  0.1495 -0.1561  0.4646
 1637TIP3   OH226325   4.309   5.620  17.150 -0.4175 -0.0920  0.0310
 1637TIP3    H126326   4.216   5.616  17.175 -0.2325  0.0785  0.7891
 1637TIP3    H226327   4.327   5.714  17.144  0.2791 -0.0325  2.2191
 1638TIP3   OH226328   3.420   6.747  17.063 -0.2846  0.2830 -0.8382
 1638TIP3    H126329   3.338   6.777  17.103  0.9105  3.1032 -0.2952
 1638TIP3    H226330   3.451   6.822  17.013  2.8130 -0.0512  0.3584
 1639TIP3   OH226331   4.373   2.828   5.978  0.8756  0.4447 -0.4401
 1639TIP3    H126332   4.343   2.765   6.044 -0.6394  0.8454 -0.7071
 1639TIP3    H226333   4.456   2.860   6.012 -1.0972  2.7680  2.8505
 1640TIP3   OH226334   3.078   5.949  15.815  0.1004  0.0135  0.0683
 1640TIP3    H126335   3.172   5.950  15.798  0.1744 -1.4251  0.2804
 1640TIP3    H226336   3.039   5.973  15.731  0.6439  0.6488 -0.0125
 1641TIP3   OH226337   5.258   2.003  12.077 -0.1969  0.0361 -0.1935
 1641TIP3    H126338   5.340   2.006  12.127 -1.2019 -1.4576  1.6935
 1641TIP3    H226339   5.279   2.047  11.995  2.2478  0.4717  0.5613
 1642TIP3   OH226340   0.132   1.276  14.635 -0.6781 -0.3487  0.0230
 1642TIP3    H126341   0.091   1.243  14.556 -1.3550 -0.4516  0.4158
 1642TIP3    H226342   0.064   1.328  14.678  0.8369  3.4277 -1.6077
 1643TIP3   OH226343   5.636   1.399  12.303 -0.2422  0.0448 -0.4460
 1643TIP3    H126344   5.560   1.345  12.287 -1.3512  1.9192 -1.9753
 1643TIP3    H226345   5.677   1.410  12.217 -1.2113  3.1093 -0.6702
 1644TIP3   OH226346   4.787   0.439   4.037 -0.2719  0.3158  0.0375
 1644TIP3    H126347   4.789   0.348   4.065 -0.9186  0.4884  0.6718
 1644TIP3    H226348   4.870   0.451   3.991 -1.0374 -1.1371 -1.8447
 1645TIP3   OH226349   5.950   6.644   4.850  0.0993 -0.0617  0.2658
 1645TIP3    H126350   5.979   6.553   4.851 -0.5855 -0.2900  0.3784
 1645TIP3    H226351   5.991   6.682   4.773 -1.4861 -1.1126 -1.1599
 1646TIP3   OH226352   0.712   3.187   1.401  0.2818  0.3360 -0.3627
 1646TIP3    H126353   0.684   3.247   1.470  0.8734  0.1525  0.0516
 1646TIP3    H226354   0.761   3.119   1.448 -0.2638 -0.4032 -0.8330
 1647TIP3   OH226355   2.800   5.466  11.667  0.3185  0.2256  0.2116
 1647TIP3    H126356   2.847   5.493  11.589  1.7818 -0.8504  0.6845
 1647TIP3    H226357   2.781   5.374  11.653  0.3115  0.1008  0.9855
 1648TIP3   OH226358   6.523   6.511   0.350 -0.0172  0.7081 -0.0478
 1648TIP3    H126359   6.498   6.591   0.304 -2.0870  0.3678  0.4040
 1648TIP3    H226360   6.590   6.540   0.412 -0.6997  2.1138  0.0960
 1649TIP3   OH226361   0.113   4.548  17.043 -0.0515 -0.5447 -0.7417
 1649TIP3    H126362   0.091   4.599  16.965 -0.9575 -0.8865 -0.7252
 1649TIP3    H226363   0.108   4.457  17.014 -1.1657 -0.7044 -0.1189
 1650TIP3   OH226364   2.214   0.172  10.856 -0.5972  0.2147 -0.2792
 1650TIP3    H126365   2.134   0.125  10.834 -0.9853  1.4559 -1.7057
 1650TIP3    H226366   2.191   0.221  10.936 -0.8414 -0.4027  0.0349
 1651TIP3   OH226367   0.903   5.066  15.549  0.4228  0.6696  0.3924
 1651TIP3    H126368   0.993   5.066  15.582  0.5965  0.8341 -0.0706
 1651TIP3    H226369   0.903   5.133  15.481 -0.3776  1.5449  1.2464
 1652TIP3   OH226370   1.941   6.055   5.311  0.1311  0.1977 -0.1754
 1652TIP3    H126371   2.012   6.111   5.279 -0.6785  1.1811 -0.3051
 1652TIP3    H226372   1.949   6.059   5.407  1.1455 -0.8945 -0.1979
 1653TIP3   OH226373   0.576   2.537  14.665 -0.7118 -0.1034  0.1004
 1653TIP3    H126374   0.616   2.551  14.579 -0.3074 -3.2544 -0.3134
 1653TIP3    H226375   0.628   2.592  14.725  0.6502  0.1618 -1.2700
 1654TIP3   OH226376   0.399   3.345  10.975 -0.1791  0.1663 -0.0595
 1654TIP3    H126377   0.351   3.349  11.058  0.9035 -1.8610  0.7378
 1654TIP3    H226378   0.425   3.436  10.958  0.6804  0.4887  2.5261
 1655TIP3   OH226379   2.470   0.268  12.340  0.2905  0.3417  0.0385
 1655TIP3    H126380   2.489   0.189  12.390 -1.4140  0.2310  0.5554
 1655TIP3    H226381   2.532   0.333  12.374  1.3289 -0.5943 -0.0008
 1656TIP3   OH226382   6.489   3.383   2.668 -0.4347  0.6536 -0.3829
 1656TIP3    H126383   6.470   3.358   2.578  0.3666 -0.8173 -0.1703
 1656TIP3    H226384   6.577   3.350   2.685 -0.9382  0.0202  1.2440
 1657TIP3   OH226385   4.713   0.652  13.991  0.1360  0.6472 -0.1475
 1657TIP3    H126386   4.734   0.646  13.898  0.5805  0.1888 -0.0178
 1657TIP3    H226387   4.618   0.668  13.993 -0.2558 -1.3737 -0.6349
 1658TIP3   OH226388   2.604   6.212  15.985 -0.5045 -0.1740 -0.2593
 1658TIP3    H126389   2.604   6.266  16.064  0.4930  1.4180 -1.3037
 1658TIP3    H226390   2.696   6.189  15.971 -0.7533 -0.9974 -0.5916
 1659TIP3   OH226391   4.178   6.002  16.876 -0.1925  0.0650 -0.2226
 1659TIP3    H126392   4.104   6.062  16.874 -2.5441 -2.6105 -0.6485
 1659TIP3    H226393   4.163   5.949  16.955  1.8903  0.1214  0.2667
 1660TIP3   OH226394   0.559   6.408  16.958  0.2007  0.3579  0.0238
 1660TIP3    H126395   0.493   6.442  16.899 -0.2218  0.0981  0.3391
 1660TIP3    H226396   0.554   6.313  16.948 -0.3104  0.2807  0.9315
 1661TIP3   OH226397   2.422   4.395  13.992 -0.3962 -0.4530  0.2612
 1661TIP3    H126398   2.331   4.423  13.997 -0.1711  0.7241 -1.3573
 1661TIP3    H226399   2.468   4.457  14.049 -0.2344  1.0641 -1.4090
 1662TIP3   OH226400   0.507   4.053  14.175 -0.2489  0.2937  0.0244
 1662TIP3    H126401   0.476   3.993  14.106  0.8371 -2.4301  1.7345
 1662TIP3    H226402   0.558   4.119  14.128  0.1306 -1.2419 -1.8357
 1663TIP3   OH226403   0.546   3.519  14.388  0.4343  1.1690  0.6121
 1663TIP3    H126404   0.529   3.460  14.314 -1.0970 -0.8397  2.4152
 1663TIP3    H226405   0.616   3.475  14.437 -0.4528  0.9978  1.7700
 1664TIP3   OH226406   3.057   2.200  15.704  0.2090  1.0221  0.6858
 1664TIP3    H126407   3.046   2.268  15.637  1.5643  0.6222  0.0129
 1664TIP3    H226408   3.029   2.242  15.785 -3.7787  0.7862 -0.3745
 1665TIP3   OH226409   5.457   5.773  16.830 -0.3175 -0.2632  0.0620
 1665TIP3    H126410   5.393   5.725  16.883  0.6032 -0.2545  1.2286
 1665TIP3    H226411   5.502   5.829  16.893 -0.8341  1.5980 -1.1240
 1666TIP3   OH226412   2.071   3.161  16.671 -0.0906  0.1569  0.0802
 1666TIP3    H126413   2.069   3.175  16.577 -0.5051 -1.3844 -0.1603
 1666TIP3    H226414   1.980   3.173  16.699  0.3610  2.8365  0.6805
 1667TIP3   OH226415   2.100   0.214   0.445 -0.4639  0.4077 -0.7280
 1667TIP3    H126416   2.066   0.125   0.448 -0.0944  0.2573 -0.8599
 1667TIP3    H226417   2.190   0.204   0.414  1.1080  0.3753  3.3222
 1668TIP3   OH226418   3.097   6.161  12.171 -0.2131 -0.4089  0.4483
 1668TIP3    H126419   3.021   6.176  12.227  0.7046  0.9412  1.4041
 1668TIP3    H226420   3.061   6.140  12.085 -1.6499 -1.0582  1.1838
 1669TIP3   OH226421   4.669   6.346  16.259 -0.0953  0.4757 -0.2965
 1669TIP3    H126422   4.674   6.336  16.164 -2.6597  0.9748 -0.5495
 1669TIP3    H226423   4.654   6.257  16.291 -0.8787  0.5181 -0.5274
 1670TIP3   OH226424   4.912   5.377   3.781 -0.4819  0.0390 -0.2236
 1670TIP3    H126425   4.853   5.359   3.708 -0.0970  0.2441 -0.5871
 1670TIP3    H226426   4.902   5.301   3.839 -0.7750 -0.1311 -0.4949
 1671TIP3   OH226427   3.769   5.948  14.317 -0.4345 -0.4720 -0.1532
 1671TIP3    H126428   3.776   5.960  14.222  1.7931 -0.6145 -0.0640
 1671TIP3    H226429   3.783   6.035  14.354  1.2300 -0.7923  0.0690
 1672TIP3   OH226430   4.908   2.218   5.466 -0.1793  0.1371 -0.2182
 1672TIP3    H126431   4.979   2.154   5.474  0.8608  1.4021  1.3772
 1672TIP3    H226432   4.939   2.279   5.399 -0.5897 -0.3140 -0.8214
 1673TIP3   OH226433   1.166   1.339  14.021 -0.2349 -0.0163 -0.5709
 1673TIP3    H126434   1.221   1.325  13.945  1.9688  3.7592  0.0689
 1673TIP3    H226435   1.213   1.297  14.094 -1.5844 -2.3037 -0.9129
 1674TIP3   OH226436   3.038   3.260   1.492 -0.1835  0.7345 -0.3227
 1674TIP3    H126437   3.030   3.206   1.571 -0.5146  1.4150  0.1119
 1674TIP3    H226438   3.052   3.196   1.421  1.1878  0.1770  0.4202
 1675TIP3   OH226439   3.024   6.329  13.754 -0.2158  0.7075 -0.3441
 1675TIP3    H126440   3.013   6.235  13.766  0.0309  0.6502 -0.5486
 1675TIP3    H226441   3.010   6.342  13.660 -0.5449  0.9184 -0.2692
 1676TIP3   OH226442   0.662   5.202  16.385  0.7241  0.1836 -0.1014
 1676TIP3    H126443   0.736   5.263  16.387  0.0594  1.0164 -0.2941
 1676TIP3    H226444   0.602   5.241  16.321  0.4356 -0.8581 -0.4800
 1677TIP3   OH226445   5.790   6.247  13.760  0.1619 -0.0468  0.1676
 1677TIP3    H126446   5.810   6.195  13.838 -1.5296 -0.9296  0.0527
 1677TIP3    H226447   5.749   6.185  13.700  0.4508  0.8700 -0.9967
 1678TIP3   OH226448   0.368   3.502  12.966  0.2186  0.4639  0.1105
 1678TIP3    H126449   0.375   3.505  13.062 -0.1448  1.3639  0.1206
 1678TIP3    H226450   0.356   3.409  12.945  0.5996  0.2256  0.9143
 1679TIP3   OH226451   6.082   3.038  11.498  0.1830  0.1789 -0.3546
 1679TIP3    H126452   6.154   3.099  11.479  0.1285  0.8363  1.3858
 1679TIP3    H226453   6.122   2.951  11.492  2.0987  0.5357  3.5972
 1680TIP3   OH226454   0.463   2.651   1.752  0.0447 -0.4650 -0.0158
 1680TIP3    H126455   0.374   2.620   1.768 -0.1191 -0.2132 -0.4024
 1680TIP3    H226456   0.491   2.691   1.834  0.3368 -1.7987  0.5589
 1681TIP3   OH226457   6.172   2.338   5.236 -0.1924  0.0225  1.0279
 1681TIP3    H126458   6.241   2.364   5.297 -0.5080  0.2664  1.2937
 1681TIP3    H226459   6.216   2.327   5.152  0.2056 -0.0496  1.2438
 1682TIP3   OH226460   5.718   2.306  13.305  0.0223  0.0617 -0.0402
 1682TIP3    H126461   5.688   2.228  13.259  0.0733  0.4975 -0.8256
 1682TIP3    H226462   5.677   2.300  13.391  0.0673 -0.8559 -0.0749
 1683TIP3   OH226463   6.018   3.899   4.576  0.2238 -1.0915 -0.3529
 1683TIP3    H126464   6.012   3.886   4.670 -0.2252  2.7206  0.2924
 1683TIP3    H226465   5.939   3.948   4.553  1.4789  0.1897 -2.2282
 1684TIP3   OH226466   3.291   1.179   5.063  0.5629 -0.7258  0.1803
 1684TIP3    H126467   3.287   1.224   5.148 -0.4689  1.2238 -0.8196
 1684TIP3    H226468   3.202   1.148   5.048  0.3635  0.2463 -0.8039
 1685TIP3   OH226469   6.724   5.403  16.776  0.0492 -0.1950 -0.0245
 1685TIP3    H126470   6.744   5.318  16.738 -0.0732 -0.3481  0.2543
 1685TIP3    H226471   6.628   5.407  16.778  0.0540 -0.0187 -0.1105
 1686TIP3   OH226472   1.481   1.591  11.999 -0.3284  0.6079  0.5603
 1686TIP3    H126473   1.417   1.628  12.060  0.0043 -0.0717  1.3431
 1686TIP3    H226474   1.566   1.612  12.037 -0.1053  0.6743  0.0289
 1687TIP3   OH226475   5.663   1.644  14.555 -0.0273 -0.0521  0.3058
 1687TIP3    H126476   5.665   1.683  14.468  1.9774 -0.5912  0.0681
 1687TIP3    H226477   5.750   1.660  14.591  0.2948 -2.6667  0.9055
 1688TIP3   OH226478   3.067   0.314   5.264 -0.1749  0.0480 -0.6019
 1688TIP3    H126479   3.056   0.395   5.215 -1.9172  1.3746  1.7278
 1688TIP3    H226480   3.126   0.337   5.335  0.5715 -1.1910 -0.7958
 1689TIP3   OH226481   2.355   5.949  16.847 -0.8726  0.0713 -0.3740
 1689TIP3    H126482   2.448   5.958  16.869 -0.7778  1.5721 -1.2513
 1689TIP3    H226483   2.314   5.921  16.929  0.3045 -0.4160  0.0792
 1690TIP3   OH226484   4.499   6.679   0.227  0.5070 -0.6049  0.2092
 1690TIP3    H126485   4.538   6.605   0.181 -0.4056  0.9229 -3.3608
 1690TIP3    H226486   4.421   6.642   0.270 -0.2120 -1.7107 -1.9119
 1691TIP3   OH226487   3.385   1.867  13.591  0.3453  0.4138 -0.7649
 1691TIP3    H126488   3.292   1.853  13.574  0.1794  0.9788 -0.3605
 1691TIP3    H226489   3.427   1.784  13.567 -0.4866 -0.5158  0.8136
 1692TIP3   OH226490   3.824   3.418   2.904  0.5933 -0.5306  0.0186
 1692TIP3    H126491   3.805   3.488   2.967  0.0756 -1.0668  0.4644
 1692TIP3    H226492   3.910   3.441   2.868 -0.4413  1.4774 -1.3858
 1693TIP3   OH226493   4.527   4.255  12.155  0.3455  0.1205 -0.1109
 1693TIP3    H126494   4.590   4.301  12.211 -0.6639 -0.5051  1.6477
 1693TIP3    H226495   4.572   4.245  12.071  1.4763  2.1715  0.1939
 1694TIP3   OH226496   6.043   1.975  15.637  0.2569  0.1777 -0.0874
 1694TIP3    H126497   6.008   2.027  15.565 -3.0729 -1.2774  0.2656
 1694TIP3    H226498   6.040   2.034  15.713  1.3239  0.9191 -0.5987
 1695TIP3   OH226499   4.392   2.970   5.224 -0.1036 -0.2288 -0.3759
 1695TIP3    H126500   4.327   2.900   5.238  0.4561 -0.9607 -1.3265
 1695TIP3    H226501   4.413   2.965   5.131  0.5262  0.7151 -0.2981
 1696TIP3   OH226502   6.345   5.760  12.888 -0.3466 -0.0953  0.3014
 1696TIP3    H126503   6.388   5.813  12.821 -0.3696  0.2683  0.5703
 1696TIP3    H226504   6.265   5.807  12.909 -0.8206 -0.7093 -0.1067
 1697TIP3   OH226505   6.615   4.448   5.699  0.0201  0.0749 -1.1626
 1697TIP3    H126506   6.578   4.531   5.729 -2.3488 -1.1456 -0.3883
 1697TIP3    H226507   6.616   4.456   5.603 -0.1993  0.9994 -1.0950
 1698TIP3   OH226508   3.545   3.060  13.434 -0.0017  0.1120  0.4366
 1698TIP3    H126509   3.608   3.108  13.487  0.5243 -1.5316  1.3678
 1698TIP3    H226510   3.465   3.112  13.439 -0.0578 -0.1178  3.1286
 1699TIP3   OH226511   1.695   5.597  15.923  0.2386  0.7791 -0.0121
 1699TIP3    H126512   1.629   5.580  15.856  2.7851 -2.6919 -1.9821
 1699TIP3    H226513   1.662   5.551  16.001  0.2132 -0.8115 -0.9242
 1700TIP3   OH226514   0.046   4.232  12.060 -0.0056  0.5349 -0.2114
 1700TIP3    H126515  -0.035   4.257  12.105 -0.9586  0.6395 -1.8976
 1700TIP3    H226516   0.102   4.197  12.129 -1.2790  0.9595  1.0881
 1701TIP3   OH226517   5.668   6.783  14.617 -0.0016  0.2141  0.4614
 1701TIP3    H126518   5.646   6.872  14.646  1.8499  0.5411  0.9763
 1701TIP3    H226519   5.683   6.792  14.523  0.3754  0.4944  0.5446
 1702TIP3   OH226520   0.418   4.543  16.166 -0.5066  0.0271  0.6188
 1702TIP3    H126521   0.476   4.469  16.181 -0.1152  0.0090 -0.8438
 1702TIP3    H226522   0.360   4.514  16.096 -1.4470  0.5156  1.1678
 1703TIP3   OH226523   1.640   2.615   4.941 -0.0626  0.4418 -0.3262
 1703TIP3    H126524   1.611   2.552   5.007  1.1866 -0.7188 -0.8262
 1703TIP3    H226525   1.590   2.694   4.960 -0.1457 -0.0161  1.6755
 1704TIP3   OH226526   1.828   1.309  12.953 -0.0343 -0.2295 -0.0073
 1704TIP3    H126527   1.847   1.310  13.047 -1.5979 -0.9823  0.3499
 1704TIP3    H226528   1.746   1.356  12.945  1.4483  2.3478 -1.4053
 1705TIP3   OH226529   6.148   0.486   4.395  0.1178 -0.6949  0.5493
 1705TIP3    H126530   6.173   0.436   4.472 -0.7087 -0.8584  0.7154
 1705TIP3    H226531   6.199   0.566   4.401  0.0926 -0.7242  1.2408
 1706TIP3   OH226532   0.845   5.515   0.522  0.0994 -0.4058  0.3739
 1706TIP3    H126533   0.940   5.526   0.512  0.2646 -2.0056 -0.1967
 1706TIP3    H226534   0.820   5.581   0.586  1.3713  0.9391 -0.4409
 1707TIP3   OH226535   4.802   6.507   0.565 -0.1585  0.5044 -0.8179
 1707TIP3    H126536   4.898   6.518   0.564  0.1360 -1.6305 -0.8582
 1707TIP3    H226537   4.784   6.453   0.488 -1.2525 -0.0550 -0.1878
 1708TIP3   OH226538   0.574   1.789   0.923  0.0537  0.2575  0.6100
 1708TIP3    H126539   0.546   1.711   0.971  1.4104 -0.4708  0.2566
 1708TIP3    H226540   0.622   1.755   0.848 -1.1088  1.3987 -0.7214
 1709TIP3   OH226541   2.861   6.199  10.591  0.5841  0.1058  0.1391
 1709TIP3    H126542   2.814   6.251  10.525 -0.8967 -1.2703  0.0443
 1709TIP3    H226543   2.889   6.120  10.544  1.1584 -0.0509  0.7264
 1710TIP3   OH226544   1.991   4.698   5.399 -0.2542  0.2624  0.2800
 1710TIP3    H126545   2.073   4.735   5.430 -1.0160  1.1551  1.3447
 1710TIP3    H226546   2.013   4.651   5.319  1.1975  0.8884  0.2957
 1711TIP3   OH226547   4.581   4.523  16.272  0.0024  0.3261  0.0437
 1711TIP3    H126548   4.543   4.601  16.230 -0.9394 -0.7529 -1.2094
 1711TIP3    H226549   4.663   4.508  16.226 -0.5320 -0.2547 -0.7493
 1712TIP3   OH226550   2.624   4.490  16.224 -0.4324 -0.3754 -0.0828
 1712TIP3    H126551   2.701   4.504  16.169 -0.1464  0.1539  0.4255
 1712TIP3    H226552   2.660   4.486  16.313 -0.8553 -1.4619  0.0474
 1713TIP3   OH226553   5.787   3.696   0.324  0.1503 -0.1605  0.0394
 1713TIP3    H126554   5.778   3.609   0.287 -0.6369 -0.6750  1.3728
 1713TIP3    H226555   5.840   3.684   0.403 -2.5248 -0.0385  2.0012
 1714TIP3   OH226556   4.560   3.222  15.879  0.1391 -0.3412 -0.1885
 1714TIP3    H126557   4.497   3.288  15.851 -0.2402 -0.3851  0.5209
 1714TIP3    H226558   4.556   3.225  15.975 -0.5901 -2.0278 -0.1255
 1715TIP3   OH226559   1.562   1.165   6.206  0.5001 -0.2096 -0.1971
 1715TIP3    H126560   1.624   1.224   6.250 -0.0352 -0.1429  0.4850
 1715TIP3    H226561   1.508   1.130   6.277 -1.5410  1.2457 -0.9153
 1716TIP3   OH226562   2.408   2.580  11.667 -0.3349  0.2244 -0.1592
 1716TIP3    H126563   2.358   2.499  11.677 -1.6315  0.8666 -1.1657
 1716TIP3    H226564   2.499   2.554  11.681 -0.8294 -1.1691  0.7067
 1717TIP3   OH226565   2.325   6.033   3.074 -0.1221  0.0165 -0.1195
 1717TIP3    H126566   2.371   6.109   3.039  0.9963  0.2718  1.7693
 1717TIP3    H226567   2.234   6.061   3.080 -0.0318  0.5745 -1.0753
 1718TIP3   OH226568   3.005   0.081   2.285  0.3696  0.6163  0.4638
 1718TIP3    H126569   3.064   0.126   2.224  3.1657 -1.9875  0.9872
 1718TIP3    H226570   2.993  -0.006   2.246 -2.3143  0.6649  0.9822
 1719TIP3   OH226571   1.667   1.933   1.506 -0.5211 -0.6526  0.3307
 1719TIP3    H126572   1.741   1.873   1.500 -1.1592 -1.5183  0.9651
 1719TIP3    H226573   1.706   2.017   1.530  0.2151 -1.2006  1.0902
 1720TIP3   OH226574   6.213   5.717   2.675 -0.3531 -0.6728 -0.4456
 1720TIP3    H126575   6.127   5.735   2.712 -0.2502 -1.7768  0.3901
 1720TIP3    H226576   6.195   5.690   2.585 -0.6862  1.0550 -0.9464
 1721TIP3   OH226577   2.696   3.060  12.029  0.6508 -0.1078  1.0625
 1721TIP3    H126578   2.657   2.989  11.978  0.4132 -0.1353  1.2851
 1721TIP3    H226579   2.633   3.132  12.024  1.2203  0.3622  0.2095
 1722TIP3   OH226580   3.200   2.425  10.700 -0.2688  0.3072  0.0781
 1722TIP3    H126581   3.150   2.463  10.628  0.6487  1.3483 -0.0303
 1722TIP3    H226582   3.135   2.410  10.769 -0.8184  1.1820 -0.2409
 1723TIP3   OH226583   6.461   1.527   5.876 -0.3781 -0.0493  0.0321
 1723TIP3    H126584   6.524   1.483   5.820 -1.7710  1.2709 -2.7535
 1723TIP3    H226585   6.494   1.617   5.883 -0.9015  0.1324  0.2455
 1724TIP3   OH226586   1.611   6.787  16.168  0.2416 -0.0630  0.1626
 1724TIP3    H126587   1.609   6.742  16.084  0.9758  0.3081 -0.0592
 1724TIP3    H226588   1.637   6.876  16.147 -1.5996  0.6027  0.5554
 1725TIP3   OH226589   3.029   2.021  13.042  0.3761  0.0712  0.6908
 1725TIP3    H126590   3.030   2.033  12.947 -0.3359 -1.5189  0.4517
 1725TIP3    H226591   3.122   2.010  13.065  0.8463  3.1195  0.6113
 1726TIP3   OH226592   4.498   6.786  14.121 -0.3605 -0.2668  0.3255
 1726TIP3    H126593   4.537   6.809  14.205 -0.3155 -0.8806  0.4741
 1726TIP3    H226594   4.547   6.710  14.092 -0.6091 -0.2668 -0.0930
 1727TIP3   OH226595   1.517   3.484  16.854  0.3930  0.1675 -0.1046
 1727TIP3    H126596   1.427   3.513  16.870  0.7638  0.1613  2.5481
 1727TIP3    H226597   1.508   3.410  16.794 -1.2130  1.0252 -1.0016
 1728TIP3   OH226598   5.061   5.275   3.123  0.0013  0.7968 -0.0709
 1728TIP3    H126599   5.140   5.223   3.111 -1.5950 -1.6544 -0.7431
 1728TIP3    H226600   5.052   5.285   3.218  0.4241 -0.0472  0.0593
 1729TIP3   OH226601   4.590   1.074   1.192 -0.5320  0.2004  0.2008
 1729TIP3    H126602   4.497   1.064   1.172 -0.8196  0.6448  1.2337
 1729TIP3    H226603   4.627   1.117   1.115 -1.4301  1.1530  0.2826
 1730TIP3   OH226604   2.838   3.594   1.651 -0.2565  0.1555  0.1562
 1730TIP3    H126605   2.802   3.515   1.612 -0.7001  0.7830 -0.7340
 1730TIP3    H226606   2.861   3.649   1.576  0.1102  0.8354  0.7634
 1731TIP3   OH226607   4.341   5.247  14.151  0.5908 -0.0882  0.4704
 1731TIP3    H126608   4.409   5.286  14.096  0.2368  0.2171  0.2389
 1731TIP3    H226609   4.363   5.275  14.240  1.6542 -1.3009  0.6101
 1732TIP3   OH226610   4.164   4.242  15.965 -0.5517  0.5765 -0.7258
 1732TIP3    H126611   4.173   4.184  16.041  1.6651  0.9038 -0.6619
 1732TIP3    H226612   4.078   4.283  15.976 -1.6915 -1.7938 -0.1630
 1733TIP3   OH226613   1.872   3.402   1.499 -0.2102 -0.6743  0.0823
 1733TIP3    H126614   1.834   3.476   1.546 -0.9264 -1.1910  0.3384
 1733TIP3    H226615   1.803   3.375   1.438  0.4565 -0.4359 -0.8041
 1734TIP3   OH226616   3.781   3.765   1.614 -0.1095  0.8050  0.3568
 1734TIP3    H126617   3.823   3.785   1.530 -1.6813  0.1887 -0.6129
 1734TIP3    H226618   3.775   3.850   1.658 -0.8687  1.4602 -0.9306
 1735TIP3   OH226619   4.133   0.325   0.959 -0.7443  0.2215  0.3310
 1735TIP3    H126620   4.172   0.353   0.876 -1.0659  0.3585  0.2238
 1735TIP3    H226621   4.181   0.246   0.982  0.7953  1.3324  1.1012
 1736TIP3   OH226622   0.857   3.666   4.725 -0.4409  0.1126  0.0161
 1736TIP3    H126623   0.939   3.635   4.686 -0.4521  0.4912 -0.3161
 1736TIP3    H226624   0.862   3.639   4.817  0.1307  0.2767  0.0364
 1737TIP3   OH226625   0.462   4.211   2.958 -0.4029  0.2342  0.4714
 1737TIP3    H126626   0.527   4.141   2.956 -1.2202 -0.5295 -0.4751
 1737TIP3    H226627   0.394   4.179   3.016  0.3195  1.3046  1.9792
 1738TIP3   OH226628   4.776   6.035   5.828 -0.0832  0.1394 -0.2815
 1738TIP3    H126629   4.794   5.942   5.814  1.9014  0.3333  0.6442
 1738TIP3    H226630   4.816   6.078   5.753 -0.1950  0.2948 -0.2510
 1739TIP3   OH226631   4.944   1.391   4.235  0.2275  0.2482 -0.1760
 1739TIP3    H126632   4.938   1.332   4.310  0.5618 -1.4333 -1.4158
 1739TIP3    H226633   4.895   1.468   4.261 -0.7617 -0.8301  1.2818
 1740TIP3   OH226634   1.882   2.708  16.292 -0.1639 -0.1070 -0.1241
 1740TIP3    H126635   1.936   2.787  16.301  0.4639 -0.5645  0.1809
 1740TIP3    H226636   1.938   2.646  16.245 -1.8627  0.7713 -3.6395
 1741TIP3   OH226637   2.371   1.203   4.837 -0.5461  0.4353  0.4142
 1741TIP3    H126638   2.427   1.246   4.902  0.0179  1.9673 -1.0038
 1741TIP3    H226639   2.432   1.158   4.779 -0.7902  1.6372 -0.8101
 1742TIP3   OH226640   3.670   1.422   2.543 -0.1434 -0.4401  0.0400
 1742TIP3    H126641   3.680   1.475   2.464 -0.1897 -2.3872 -1.3441
 1742TIP3    H226642   3.755   1.379   2.555  0.1514  0.4977  1.6031
 1743TIP3   OH226643   1.762   2.394  13.317  0.4179 -0.3602 -0.3017
 1743TIP3    H126644   1.741   2.312  13.362 -1.6657  0.5853  0.5602
 1743TIP3    H226645   1.745   2.462  13.381  1.0427  0.8258 -1.3542
 1744TIP3   OH226646   1.901   4.433  14.599 -0.2722 -0.7977  0.2859
 1744TIP3    H126647   1.956   4.506  14.627 -1.3363 -0.2100  0.8899
 1744TIP3    H226648   1.939   4.406  14.515  1.6904 -1.2235  1.2349
 1745TIP3   OH226649   1.375   0.550   2.221 -0.7823 -0.2155 -0.2184
 1745TIP3    H126650   1.436   0.622   2.212 -2.3366  0.9988 -1.7622
 1745TIP3    H226651   1.426   0.479   2.261  1.8527  0.4136 -2.2487
 1746TIP3   OH226652   3.405   1.404   5.777 -0.5613 -0.1925 -0.0393
 1746TIP3    H126653   3.492   1.378   5.808 -0.0184  1.9557  0.4544
 1746TIP3    H226654   3.383   1.480   5.831 -2.3040 -0.0698 -0.8681
 1747TIP3   OH226655   0.966   0.138  14.430 -0.4629  0.5010 -0.2690
 1747TIP3    H126656   0.875   0.162  14.449 -0.4050  1.9224 -1.6024
 1747TIP3    H226657   1.013   0.221  14.429  1.6503 -0.3887  3.8846
 1748TIP3   OH226658   0.615   0.203   1.887  0.0595 -0.9931  0.4637
 1748TIP3    H126659   0.592   0.113   1.913 -2.4565 -0.5145  0.1518
 1748TIP3    H226660   0.681   0.192   1.819  0.7516 -2.5390  1.3191
 1749TIP3   OH226661   0.045   3.968   0.582  0.4249 -0.3951  0.0446
 1749TIP3    H126662   0.052   3.907   0.508  0.2059  0.5532 -0.7860
 1749TIP3    H226663   0.073   4.053   0.546  0.2161  0.1092  1.0271
 1750TIP3   OH226664   1.199   1.741   3.616  0.9377  0.3707 -0.3111
 1750TIP3    H126665   1.211   1.646   3.622  2.2924  0.5651  0.5986
 1750TIP3    H226666   1.282   1.773   3.583  0.3589  1.2218 -0.9574
 1751TIP3   OH226667   3.909   2.166  14.251 -0.3505 -0.1824  0.1160
 1751TIP3    H126668   3.896   2.186  14.159 -1.8535 -1.8971 -0.1058
 1751TIP3    H226669   3.828   2.194  14.294  0.2558  0.4258  0.9102
 1752TIP3   OH226670   3.369   4.934  15.581 -0.3455 -0.1523 -0.3190
 1752TIP3    H126671   3.464   4.936  15.588 -0.3190 -1.4416 -0.0689
 1752TIP3    H226672   3.352   4.906  15.491 -0.4714 -0.3138 -0.2467
 1753TIP3   OH226673   0.943   2.143  10.683 -0.1902  0.5288  0.6621
 1753TIP3    H126674   0.978   2.189  10.759  0.5566  1.4384 -0.1988
 1753TIP3    H226675   1.015   2.144  10.620 -0.6765 -0.5231  0.0624
 1754TIP3   OH226676   2.759   4.774  10.845  0.3275 -0.3216 -0.4882
 1754TIP3    H126677   2.799   4.787  10.758 -0.6189  0.1902 -0.8589
 1754TIP3    H226678   2.814   4.707  10.886  0.8033 -0.5618 -1.4746
 1755TIP3   OH226679   2.796   5.916  13.776  0.0018 -0.4269  0.5045
 1755TIP3    H126680   2.752   5.917  13.691  0.3997 -0.0174  0.2998
 1755TIP3    H226681   2.829   5.826  13.784  0.4646 -0.3151 -0.0439
 1756TIP3   OH226682   6.661   1.652   4.555  0.6115  0.4342  0.0108
 1756TIP3    H126683   6.574   1.657   4.594  0.3586  0.2036 -0.5141
 1756TIP3    H226684   6.719   1.635   4.629  0.0414 -0.7967  0.2048
 1757TIP3   OH226685   2.818   5.917  15.062 -0.0141 -0.2668  0.0385
 1757TIP3    H126686   2.827   5.902  15.156 -0.5339 -0.9343 -0.0095
 1757TIP3    H226687   2.907   5.909  15.028  0.1238 -0.3906  0.4217
 1758TIP3   OH226688   2.958   2.292   2.274  0.3148 -0.3073 -0.3708
 1758TIP3    H126689   2.883   2.308   2.216  1.0217 -1.9447 -1.8227
 1758TIP3    H226690   2.987   2.380   2.301 -0.5666  0.4650 -1.8319
 1759TIP3   OH226691   6.620   1.443   2.608 -0.9059  0.4602  0.7610
 1759TIP3    H126692   6.641   1.418   2.698  2.3154  0.3499  0.0894
 1759TIP3    H226693   6.684   1.396   2.554 -2.8390  0.3959 -1.6356
 1760TIP3   OH226694   3.988   0.995  14.112  0.4489  0.1385 -0.9661
 1760TIP3    H126695   4.019   1.071  14.160  0.5682 -0.4841 -0.0265
 1760TIP3    H226696   3.936   1.031  14.040 -0.0918  1.0881 -0.1246
 1761TIP3   OH226697   5.379   2.026   3.733  0.3651  0.1180  0.2660
 1761TIP3    H126698   5.430   2.085   3.677 -0.2578  1.0469  0.6573
 1761TIP3    H226699   5.418   1.940   3.718  3.0979  0.9633  1.6669
 1762TIP3   OH226700   0.605   4.035  14.427 -0.6719  0.7106  0.2176
 1762TIP3    H126701   0.662   4.111  14.435  1.6487 -0.5880 -2.2722
 1762TIP3    H226702   0.572   4.039  14.337  0.3551 -1.6962 -0.3458
 1763TIP3   OH226703   5.475   1.810   3.550 -0.3577  0.6492 -0.4400
 1763TIP3    H126704   5.520   1.889   3.521  2.0453 -1.2194 -2.3480
 1763TIP3    H226705   5.458   1.762   3.469 -2.6871 -0.3516  0.5701
 1764TIP3   OH226706   4.470   6.439   0.586  0.2258 -0.2612  0.3480
 1764TIP3    H126707   4.521   6.484   0.653  1.3228 -2.3377  1.0130
 1764TIP3    H226708   4.537   6.401   0.528 -0.6317 -1.2225 -0.0301
 1765TIP3   OH226709   0.360   6.232  15.931 -0.3099 -0.2979  0.0509
 1765TIP3    H126710   0.302   6.188  15.992 -0.9590 -1.2863 -1.2290
 1765TIP3    H226711   0.434   6.172  15.922  0.2421  0.2852  0.5623
 1766TIP3   OH226712   4.589   5.050  12.384  0.0429  0.1877  0.2640
 1766TIP3    H126713   4.636   5.086  12.459 -0.4956  0.1752  0.6124
 1766TIP3    H226714   4.606   5.111  12.312  0.4387  0.2783  0.4341
 1767TIP3   OH226715   1.564   0.437   4.112 -0.6674 -0.1939 -0.3344
 1767TIP3    H126716   1.652   0.426   4.146 -1.1315 -0.1597  0.9421
 1767TIP3    H226717   1.509   0.447   4.190 -1.5362  1.7925 -1.1347
 1768TIP3   OH226718   2.773   6.034   4.171 -0.2192 -0.0085  0.0618
 1768TIP3    H126719   2.714   5.985   4.114  1.3056 -0.3746 -1.2832
 1768TIP3    H226720   2.751   6.126   4.157 -0.9833 -0.1718  0.1731
 1769TIP3   OH226721   5.186   0.161  15.516  0.1016  0.5817 -0.1054
 1769TIP3    H126722   5.182   0.221  15.441  0.6558  0.1639 -0.4700
 1769TIP3    H226723   5.102   0.115  15.514  0.6462 -0.4004 -1.2874
 1770TIP3   OH226724   6.691   1.365   2.867 -1.0115 -0.9311  0.0612
 1770TIP3    H126725   6.776   1.382   2.907  0.0351  0.2858 -2.4552
 1770TIP3    H226726   6.685   1.269   2.863  0.3715 -1.0355  0.0088
 1771TIP3   OH226727   6.351   5.775   5.040 -0.4255  0.2138 -0.1794
 1771TIP3    H126728   6.311   5.701   5.086  0.7657 -0.5078 -0.2839
 1771TIP3    H226729   6.322   5.852   5.090  0.0472 -0.4719  1.2199
 1772TIP3   OH226730   2.427   6.230   3.706 -0.2731 -0.2329 -0.1733
 1772TIP3    H126731   2.336   6.212   3.730 -0.2193  0.9492  1.0657
 1772TIP3    H226732   2.469   6.254   3.788  1.5126 -1.9864 -0.5020
 1773TIP3   OH226733   2.526   2.166  13.533  0.1858 -0.3137  0.0131
 1773TIP3    H126734   2.558   2.253  13.557  1.5650 -0.6408 -0.5619
 1773TIP3    H226735   2.431   2.171  13.548  0.5225  0.4812  2.4778
 1774TIP3   OH226736   6.189   6.293  10.919  0.2771  0.2930  0.2043
 1774TIP3    H126737   6.094   6.293  10.905  0.1037  0.5958  1.2856
 1774TIP3    H226738   6.204   6.220  10.979  1.1433 -1.7200 -2.2578
 1775TIP3   OH226739   6.769   4.656   5.276  0.0880  0.0754  0.1513
 1775TIP3    H126740   6.846   4.703   5.242 -0.2556 -0.0365 -0.8170
 1775TIP3    H226741   6.698   4.719   5.272 -0.6309 -0.7409 -2.1733
 1776TIP3   OH226742   1.990   2.629  16.610  0.5654 -0.0619  0.2363
 1776TIP3    H126743   1.976   2.540  16.578 -1.7269  0.4295 -0.3297
 1776TIP3    H226744   2.039   2.673  16.541 -1.8586  0.1917 -1.4509
 1777TIP3   OH226745   0.708   5.777  13.433  0.9824 -0.2518  0.6610
 1777TIP3    H126746   0.653   5.748  13.506 -1.3713  0.3566 -0.7646
 1777TIP3    H226747   0.753   5.697  13.404 -1.9186 -1.6845 -0.3286
 1778TIP3   OH226748   4.011   2.980   1.684  0.1248 -0.3266  0.3413
 1778TIP3    H126749   3.924   2.994   1.720 -1.4716  1.1800 -3.6140
 1778TIP3    H226750   4.012   2.888   1.656 -0.0317 -0.4326  0.6794
 1779TIP3   OH226751   5.562   5.648  16.600 -0.0947  0.1997 -0.1849
 1779TIP3    H126752   5.510   5.684  16.672 -0.3692 -0.3752 -0.0907
 1779TIP3    H226753   5.560   5.554  16.613  0.9178  0.1541 -0.2234
 1780TIP3   OH226754   4.821   6.462  13.304  0.5985 -0.1424 -0.5409
 1780TIP3    H126755   4.812   6.545  13.257  0.1672 -1.1191 -2.2550
 1780TIP3    H226756   4.894   6.418  13.260 -0.6828 -1.6578 -1.2224
 1781TIP3   OH226757   4.565   2.899   0.694 -0.3767 -0.0466  0.0115
 1781TIP3    H126758   4.642   2.954   0.680 -0.2630 -0.6434 -1.9762
 1781TIP3    H226759   4.601   2.816   0.725  0.0627 -1.0969 -3.0525
 1782TIP3   OH226760   3.577   4.390   0.185 -0.6971  0.1109 -0.2157
 1782TIP3    H126761   3.650   4.330   0.194  2.4745  3.6962  0.5674
 1782TIP3    H226762   3.547   4.405   0.275 -0.8262  0.4034 -0.3049
 1783TIP3   OH226763   3.196   2.405  17.045  0.4316 -0.4034  0.0450
 1783TIP3    H126764   3.242   2.434  16.966  0.4273  0.6587  0.4212
 1783TIP3    H226765   3.104   2.424  17.028  0.2213 -1.5991 -0.2964
 1784TIP3   OH226766   3.123   3.983  12.424  0.2019  0.7552  0.3416
 1784TIP3    H126767   3.199   4.041  12.427  1.3130 -0.6672  2.1014
 1784TIP3    H226768   3.156   3.899  12.454 -1.6522 -0.4630 -0.8118
 1785TIP3   OH226769   3.206   6.726  11.381  0.3014 -0.6165 -1.2392
 1785TIP3    H126770   3.282   6.730  11.439  0.3373 -1.1944 -1.2415
 1785TIP3    H226771   3.241   6.743  11.294  0.1990  0.5755 -1.0638
 1786TIP3   OH226772   5.021   3.401  16.336 -0.1211  0.1116  0.1869
 1786TIP3    H126773   4.951   3.390  16.401  0.4481  1.6837  1.1118
 1786TIP3    H226774   5.065   3.316  16.333 -1.4525 -0.6257  0.2681
 1787TIP3   OH226775   1.787   6.098   1.958 -0.3287 -0.0475 -0.1222
 1787TIP3    H126776   1.699   6.066   1.936 -0.8773  0.7688  0.8207
 1787TIP3    H226777   1.772   6.185   1.994  0.9053  0.2064 -0.1927
 1788TIP3   OH226778   0.555   5.389   2.710 -0.0617  0.1644  0.1468
 1788TIP3    H126779   0.593   5.407   2.625 -1.0598  0.3049 -0.2894
 1788TIP3    H226780   0.625   5.348   2.761  0.1097 -1.3750 -1.2528
 1789TIP3   OH226781   1.261   1.879   5.107  0.0279 -0.2018  0.2545
 1789TIP3    H126782   1.198   1.949   5.093  0.1064 -0.0309  0.7423
 1789TIP3    H226783   1.285   1.886   5.200  0.3885 -0.5739  0.1934
 1790TIP3   OH226784   1.865   4.809  15.773 -0.3098  0.3380 -0.0325
 1790TIP3    H126785   1.926   4.789  15.702 -0.7889 -1.5467  0.0316
 1790TIP3    H226786   1.778   4.798  15.734 -0.6484 -3.6128  1.4426
 1791TIP3   OH226787   5.044   1.827  17.210 -0.3742 -0.0276  0.5822
 1791TIP3    H126788   5.008   1.907  17.173  4.3144  2.7428  1.1424
 1791TIP3    H226789   5.069   1.774  17.134 -0.5704  0.5992  0.0744
 1792TIP3   OH226790   3.560   5.299   2.970  0.8803  0.5004  0.6705
 1792TIP3    H126791   3.521   5.219   3.006 -0.7309  1.1817  0.5323
 1792TIP3    H226792   3.537   5.367   3.033 -1.6469  1.6455 -1.2926
 1793TIP3   OH226793   3.091   2.085   6.576  0.3234  0.0214  0.7501
 1793TIP3    H126794   3.152   2.016   6.603 -1.0054 -1.0459  1.1225
 1793TIP3    H226795   3.053   2.051   6.494  1.6555  1.5906 -0.6019
 1794TIP3   OH226796   6.054   2.142   4.651 -0.1244 -0.4037 -0.0272
 1794TIP3    H126797   6.134   2.190   4.674 -0.5804  1.0774 -1.2764
 1794TIP3    H226798   6.082   2.081   4.582 -0.2871  1.2203 -1.6117
 1795TIP3   OH226799   3.667   6.351   2.275 -0.4999  0.2490  0.5487
 1795TIP3    H126800   3.741   6.374   2.332 -0.8860 -0.8964  1.5776
 1795TIP3    H226801   3.707   6.321   2.194  0.1036  1.0203  0.5547
 1796TIP3   OH226802   3.467   1.837   5.429  0.0168 -0.3048  0.0436
 1796TIP3    H126803   3.472   1.763   5.490 -1.1713 -1.0432 -0.7271
 1796TIP3    H226804   3.417   1.804   5.355 -0.0554  1.1117 -0.5647
 1797TIP3   OH226805   1.380   2.854   1.038  0.6777 -0.0477 -0.1007
 1797TIP3    H126806   1.325   2.926   1.004  0.9744 -0.6064 -1.8848
 1797TIP3    H226807   1.318   2.794   1.078  0.3408  0.8063  0.7046
 1798TIP3   OH226808   0.670   0.232   2.327  0.6301  0.5434 -0.3709
 1798TIP3    H126809   0.620   0.295   2.275  1.2693  0.2155 -1.4108
 1798TIP3    H226810   0.760   0.263   2.322  0.5545  1.1756  1.5536
 1799TIP3   OH226811   6.493   0.451   3.549 -0.2710 -0.7733  0.4334
 1799TIP3    H126812   6.574   0.485   3.587 -1.1505 -0.8197  2.4646
 1799TIP3    H226813   6.465   0.383   3.611 -1.8183 -0.8193 -0.2890
 1800TIP3   OH226814   2.165   4.132   3.514  0.5279  0.3170  0.1934
 1800TIP3    H126815   2.092   4.072   3.500  0.7397 -0.0709  0.7027
 1800TIP3    H226816   2.161   4.154   3.607  2.1857 -1.2366  0.7001
 1801TIP3   OH226817   2.657   1.438  11.914 -0.2479 -0.4268 -0.1895
 1801TIP3    H126818   2.662   1.431  12.009 -0.5936  0.6983 -0.0784
 1801TIP3    H226819   2.690   1.353  11.882 -1.1013 -1.2081  0.9367
 1802TIP3   OH226820   6.691   1.233  14.083 -0.2043 -0.4821 -0.1452
 1802TIP3    H126821   6.692   1.322  14.047 -1.1415 -1.0891 -1.8250
 1802TIP3    H226822   6.774   1.224  14.129 -0.2276  1.3568  0.3223
 1803TIP3   OH226823   6.381   2.341  16.697 -0.1917  0.5535  0.0211
 1803TIP3    H126824   6.426   2.361  16.779  0.1581 -0.7887  0.1785
 1803TIP3    H226825   6.321   2.270  16.720 -1.4484  1.4178 -0.4899
 1804TIP3   OH226826   0.916   0.127  13.755  0.3530  0.6164 -0.5446
 1804TIP3    H126827   0.976   0.056  13.779  0.3195  1.5469  2.8799
 1804TIP3    H226828   0.872   0.096  13.676  1.7388 -2.2736 -0.3223
 1805TIP3   OH226829   5.632   1.942   2.451 -0.1432  0.1437 -0.0195
 1805TIP3    H126830   5.577   2.021   2.447 -2.8081 -1.6076 -0.5979
 1805TIP3    H226831   5.635   1.910   2.361  2.3410  0.3965 -0.1041
 1806TIP3   OH226832   2.751   2.066  11.926 -0.1124  0.6202 -0.0731
 1806TIP3    H126833   2.755   2.150  11.879 -0.5222  1.1895  0.8925
 1806TIP3    H226834   2.825   2.016  11.891  0.3436  1.5124 -0.4189
 1807TIP3   OH226835   2.991   1.481  16.360 -0.0113 -0.5518  0.1942
 1807TIP3    H126836   2.973   1.574  16.344  0.3035 -0.2762  1.3066
 1807TIP3    H226837   2.905   1.440  16.361 -0.2657 -0.0297  0.9777
 1808TIP3   OH226838   5.020   2.111  11.736  0.1206  0.1550  0.0266
 1808TIP3    H126839   5.095   2.052  11.744 -0.0829 -0.0122  0.8344
 1808TIP3    H226840   4.949   2.055  11.703 -0.2279 -0.2199  1.3254
 1809TIP3   OH226841   0.447   1.195  15.616 -0.0802  0.1219 -0.0155
 1809TIP3    H126842   0.424   1.259  15.682  2.5152 -0.2968  1.4404
 1809TIP3    H226843   0.369   1.186  15.562 -1.6384  1.9260  1.8093
 1810TIP3   OH226844   5.590   6.139  11.654 -0.5484 -0.0065  0.4660
 1810TIP3    H126845   5.683   6.137  11.635 -0.7102 -1.1064 -0.2925
 1810TIP3    H226846   5.576   6.065  11.713 -1.2082 -0.9594 -0.8371
 1811TIP3   OH226847   1.078   4.276  12.000 -0.5622  0.2047  0.3383
 1811TIP3    H126848   1.064   4.265  12.094  2.3755 -1.7134  0.6866
 1811TIP3    H226849   1.012   4.220  11.959 -1.6294  0.7674  1.2443
 1812TIP3   OH226850   5.754   5.992  12.316  0.1066 -0.7655  0.2955
 1812TIP3    H126851   5.774   6.075  12.358 -1.9217 -0.3007  0.4715
 1812TIP3    H226852   5.822   5.980  12.250 -0.2452  1.6791 -0.5997
 1813TIP3   OH226853   3.972   5.913  13.087 -0.1724 -0.5310 -0.4187
 1813TIP3    H126854   3.952   5.973  13.159  0.0475 -0.0331 -0.7657
 1813TIP3    H226855   3.908   5.935  13.019  2.9821  2.9379 -2.6297
 1814TIP3   OH226856   1.651   5.181  15.983 -0.2444 -0.6098 -0.1076
 1814TIP3    H126857   1.744   5.204  15.974  0.2894 -2.8444 -1.1075
 1814TIP3    H226858   1.609   5.261  16.013  2.0003  0.4916  0.3223
 1815TIP3   OH226859   3.589   2.461   4.730 -0.6408 -0.0795 -0.2408
 1815TIP3    H126860   3.572   2.556   4.730 -1.8549 -0.2805 -0.7806
 1815TIP3    H226861   3.502   2.421   4.736 -0.0668 -1.1754  1.7340
 1816TIP3   OH226862   2.083   4.670   0.586  0.0653  0.5645 -0.1580
 1816TIP3    H126863   2.152   4.620   0.541  1.5745  3.6688 -1.5652
 1816TIP3    H226864   2.017   4.686   0.519 -1.0653 -0.5224  0.6334
 1817TIP3   OH226865   1.207   3.189   5.146  0.4699  0.6414  0.0045
 1817TIP3    H126866   1.258   3.229   5.076 -1.5313  0.2018 -1.8162
 1817TIP3    H226867   1.214   3.095   5.131 -2.2695  0.5862 -1.4610
 1818TIP3   OH226868   3.152   2.133  14.257 -0.7073 -0.1964 -0.4195
 1818TIP3    H126869   3.140   2.083  14.338  0.8348 -3.2277 -1.8989
 1818TIP3    H226870   3.212   2.204  14.281 -1.5629 -0.0244  1.3917
 1819TIP3   OH226871   6.534   2.981  12.719  0.3812 -0.3836  0.5155
 1819TIP3    H126872   6.546   2.980  12.814 -1.0827 -1.7184  0.7214
 1819TIP3    H226873   6.623   2.987  12.684  1.0062 -0.6787  1.9605
 1820TIP3   OH226874   2.994   5.248   2.680  0.1781  0.0033 -0.3871
 1820TIP3    H126875   3.013   5.255   2.586 -0.0877 -0.5138 -0.4831
 1820TIP3    H226876   2.974   5.337   2.707  2.1538  0.5045 -0.3969
 1821TIP3   OH226877   0.330   3.970   6.202 -0.5279 -1.0446 -0.1951
 1821TIP3    H126878   0.295   3.892   6.245  0.3710 -1.0767  0.5294
 1821TIP3    H226879   0.344   4.032   6.274 -0.3352 -0.5735 -0.6341
 1822TIP3   OH226880   4.068   1.570  13.483  0.2172 -0.4915  0.3431
 1822TIP3    H126881   4.043   1.662  13.475  0.4763 -0.4887 -0.6023
 1822TIP3    H226882   4.053   1.534  13.395  0.2421 -1.3176  0.6727
 1823TIP3   OH226883   4.353   0.954   4.090  0.1244  0.4474 -0.8642
 1823TIP3    H126884   4.352   1.049   4.083  0.5424  0.4931 -0.3561
 1823TIP3    H226885   4.276   0.933   4.144  0.0798  0.5001 -0.9069
 1824TIP3   OH226886   4.848   4.186  13.195 -0.0320  0.1628 -0.4683
 1824TIP3    H126887   4.812   4.254  13.251 -2.9426 -0.6991 -1.0924
 1824TIP3    H226888   4.865   4.113  13.254  0.1369  0.3952 -0.2304
 1825TIP3   OH226889   1.426   4.726   1.251  0.8372 -0.2572 -0.2835
 1825TIP3    H126890   1.389   4.770   1.174  0.3553 -1.1476 -0.5650
 1825TIP3    H226891   1.514   4.699   1.223  0.8106 -0.2364 -0.3877
 1826TIP3   OH226892   2.520   0.173   4.625 -0.0632  0.0601 -0.1580
 1826TIP3    H126893   2.524   0.097   4.568 -0.2112  0.3330 -0.5338
 1826TIP3    H226894   2.434   0.212   4.608  0.5252  1.0697 -0.9539
 1827TIP3   OH226895   2.851   5.109  11.398  0.4085 -0.5807 -0.5932
 1827TIP3    H126896   2.818   5.117  11.488  3.3677 -0.3289  0.5781
 1827TIP3    H226897   2.902   5.028  11.399  1.6653  0.1717 -1.6052
 1828TIP3   OH226898   5.065   2.203   3.070  0.4252 -0.4851  0.2804
 1828TIP3    H126899   5.017   2.186   3.152 -0.9878 -0.0036 -0.4186
 1828TIP3    H226900   5.103   2.118   3.047  0.5758 -0.7010  1.2505
 1829TIP3   OH226901   1.587   2.560  15.683  0.3341 -0.1608 -0.0426
 1829TIP3    H126902   1.634   2.615  15.620 -0.8155 -0.0119 -0.8035
 1829TIP3    H226903   1.560   2.620  15.752  3.5835 -0.6766  1.9163
 1830TIP3   OH226904   0.953   4.270  15.677  0.5008  0.7795  0.6829
 1830TIP3    H126905   0.940   4.190  15.626 -1.6402  1.1340  0.5848
 1830TIP3    H226906   0.975   4.337  15.612  1.3200  0.5081  0.6605
 1831TIP3   OH226907   0.313   6.356   3.172  0.4817 -0.2768 -0.3338
 1831TIP3    H126908   0.357   6.326   3.252 -0.7006  1.0823  0.8870
 1831TIP3    H226909   0.300   6.450   3.186  0.0107 -0.0638 -2.0281
 1832TIP3   OH226910   1.049   5.047   4.758  0.2873 -0.9376  0.2296
 1832TIP3    H126911   0.963   5.056   4.717 -0.2172  0.3802  1.4744
 1832TIP3    H226912   1.046   4.963   4.804 -0.2036 -1.0696 -0.0485
 1833TIP3   OH226913   3.232   4.894   0.464  0.9768 -0.1706  0.0417
 1833TIP3    H126914   3.156   4.867   0.516  0.9534 -0.6543 -0.2370
 1833TIP3    H226915   3.212   4.864   0.375  1.0406  0.6049 -0.2419
 1834TIP3   OH226916   3.454   1.613   3.356 -0.2636  0.1815  0.1665
 1834TIP3    H126917   3.377   1.588   3.304 -1.0698  1.0103  0.9396
 1834TIP3    H226918   3.442   1.706   3.374  1.0706  0.3905  0.0694
 1835TIP3   OH226919   0.727   0.740  13.940  0.0491  0.3244 -0.2804
 1835TIP3    H126920   0.636   0.768  13.946 -0.1963 -0.5153  0.0674
 1835TIP3    H226921   0.773   0.815  13.903 -0.2830  1.7860  2.0818
 1836TIP3   OH226922   4.896   0.659   3.127 -0.8084  0.0350 -0.2577
 1836TIP3    H126923   4.801   0.651   3.132 -0.7062 -0.4020  1.5523
 1836TIP3    H226924   4.913   0.752   3.136 -1.0720  0.2397 -1.5732
 1837TIP3   OH226925   2.110   1.178  14.555 -0.1332  0.0853  0.3331
 1837TIP3    H126926   2.164   1.150  14.630  0.9444 -1.8644 -1.0900
 1837TIP3    H226927   2.051   1.104  14.539 -0.3692  0.4900 -0.7275
 1838TIP3   OH226928   1.750   1.473  16.732  0.3706 -0.5460  0.3900
 1838TIP3    H126929   1.815   1.473  16.662 -0.6610 -2.2736 -0.6351
 1838TIP3    H226930   1.666   1.473  16.687 -0.3268 -1.3719  1.6269
 1839TIP3   OH226931   3.901   5.393   0.624  0.9539 -0.2115  0.0299
 1839TIP3    H126932   3.957   5.454   0.672  0.1018  1.9644 -1.5385
 1839TIP3    H226933   3.952   5.368   0.547  0.1979  1.0199 -0.9092
 1840TIP3   OH226934   0.247   3.364  15.667 -0.3571 -0.0112 -0.0306
 1840TIP3    H126935   0.341   3.381  15.667  0.0143 -1.7456 -1.6075
 1840TIP3    H226936   0.240   3.268  15.670 -2.1780  0.0654  2.9474
 1841TIP3   OH226937   3.690   3.418   5.756 -0.5229 -0.2111 -1.0168
 1841TIP3    H126938   3.774   3.453   5.728  0.4310 -1.2654  0.3972
 1841TIP3    H226939   3.648   3.492   5.801  0.3262 -0.1105 -0.3641
 1842TIP3   OH226940   1.678   3.754  14.381 -0.2833 -0.2707 -0.4153
 1842TIP3    H126941   1.684   3.736  14.475  1.2199  0.1211 -0.4170
 1842TIP3    H226942   1.646   3.671  14.344 -0.1854 -0.6706  0.3608
 1843TIP3   OH226943   6.287   5.402   0.029  0.0863  0.1537  0.7479
 1843TIP3    H126944   6.252   5.489   0.010 -2.4848 -1.0251 -0.3631
 1843TIP3    H226945   6.371   5.400  -0.016 -0.2188  1.7491  0.0321
 1844TIP3   OH226946   5.829   0.957   3.551 -0.5325  0.2259  0.3975
 1844TIP3    H126947   5.751   1.012   3.558 -1.4000 -1.0689  1.5333
 1844TIP3    H226948   5.854   0.962   3.459 -1.7947  0.8957  0.0658
 1845TIP3   OH226949   0.342   0.261   5.577  0.1169  0.2443 -0.1160
 1845TIP3    H126950   0.418   0.207   5.554 -0.2520 -0.7470  0.8834
 1845TIP3    H226951   0.359   0.291   5.666 -0.8056 -0.2826  0.2516
 1846TIP3   OH226952   6.226   3.246  13.866  0.3573 -0.0842  0.1716
 1846TIP3    H126953   6.264   3.212  13.947  2.2898 -2.0528 -1.4544
 1846TIP3    H226954   6.246   3.180  13.800 -0.2875  1.8891 -2.1440
 1847TIP3   OH226955   4.150   0.432   4.456  0.3028 -0.3573  0.8656
 1847TIP3    H126956   4.157   0.418   4.551 -1.7168 -0.6597  1.0277
 1847TIP3    H226957   4.081   0.498   4.448  1.0624  0.3175 -0.3933
 1848TIP3   OH226958   1.312   5.525  16.283  0.2681  0.1405  0.4828
 1848TIP3    H126959   1.313   5.547  16.376 -1.5314  1.4184  0.2686
 1848TIP3    H226960   1.232   5.567  16.250  1.2952  0.4313 -1.8113
 1849TIP3   OH226961   2.892   6.168  12.378 -0.1749  0.5161 -0.0857
 1849TIP3    H126962   2.967   6.191  12.433  0.2842  0.7742 -0.7987
 1849TIP3    H226963   2.908   6.078  12.351 -0.2418  0.4943 -0.0523
 1850TIP3   OH226964   4.354   0.929   5.148 -0.2727 -0.4870 -0.2608
 1850TIP3    H126965   4.314   0.931   5.235 -1.4842  0.4629 -0.8071
 1850TIP3    H226966   4.415   0.855   5.151 -0.9911 -1.0575  1.0910
 1851TIP3   OH226967   0.372   2.266  12.025 -0.0254  0.3246 -0.7129
 1851TIP3    H126968   0.404   2.252  11.936 -1.0111  0.2435 -1.0632
 1851TIP3    H226969   0.349   2.359  12.029 -0.8932  0.1247 -0.8574
 1852TIP3   OH226970   3.410   3.870   1.817 -0.1783 -0.3650  0.8588
 1852TIP3    H126971   3.321   3.893   1.791  0.1581 -1.3597 -1.4883
 1852TIP3    H226972   3.464   3.941   1.782 -0.0261  0.2233  2.2526
 1853TIP3   OH226973   1.984   6.616  15.814 -0.3585  0.0999 -0.3626
 1853TIP3    H126974   1.998   6.521  15.818 -1.5534 -0.0802  0.1107
 1853TIP3    H226975   1.928   6.628  15.737  1.4001  0.6711 -1.6245
 1854TIP3   OH226976   2.084   1.047  15.965 -0.2444  0.3259 -0.2060
 1854TIP3    H126977   2.033   1.124  15.991  0.2668  0.2548  1.0830
 1854TIP3    H226978   2.019   0.977  15.955 -0.6751  0.8311 -1.1003
 1855TIP3   OH226979   1.799   2.895   0.712 -0.2471 -0.0520  0.7277
 1855TIP3    H126980   1.846   2.859   0.637 -2.3773 -2.8039  0.5427
 1855TIP3    H226981   1.718   2.931   0.674  0.0951  1.5029  1.3990
 1856TIP3   OH226982   0.738   2.914  15.458 -0.7069 -0.2387 -0.3445
 1856TIP3    H126983   0.802   2.929  15.389 -2.4745 -0.9856 -2.2765
 1856TIP3    H226984   0.766   2.833  15.501  0.7295  0.5458  0.2346
 1857TIP3   OH226985   0.860   3.639   6.158  0.4425 -0.0996  0.2736
 1857TIP3    H126986   0.925   3.679   6.216 -0.6848  0.6001  1.0973
 1857TIP3    H226987   0.807   3.712   6.127  2.2136 -0.1662 -3.3292
 1858TIP3   OH226988   6.724   6.596  10.508 -0.5185  0.2465  0.2522
 1858TIP3    H126989   6.686   6.673  10.549 -0.4539 -0.5633  1.9520
 1858TIP3    H226990   6.649   6.540  10.486 -0.5258  0.4733 -0.3107
 1859TIP3   OH226991   5.591   4.675   4.552 -0.3074 -0.6064  0.2040
 1859TIP3    H126992   5.546   4.750   4.513  0.6707 -0.1750 -0.1271
 1859TIP3    H226993   5.625   4.709   4.635  0.6277 -0.5047 -0.2082
 1860TIP3   OH226994   5.176   2.194  13.539 -0.1802 -0.3478 -0.4028
 1860TIP3    H126995   5.092   2.180  13.496 -0.4869 -0.8995  0.3651
 1860TIP3    H226996   5.209   2.275  13.500 -0.8040 -0.4219 -1.1104
 1861TIP3   OH226997   0.942   5.632  16.186 -0.2254 -0.6430 -0.2017
 1861TIP3    H126998   0.920   5.643  16.278 -1.0728 -1.9955 -0.2154
 1861TIP3    H226999   1.001   5.705  16.166 -1.1503  0.4807  1.0321
 1862TIP3   OH227000   0.795   0.509   0.308 -0.3283  0.7579 -0.6216
 1862TIP3    H127001   0.883   0.546   0.301  0.5260 -1.3785 -2.1442
 1862TIP3    H227002   0.752   0.536   0.227 -0.6512  0.7469 -0.4540
 1863TIP3   OH227003   2.585   3.755  14.673 -0.0976  0.2563 -0.0814
 1863TIP3    H127004   2.630   3.718  14.749  0.6081 -0.0512 -0.6294
 1863TIP3    H227005   2.518   3.812  14.710 -1.7765 -2.1314  0.8462
 1864TIP3   OH227006   0.476   5.962   1.343  0.3896 -0.3487 -0.4240
 1864TIP3    H127007   0.569   5.941   1.347  0.4700  0.1036  0.2485
 1864TIP3    H227008   0.436   5.909   1.412 -0.0573 -1.5082 -1.5424
 1865TIP3   OH227009   2.360   0.050  12.739  0.5530  0.2403  0.3375
 1865TIP3    H127010   2.435   0.022  12.687 -0.4765  0.5479 -1.3914
 1865TIP3    H227011   2.397   0.101  12.811  2.1921 -2.1583  1.3268
 1866TIP3   OH227012   3.421   5.263   3.258 -0.2655  0.3040  0.0175
 1866TIP3    H127013   3.339   5.291   3.217 -0.9330 -2.8949 -1.1525
 1866TIP3    H227014   3.408   5.170   3.277  1.8576  0.5001  3.1397
 1867TIP3   OH227015   4.045   1.038  13.416  0.3199  0.7679 -0.4062
 1867TIP3    H127016   4.083   0.960  13.376  0.4148  1.2864 -1.3614
 1867TIP3    H227017   4.092   1.048  13.499  1.7900  0.9887 -1.2357
 1868TIP3   OH227018   4.824   1.468  12.414 -0.4840  0.3306  0.5385
 1868TIP3    H127019   4.740   1.425  12.400 -0.8479  1.3365 -0.5318
 1868TIP3    H227020   4.882   1.398  12.446 -1.1016 -0.9181 -0.9536
 1869TIP3   OH227021   4.571   4.362  16.543  0.3111 -0.5011 -0.1661
 1869TIP3    H127022   4.573   4.429  16.474  1.9559  0.7386  1.0027
 1869TIP3    H227023   4.654   4.316  16.534  0.6548 -0.1687  1.0963
 1870TIP3   OH227024   1.797   2.671  15.533  0.1646  0.4581 -0.0200
 1870TIP3    H127025   1.867   2.624  15.487 -0.9606 -1.9157  0.5609
 1870TIP3    H227026   1.751   2.719  15.464  0.1172 -0.9383 -1.0191
 1871TIP3   OH227027   1.274   6.378   3.580  0.0774 -0.5804 -0.4138
 1871TIP3    H127028   1.268   6.292   3.538 -0.4964 -0.3705 -0.7736
 1871TIP3    H227029   1.249   6.362   3.671  0.4624 -0.8819 -0.3587
 1872TIP3   OH227030   1.466   0.888   2.479  0.4333 -0.2802  0.2904
 1872TIP3    H127031   1.536   0.946   2.508 -0.8908  0.8888  1.3596
 1872TIP3    H227032   1.464   0.817   2.543 -0.4551  0.6401  1.3490
 1873TIP3   OH227033   6.672   6.055   4.566  0.1729  0.1441  0.7227
 1873TIP3    H127034   6.766   6.064   4.584  0.5109 -3.5114  1.6706
 1873TIP3    H227035   6.668   6.015   4.479 -0.4515 -0.2873  0.9428
 1874TIP3   OH227036   3.782   3.634  16.346 -0.5301  0.2346  0.6611
 1874TIP3    H127037   3.758   3.713  16.395  0.8179  1.6172 -0.7994
 1874TIP3    H227038   3.747   3.650  16.258  1.6928  0.2917 -0.2813
 1875TIP3   OH227039   6.507   1.084  14.208 -0.2525 -0.3961 -0.6058
 1875TIP3    H127040   6.547   1.140  14.142  0.5696  0.9341  0.9567
 1875TIP3    H227041   6.536   1.120  14.292  1.5819 -3.9810  0.5428
 1876TIP3   OH227042   4.595   1.633  12.291  0.0486 -0.3546 -0.6985
 1876TIP3    H127043   4.537   1.691  12.341  0.2032 -1.4653  0.8362
 1876TIP3    H227044   4.668   1.615  12.351  0.1956 -1.8129 -1.2770
 1877TIP3   OH227045   3.263   5.223  14.907 -0.0862  0.0820 -1.2529
 1877TIP3    H127046   3.172   5.214  14.879  0.3823 -1.4911 -2.4743
 1877TIP3    H227047   3.307   5.262  14.832  0.2332  0.9966 -0.6038
 1878TIP3   OH227048   0.948   1.554  12.663 -0.2998  0.0881  0.3737
 1878TIP3    H127049   0.970   1.627  12.721 -0.1547  1.1746 -1.0170
 1878TIP3    H227050   0.871   1.513  12.704 -0.1026  0.7210  1.4115
 1879TIP3   OH227051   6.539   1.838  15.629  0.1110  0.0204 -0.6578
 1879TIP3    H127052   6.492   1.825  15.711  1.4666 -0.2784  0.1020
 1879TIP3    H227053   6.471   1.840  15.562 -1.1575  1.5845  0.5877
 1880TIP3   OH227054   5.140   0.079  14.175  0.0246  0.1736 -0.4222
 1880TIP3    H127055   5.065   0.112  14.224 -0.4105 -1.5344  0.1284
 1880TIP3    H227056   5.172   0.155  14.126 -0.1860  1.6909  1.6471
 1881TIP3   OH227057   1.004   5.401  15.087  0.3678  0.3838  0.0520
 1881TIP3    H127058   1.069   5.342  15.124  0.3303  0.0645 -0.3840
 1881TIP3    H227059   0.990   5.369  14.998  1.7129  2.1556 -0.8689
 1882TIP3   OH227060   2.657   3.037   2.568  0.0769 -0.4106  0.2065
 1882TIP3    H127061   2.625   3.124   2.591 -1.3654 -0.6650 -0.6989
 1882TIP3    H227062   2.712   3.011   2.643 -1.8291  0.0957  1.8782
 1883TIP3   OH227063   2.448   5.310  11.750 -0.1352  0.0988 -0.0286
 1883TIP3    H127064   2.372   5.314  11.809 -2.6856 -0.8390 -2.9436
 1883TIP3    H227065   2.454   5.217  11.726  2.1933  0.1103  0.3159
 1884TIP3   OH227066   5.647   2.371  12.213 -0.3162  0.2225  0.1460
 1884TIP3    H127067   5.687   2.310  12.275  1.8211 -0.4070 -1.7099
 1884TIP3    H227068   5.621   2.315  12.139 -2.7321  0.9593  0.3535
 1885TIP3   OH227069   2.530   3.606   1.109  0.2064  0.0202  0.4582
 1885TIP3    H127070   2.452   3.550   1.116  0.2728 -0.1751 -0.3004
 1885TIP3    H227071   2.589   3.573   1.177 -0.1554 -0.1814  0.6778
 1886TIP3   OH227072   5.542   0.237  11.206  0.6937  0.7160  0.1565
 1886TIP3    H127073   5.552   0.245  11.111  1.5891  1.6675  0.3065
 1886TIP3    H227074   5.480   0.306  11.229 -4.0679 -2.8717 -0.3109
 1887TIP3   OH227075   2.222   2.729   2.216  0.1464 -0.0347  0.3308
 1887TIP3    H127076   2.222   2.641   2.177 -1.8294 -0.2020  0.5887
 1887TIP3    H227077   2.247   2.715   2.307 -0.5206 -0.3947  0.4633
 1888TIP3   OH227078   3.722   0.934   1.007  0.3010  0.1175 -0.6675
 1888TIP3    H127079   3.708   1.009   0.949 -1.8856  2.4151  2.4350
 1888TIP3    H227080   3.813   0.942   1.035  0.4334  0.8906 -1.2855
 1889TIP3   OH227081   6.495   0.906   3.480 -0.2732 -0.0762 -0.0558
 1889TIP3    H127082   6.497   0.918   3.385 -0.2418 -1.1450 -0.1999
 1889TIP3    H227083   6.479   0.994   3.515 -2.3008  0.0315 -1.1250
 1890TIP3   OH227084   3.885   2.929  13.175  0.2535  0.5523 -0.4373
 1890TIP3    H127085   3.812   2.979  13.139 -0.7074 -1.4474 -1.4470
 1890TIP3    H227086   3.859   2.837  13.163  1.0924 -0.2729  2.9587
 1891TIP3   OH227087   2.246   0.486  15.523  0.2729 -0.4539  0.5193
 1891TIP3    H127088   2.321   0.428  15.520 -0.0505 -0.8709  0.3714
 1891TIP3    H227089   2.269   0.553  15.587  0.9850 -0.2752  0.0822
 1892TIP3   OH227090   3.560   1.256   2.731  0.1391  0.6566  0.0224
 1892TIP3    H127091   3.575   1.291   2.818  1.4359 -0.6645  0.3734
 1892TIP3    H227092   3.590   1.325   2.671  0.4031  1.0884  0.6453
 1893TIP3   OH227093   2.947   3.240  16.970 -0.0198 -0.1473 -0.1934
 1893TIP3    H127094   2.895   3.254  17.049 -0.3932 -0.0039 -0.4661
 1893TIP3    H227095   2.893   3.272  16.898  0.1979 -0.5434 -0.5435
 1894TIP3   OH227096   5.308   6.543  12.618  0.4888  0.1240  0.3705
 1894TIP3    H127097   5.340   6.474  12.675 -0.4547  0.4514  1.3494
 1894TIP3    H227098   5.317   6.509  12.530 -0.9470 -1.6930  0.8772
 1895TIP3   OH227099   6.477   4.555   2.323  0.4490 -0.1677  0.6241
 1895TIP3    H127100   6.397   4.586   2.365 -0.2006 -0.5695 -0.2685
 1895TIP3    H227101   6.534   4.530   2.395 -0.3549 -0.1732  1.2763
 1896TIP3   OH227102   0.347   5.044   0.156  0.3182 -0.2940 -0.3972
 1896TIP3    H127103   0.323   5.030   0.065 -0.8641 -0.7916 -0.0317
 1896TIP3    H227104   0.353   5.139   0.165  0.2677 -0.2368 -0.9489
 1897TIP3   OH227105   1.457   4.752  16.130 -0.0735  0.0751 -0.7482
 1897TIP3    H127106   1.493   4.667  16.154  2.3674  1.4227  0.7353
 1897TIP3    H227107   1.386   4.767  16.193 -0.2908 -0.7021 -0.8071
 1898TIP3   OH227108   1.924   6.030   1.023 -0.0773 -0.2425 -0.1351
 1898TIP3    H127109   1.950   5.980   1.101 -0.6169  0.4401  0.4929
 1898TIP3    H227110   1.968   5.986   0.951  2.8362  0.8011  0.8553
 1899TIP3   OH227111   0.762   1.093  14.874  0.4420  0.5374  0.3352
 1899TIP3    H127112   0.809   1.125  14.951  0.1598  1.4080  0.1583
 1899TIP3    H227113   0.671   1.118  14.889  0.3718  0.6529 -0.2403
 1900TIP3   OH227114   1.991   4.952   6.736  0.0749 -0.4344  0.1243
 1900TIP3    H127115   2.002   4.996   6.820  1.4398 -0.6671  0.1004
 1900TIP3    H227116   1.934   5.010   6.685  0.3470  0.3839  0.7345
 1901TIP3   OH227117   2.748   4.302   5.836  0.1629 -0.8426  0.2504
 1901TIP3    H127118   2.695   4.249   5.776 -0.1720 -0.1777 -0.0476
 1901TIP3    H227119   2.828   4.321   5.786  1.1983 -2.7501  1.0812
 1902TIP3   OH227120   4.854   1.628  15.127 -0.7044  0.0246  0.0875
 1902TIP3    H127121   4.885   1.603  15.040  2.5822  0.7366  0.9308
 1902TIP3    H227122   4.909   1.579  15.188 -2.4425  0.0768  1.8130
 1903TIP3   OH227123   1.349   5.921   5.798 -0.2438 -0.3317 -0.1318
 1903TIP3    H127124   1.305   5.906   5.882 -0.3002  0.5734  0.0212
 1903TIP3    H227125   1.419   5.857   5.795 -1.2843 -1.5026 -0.1729
 1904TIP3   OH227126   5.984   0.470   0.062 -0.1600 -0.0569  0.1930
 1904TIP3    H127127   5.897   0.450   0.097 -0.2252  0.8742  0.5854
 1904TIP3    H227128   6.031   0.509   0.135 -0.1768  1.5683 -0.6228
 1905TIP3   OH227129   2.823   0.384   6.313 -0.2541  0.0252  0.3822
 1905TIP3    H127130   2.787   0.398   6.401 -1.4648  1.1157 -0.2558
 1905TIP3    H227131   2.886   0.313   6.325 -0.3856  0.1389  2.1283
 1906TIP3   OH227132   0.123   1.197  16.142 -0.0548  0.2566 -0.1023
 1906TIP3    H127133   0.111   1.284  16.180  0.3098  0.1910  0.1751
 1906TIP3    H227134   0.143   1.141  16.217  0.5740  0.1028 -0.3765
 1907TIP3   OH227135   0.205   3.366  14.020  0.3127  0.6061 -0.0287
 1907TIP3    H127136   0.224   3.459  14.031 -0.7348  0.7913  0.3824
 1907TIP3    H227137   0.122   3.364  13.972  0.7148 -0.1352 -0.7161
 1908TIP3   OH227138   1.698   1.716  16.863  0.5711  0.0272 -0.5489
 1908TIP3    H127139   1.737   1.701  16.778  0.3980 -0.0996 -0.6059
 1908TIP3    H227140   1.618   1.766  16.845  1.4528  1.5964 -0.3193
 1909TIP3   OH227141   1.628   3.895   1.405 -0.4165  0.0635  0.2391
 1909TIP3    H127142   1.569   3.823   1.424  1.8517 -1.6330  1.4620
 1909TIP3    H227143   1.616   3.956   1.478 -1.0953  0.0666  0.1300
 1910TIP3   OH227144   6.074   2.754  13.296 -0.6090  0.6549  0.1457
 1910TIP3    H127145   6.066   2.809  13.374 -0.8462  2.8744 -1.3692
 1910TIP3    H227146   6.038   2.807  13.225  0.5655 -0.8745 -1.6853
 1911TIP3   OH227147   2.844   5.930  11.243  0.6415 -0.1038 -0.1757
 1911TIP3    H127148   2.779   5.937  11.313  1.7487  0.5194  0.8217
 1911TIP3    H227149   2.838   6.013  11.196 -1.6012 -1.3087 -2.2540
 1912TIP3   OH227150   1.329   3.990   4.642  0.0132  0.4241 -0.2523
 1912TIP3    H127151   1.246   3.943   4.648  0.0785  0.4113  0.7478
 1912TIP3    H227152   1.330   4.046   4.720  1.1894  0.0046  0.0526
 1913TIP3   OH227153   1.198   0.818  11.936 -0.4030 -0.5491  0.2614
 1913TIP3    H127154   1.266   0.819  12.003 -1.2584  0.8030  1.1664
 1913TIP3    H227155   1.239   0.857  11.859  0.2922 -1.1826  0.3049
 1914TIP3   OH227156   4.315   6.693   1.718  0.1100 -0.4482 -0.0305
 1914TIP3    H127157   4.244   6.695   1.782 -0.5845 -0.0511 -0.7953
 1914TIP3    H227158   4.300   6.613   1.668  2.6532 -2.7242  2.4555
 1915TIP3   OH227159   2.068   3.145   4.248  1.0270  0.1119  0.2148
 1915TIP3    H127160   2.040   3.065   4.293  1.2043  0.1895  0.4635
 1915TIP3    H227161   2.088   3.116   4.158  0.3078  0.0297  0.0795
 1916TIP3   OH227162   0.624   3.086  13.601 -0.2904  0.0209  0.3451
 1916TIP3    H127163   0.650   3.128  13.519  2.6575 -0.6514  0.8188
 1916TIP3    H227164   0.613   2.994  13.578  0.1427 -0.1011  0.6206
 1917TIP3   OH227165   2.218   3.553  12.782 -0.0134  0.2980  0.3488
 1917TIP3    H127166   2.176   3.603  12.712 -0.1774 -0.8482 -0.4051
 1917TIP3    H227167   2.196   3.600  12.862 -2.6222 -0.1496 -0.0269
 1918TIP3   OH227168   3.358   6.783  16.062 -0.0384  0.1519  0.0083
 1918TIP3    H127169   3.323   6.729  15.991 -1.0869  0.9040 -0.0888
 1918TIP3    H227170   3.407   6.852  16.017  1.6287 -0.8943  0.1464
 1919TIP3   OH227171   1.305   6.100   4.253 -0.0501 -0.0115  0.0810
 1919TIP3    H127172   1.214   6.121   4.272  0.1311  1.0446 -0.1573
 1919TIP3    H227173   1.354   6.141   4.324  0.2399 -0.6270  0.2405
 1920TIP3   OH227174   3.997   5.542  15.894 -0.3401  0.6643  0.2114
 1920TIP3    H127175   4.060   5.600  15.936 -1.2964  1.6717  0.2931
 1920TIP3    H227176   3.923   5.538  15.955 -0.6885  0.1394 -0.2354
 1921TIP3   OH227177   2.231   1.149   1.121  0.2166  0.1179 -0.8582
 1921TIP3    H127178   2.316   1.125   1.158 -0.6331  1.6870  2.4566
 1921TIP3    H227179   2.187   1.065   1.107  1.7978 -0.6630 -1.4219
 1922TIP3   OH227180   3.643   2.501   4.060  0.3935  0.2645  0.5106
 1922TIP3    H127181   3.606   2.583   4.028  0.7361 -0.2715 -1.4004
 1922TIP3    H227182   3.593   2.433   4.015  2.4800 -0.4984 -0.8250
 1923TIP3   OH227183   4.746   0.778   5.413 -0.6547  0.4281  0.1595
 1923TIP3    H127184   4.806   0.754   5.343 -0.3759  0.0724  0.5208
 1923TIP3    H227185   4.753   0.873   5.419 -1.9751  0.6905 -1.4716
 1924TIP3   OH227186   1.691   1.242   3.122  0.0888 -0.5757  0.4001
 1924TIP3    H127187   1.697   1.256   3.028 -2.2576 -0.8730  0.1490
 1924TIP3    H227188   1.773   1.277   3.157  1.1192 -0.6915 -1.7520
 1925TIP3   OH227189   3.431   0.627   4.882 -0.3644  0.1410  0.1094
 1925TIP3    H127190   3.394   0.711   4.908 -1.5235  0.2686 -1.7537
 1925TIP3    H227191   3.509   0.617   4.936 -0.5980  2.0661  0.8729
 1926TIP3   OH227192   3.655   4.673   0.128  0.2381 -0.4118 -0.3057
 1926TIP3    H127193   3.611   4.588   0.138  1.8528 -1.2255  0.1540
 1926TIP3    H227194   3.604   4.732   0.184  0.4604 -1.6318  1.2624
 1927TIP3   OH227195   0.431   1.919  14.790  0.6018  0.1865 -0.6173
 1927TIP3    H127196   0.385   1.835  14.798  1.1736 -0.2132 -1.3115
 1927TIP3    H227197   0.502   1.913  14.853  0.7434  0.0743 -0.7859
 1928TIP3   OH227198   0.972   6.368  12.418 -0.2060 -0.0808  0.5480
 1928TIP3    H127199   1.003   6.427  12.487  0.8625  0.7072 -0.5609
 1928TIP3    H227200   1.052   6.323  12.388 -0.7686 -0.9412  0.3062
 1929TIP3   OH227201   3.993   4.943  16.588  0.1748 -0.0636 -0.1099
 1929TIP3    H127202   3.900   4.962  16.580  0.4591  0.6924 -2.2504
 1929TIP3    H227203   4.010   4.878  16.520  1.2293 -0.2294  0.2892
 1930TIP3   OH227204   4.781   2.556  16.279  0.1925  0.0317 -0.4345
 1930TIP3    H127205   4.820   2.475  16.311 -0.6229 -0.4999 -0.7382
 1930TIP3    H227206   4.854   2.609  16.249  0.6307 -1.1794 -1.5646
 1931TIP3   OH227207   6.590   3.798   2.216  0.4616 -0.2909  0.3130
 1931TIP3    H127208   6.623   3.709   2.202  0.3955 -0.2041 -0.4104
 1931TIP3    H227209   6.504   3.785   2.257  0.5941 -0.5483  0.5190
 1932TIP3   OH227210   3.367   0.814  14.450 -0.5427  0.4573  0.5012
 1932TIP3    H127211   3.359   0.814  14.355 -1.0194 -0.2406  0.5326
 1932TIP3    H227212   3.431   0.883  14.469  0.6347 -0.3487 -0.4094
 1933TIP3   OH227213   1.763   0.495  17.187  0.4166 -0.4040  0.1663
 1933TIP3    H127214   1.727   0.567  17.135 -0.9178 -0.8456  0.4361
 1933TIP3    H227215   1.788   0.536  17.270  2.2297  0.2352 -0.6376
 1934TIP3   OH227216   1.259   1.771  16.894  0.1354  0.4219 -0.9221
 1934TIP3    H127217   1.245   1.857  16.855 -0.2329 -0.1566 -2.1344
 1934TIP3    H227218   1.172   1.745  16.924  0.6042  1.3515  1.4345
 1935TIP3   OH227219   3.474   5.491  14.276  0.4791  0.1016  0.0662
 1935TIP3    H127220   3.481   5.545  14.355  0.9154  1.2630 -0.7391
 1935TIP3    H227221   3.386   5.453  14.281  0.2217  0.7654  0.7302
 1936TIP3   OH227222   6.136   4.316  16.896  1.3802 -0.2832  0.0637
 1936TIP3    H127223   6.170   4.293  16.810  0.2156 -0.7132 -0.3023
 1936TIP3    H227224   6.087   4.397  16.882  2.0993  0.2635  0.5609
 1937TIP3   OH227225   3.991   3.445  16.412 -0.2734  0.0481 -0.2146
 1937TIP3    H127226   4.060   3.440  16.346 -0.3047  1.0438 -0.3391
 1937TIP3    H227227   3.935   3.517  16.383 -0.7452 -0.0307  0.4710
 1938TIP3   OH227228   3.810   5.715   0.392  0.1470  0.1956  0.0593
 1938TIP3    H127229   3.879   5.781   0.394  1.1520 -0.8417  0.3900
 1938TIP3    H227230   3.804   5.684   0.482  0.9766 -1.4523 -0.4134
 1939TIP3   OH227231   4.413   5.127  12.691  0.0926  0.0210  0.8355
 1939TIP3    H127232   4.391   5.179  12.614  0.9686  1.4507  1.5002
 1939TIP3    H227233   4.353   5.158  12.759 -1.2712 -1.8364  0.5708
 1940TIP3   OH227234   6.150   3.406   5.979 -0.4346  0.0399  0.4531
 1940TIP3    H127235   6.195   3.377   5.900 -0.2444 -0.0428  0.5880
 1940TIP3    H227236   6.207   3.376   6.050 -0.1445  0.8986  0.5914
 1941TIP3   OH227237   4.049   4.888  15.074  0.0634 -0.3140 -0.3456
 1941TIP3    H127238   4.139   4.860  15.091  0.8211  0.3640 -2.7537
 1941TIP3    H227239   4.058   4.980  15.047 -1.5603  0.2608  0.9222
 1942TIP3   OH227240   4.607   1.255  15.662 -0.7794 -0.0692  0.3135
 1942TIP3    H127241   4.611   1.327  15.724 -1.0349  1.5623 -1.4573
 1942TIP3    H227242   4.521   1.215  15.677 -1.1016  0.7103  0.5687
 1943TIP3   OH227243   6.107   1.734  15.556  0.6052  0.6654 -0.2339
 1943TIP3    H127244   6.135   1.696  15.639 -1.3272 -0.0909  0.1408
 1943TIP3    H227245   6.083   1.824  15.578  0.1484  0.4819  0.0320
 1944TIP3   OH227246   0.599   0.327  14.200 -0.1601  0.5642  0.2072
 1944TIP3    H127247   0.633   0.321  14.289  1.3720  0.0741 -0.3849
 1944TIP3    H227248   0.603   0.421  14.180 -1.0148  0.7486  0.8142
 1945TIP3   OH227249   3.269   1.038  12.248 -0.2671 -0.1316  0.0861
 1945TIP3    H127250   3.198   1.000  12.197 -0.5658  1.5719 -0.8327
 1945TIP3    H227251   3.232   1.051  12.335 -0.0677 -2.1244  0.5031
 1946TIP3   OH227252   4.671   5.417   0.175 -0.0333 -0.0770  0.0931
 1946TIP3    H127253   4.666   5.344   0.237  0.6183 -0.1335  0.0919
 1946TIP3    H227254   4.585   5.458   0.179  0.0969  0.1155  1.2749
 1947TIP3   OH227255   5.180   5.849  13.644  0.4790 -0.1464  0.4929
 1947TIP3    H127256   5.219   5.914  13.586  0.0397 -0.7582 -0.5149
 1947TIP3    H227257   5.090   5.880  13.658  0.5284 -0.0960  0.7039
 1948TIP3   OH227258   1.398   2.458  11.170  0.8088 -0.0184 -0.1927
 1948TIP3    H127259   1.401   2.385  11.108 -0.4871 -0.0917 -0.1818
 1948TIP3    H227260   1.458   2.522  11.133 -1.1292  0.6417 -2.4614
 1949TIP3   OH227261   5.666   2.087  15.642  0.9046  0.5702  0.2292
 1949TIP3    H127262   5.740   2.138  15.674  0.8753 -0.1949  1.5564
 1949TIP3    H227263   5.609   2.076  15.718  1.1051 -1.7666  0.1241
 1950TIP3   OH227264   1.231   1.901  13.797  0.1028  0.0514 -0.0915
 1950TIP3    H127265   1.246   1.826  13.855  1.4905 -0.3848 -0.9736
 1950TIP3    H227266   1.291   1.888  13.724 -1.8515  0.3712 -1.8748
 1951TIP3   OH227267   1.748   0.571   2.736  0.0250  0.0518  0.6707
 1951TIP3    H127268   1.765   0.629   2.662  0.8386 -0.9540  0.0335
 1951TIP3    H227269   1.721   0.629   2.807 -1.2414  0.9949 -0.5364
 1952TIP3   OH227270   5.824   4.557  13.083 -0.4421  0.3196 -0.5975
 1952TIP3    H127271   5.910   4.599  13.079  0.4559 -1.5091 -2.4624
 1952TIP3    H227272   5.838   4.480  13.138 -1.1786  0.6059 -0.0065
 1953TIP3   OH227273   4.903   0.198  14.715  0.2736 -0.2267  0.9504
 1953TIP3    H127274   4.881   0.280  14.671 -0.1004 -0.2258  1.1350
 1953TIP3    H227275   4.999   0.195  14.713  0.2709 -0.0703  0.4296
 1954TIP3   OH227276   1.288   3.341   4.583  0.5906  0.6460 -0.2668
 1954TIP3    H127277   1.313   3.300   4.500  1.4524 -0.7335  0.6317
 1954TIP3    H227278   1.370   3.349   4.632  0.0603  1.1714  0.5685
 1955TIP3   OH227279   2.692   2.259   1.397 -0.2462 -0.4958 -0.1475
 1955TIP3    H127280   2.754   2.262   1.324  1.2067  3.0797  1.0270
 1955TIP3    H227281   2.618   2.312   1.368 -1.2539 -1.8676 -0.2090
 1956TIP3   OH227282   5.470   6.351  15.521  0.1004 -0.4298 -0.1487
 1956TIP3    H127283   5.501   6.404  15.448  2.2915 -0.3834  0.7221
 1956TIP3    H227284   5.445   6.414  15.588 -0.9229 -0.4839 -0.4673
 1957TIP3   OH227285   4.915   5.251  10.716  0.4145 -0.4264  1.0877
 1957TIP3    H127286   4.828   5.221  10.688 -0.0908  0.7075  1.3564
 1957TIP3    H227287   4.976   5.204  10.660 -0.5216  1.8134 -2.1292
 1958TIP3   OH227288   0.491   0.718   4.456  0.3098 -0.5889 -0.4180
 1958TIP3    H127289   0.410   0.769   4.462  0.9316  0.4871 -0.9572
 1958TIP3    H227290   0.545   0.749   4.529  0.7557 -0.3590 -0.8430
 1959TIP3   OH227291   0.663   2.524  16.304  0.0495  0.2356 -0.3871
 1959TIP3    H127292   0.602   2.479  16.245  0.0712  0.6494 -0.7288
 1959TIP3    H227293   0.731   2.560  16.246 -2.0487  4.2290 -0.7120
 1960TIP3   OH227294   1.737   1.782  11.475  0.2738 -0.0143  0.3518
 1960TIP3    H127295   1.658   1.732  11.493 -0.2261  1.1240  1.4595
 1960TIP3    H227296   1.723   1.820  11.388 -0.2522 -0.0717  0.4106
 1961TIP3   OH227297   4.001   1.738   0.262 -0.2557 -0.3168  0.2103
 1961TIP3    H127298   3.957   1.740   0.347 -1.1474  0.4243 -0.2562
 1961TIP3    H227299   4.055   1.817   0.261 -1.3954  0.4802 -0.4900
 1962TIP3   OH227300   2.033   4.840  16.330  0.0625 -0.0310 -0.3123
 1962TIP3    H127301   2.008   4.838  16.422  1.2415  1.1175  0.0513
 1962TIP3    H227302   2.001   4.924  16.298  0.0783 -0.2190 -0.8369
 1963TIP3   OH227303   5.746   1.658  16.829 -0.1710 -0.1562 -0.4097
 1963TIP3    H127304   5.838   1.680  16.812  0.8981 -3.1388  0.8788
 1963TIP3    H227305   5.733   1.573  16.788 -1.8738 -0.5416  0.7951
 1964TIP3   OH227306   2.733   2.341   5.811 -0.2171  0.5530 -0.6752
 1964TIP3    H127307   2.808   2.366   5.866 -0.2581 -0.2326 -0.2394
 1964TIP3    H227308   2.758   2.257   5.774 -1.7253 -0.8220  1.2162
 1965TIP3   OH227309   1.785   6.645   5.350 -0.7735  0.0029 -0.0418
 1965TIP3    H127310   1.824   6.726   5.383 -1.6464  0.6366 -0.5616
 1965TIP3    H227311   1.708   6.672   5.302  0.7525 -0.8061 -3.2401
 1966TIP3   OH227312   3.009   2.725   1.515  0.4002  0.0481  0.1849
 1966TIP3    H127313   3.006   2.713   1.609  0.8360  0.9182  0.3197
 1966TIP3    H227314   2.947   2.662   1.480  1.9171 -1.9513  0.8935
 1967TIP3   OH227315   3.667   3.676  11.770 -0.1836  0.3651 -0.3545
 1967TIP3    H127316   3.665   3.581  11.769 -0.2613  0.3287  0.9875
 1967TIP3    H227317   3.576   3.702  11.758 -0.4525  0.2037  1.1712
 1968TIP3   OH227318   4.008   5.762  12.620 -0.3630 -0.0992  0.9999
 1968TIP3    H127319   4.032   5.692  12.559 -2.5311  1.3176 -1.7176
 1968TIP3    H227320   4.066   5.835  12.597 -0.3917  0.0793  1.4858
 1969TIP3   OH227321   2.388   4.885   5.933  0.2461 -0.4840  0.0378
 1969TIP3    H127322   2.382   4.964   5.987  0.1178  0.3953 -1.2062
 1969TIP3    H227323   2.455   4.832   5.975 -1.2296 -0.7676  2.1765
 1970TIP3   OH227324   0.459   4.643   6.264  0.7843 -0.4743 -0.6611
 1970TIP3    H127325   0.454   4.558   6.309  2.9218  0.5820  1.8864
 1970TIP3    H227326   0.408   4.702   6.320  1.8309  0.4786 -0.6685
 1971TIP3   OH227327   6.500   3.826  14.037 -0.0193 -0.4935 -0.2132
 1971TIP3    H127328   6.426   3.885  14.052  0.0482 -0.2972 -0.6158
 1971TIP3    H227329   6.563   3.879  13.987 -0.1310 -1.0293 -0.9312
 1972TIP3   OH227330   6.128   2.498  15.724 -0.0084  0.4085 -0.1880
 1972TIP3    H127331   6.114   2.404  15.725 -1.5124  0.6042  1.3223
 1972TIP3    H227332   6.125   2.524  15.816  0.6568  1.9119 -0.5561
 1973TIP3   OH227333   6.747   6.040  14.754  0.2419  0.4186 -0.6897
 1973TIP3    H127334   6.660   6.003  14.740  0.1616  0.5206 -0.4682
 1973TIP3    H227335   6.742   6.081  14.841  1.1240 -1.4035  0.2746
 1974TIP3   OH227336   0.670   0.326   3.753 -0.0048 -0.0688  0.1841
 1974TIP3    H127337   0.620   0.261   3.705  1.8588 -1.0492 -0.5220
 1974TIP3    H227338   0.677   0.400   3.692  0.4136 -0.4095 -0.1901
 1975TIP3   OH227339   4.003   4.178   2.831 -0.4634  0.3098  0.0772
 1975TIP3    H127340   4.013   4.101   2.775 -1.9034  1.2464 -1.5933
 1975TIP3    H227341   4.091   4.215   2.837 -0.5177  1.5038 -3.7377
 1976TIP3   OH227342   5.332   6.496  15.189 -0.1131  0.2333 -0.4125
 1976TIP3    H127343   5.327   6.416  15.137 -0.0566  0.0232 -0.0938
 1976TIP3    H227344   5.345   6.566  15.124 -0.7093  0.0507 -0.7281
 1977TIP3   OH227345   4.734   5.848   0.675 -0.4724 -0.6891  0.4895
 1977TIP3    H127346   4.749   5.932   0.719  0.9271 -1.2216  1.0672
 1977TIP3    H227347   4.751   5.782   0.742 -1.4937 -1.4542  0.0204
 1978TIP3   OH227348   1.613   3.848  15.512 -0.5489 -0.0192 -0.9652
 1978TIP3    H127349   1.704   3.821  15.506  0.4043  2.9997 -1.6768
 1978TIP3    H227350   1.609   3.901  15.592 -1.8972 -0.7759 -0.5017
 1979TIP3   OH227351   2.522   6.431   3.346 -0.0064  0.1612 -0.2465
 1979TIP3    H127352   2.473   6.512   3.359 -0.3408 -0.0728 -0.0237
 1979TIP3    H227353   2.559   6.439   3.258 -0.6193  0.2518 -0.5025
 1980TIP3   OH227354   5.308   1.311   1.483  0.2097  0.3276  0.2296
 1980TIP3    H127355   5.278   1.232   1.527 -0.0296  1.1412  1.5894
 1980TIP3    H227356   5.230   1.348   1.443  0.2614  0.0817 -0.1127
 1981TIP3   OH227357   4.342   2.507   2.542 -0.1958  0.3543 -0.0302
 1981TIP3    H127358   4.302   2.531   2.626  0.1673  1.8064 -0.2457
 1981TIP3    H227359   4.297   2.562   2.478 -3.2545 -3.3870 -1.4845
 1982TIP3   OH227360   3.598   4.951   6.143  0.0282 -0.4841 -0.3385
 1982TIP3    H127361   3.661   4.940   6.214 -1.2643 -0.1275  0.8966
 1982TIP3    H227362   3.571   4.862   6.121  0.4303 -0.5953 -0.3929
 1983TIP3   OH227363   6.532   3.071  16.102  0.1959  0.0247  0.4734
 1983TIP3    H127364   6.520   3.088  16.008  1.0052  0.2088  0.3908
 1983TIP3    H227365   6.622   3.039  16.108 -0.0137 -0.4501  1.1335
 1984TIP3   OH227366   2.370   2.437  12.524 -0.1631 -0.3236  0.1796
 1984TIP3    H127367   2.444   2.449  12.464  2.1773 -2.5649  2.3952
 1984TIP3    H227368   2.329   2.355  12.496  1.8311 -2.1796  2.2817
 1985TIP3   OH227369   0.653   1.061   3.414 -0.5911  0.0551 -0.3492
 1985TIP3    H127370   0.654   1.120   3.489 -3.9976 -0.2322  0.0955
 1985TIP3    H227371   0.597   1.105   3.350  0.6108 -0.6271 -1.9289
 1986TIP3   OH227372   1.115   2.935   0.387  0.2015  0.1855  0.1205
 1986TIP3    H127373   1.182   2.949   0.454  2.3109 -0.2219 -1.7736
 1986TIP3    H227374   1.043   2.894   0.434  0.1592  2.9338  2.7751
 1987TIP3   OH227375   5.840   5.523   4.179 -0.3927  0.5653 -0.4133
 1987TIP3    H127376   5.867   5.457   4.243 -0.9976  0.9708  0.2926
 1987TIP3    H227377   5.744   5.521   4.182 -0.4223  0.9402 -0.9439
 1988TIP3   OH227378   3.489   4.815  16.366  0.0054  0.7675 -0.0974
 1988TIP3    H127379   3.497   4.757  16.442 -2.0701  0.2642 -0.2111
 1988TIP3    H227380   3.577   4.853  16.356  1.3177 -1.8481  0.3844
 1989TIP3   OH227381   2.223   1.738  12.352  0.3858  0.5717 -0.1072
 1989TIP3    H127382   2.225   1.826  12.314 -0.8451  0.3374 -0.7730
 1989TIP3    H227383   2.191   1.751  12.441  1.4389  0.9232  0.2321
 1990TIP3   OH227384   2.368   2.921  11.401 -0.3558  0.4134  0.5016
 1990TIP3    H127385   2.421   2.995  11.370 -1.1059  0.6377 -0.2765
 1990TIP3    H227386   2.278   2.944  11.377 -0.5527 -0.9463 -0.1541
 1991TIP3   OH227387   2.173   0.736   1.871 -0.1014 -0.7822  0.6250
 1991TIP3    H127388   2.080   0.734   1.891 -0.2751  0.2042  0.0054
 1991TIP3    H227389   2.181   0.689   1.788 -0.0517 -0.8557  0.6716
 1992TIP3   OH227390   1.214   2.361  14.436  0.2614  0.0827  0.0152
 1992TIP3    H127391   1.281   2.392  14.497 -0.2198  0.4739  0.3501
 1992TIP3    H227392   1.261   2.303  14.376  0.8164  0.0131  0.5110
 1993TIP3   OH227393   5.397   2.924   6.551 -0.2445  0.0899 -0.3127
 1993TIP3    H127394   5.450   2.857   6.508 -0.6369  0.1307 -0.8705
 1993TIP3    H227395   5.461   2.983   6.591  0.0999 -0.7072  0.3371
 1994TIP3   OH227396   3.324   6.725   1.666 -0.3857 -0.2766 -0.0306
 1994TIP3    H127397   3.307   6.814   1.637  1.8405  0.2515  0.1305
 1994TIP3    H227398   3.274   6.670   1.605 -0.0219  1.0074 -1.5499
 1995TIP3   OH227399   0.786   3.754  12.229 -0.5101 -0.2293  0.2557
 1995TIP3    H127400   0.805   3.742  12.136  0.2378  2.0425  0.0686
 1995TIP3    H227401   0.692   3.737  12.237 -0.1913 -2.7569 -0.4401
 1996TIP3   OH227402   5.653   2.598   2.289  0.0143  0.4649 -0.4718
 1996TIP3    H127403   5.719   2.663   2.312  2.1315 -1.0450 -1.8505
 1996TIP3    H227404   5.656   2.595   2.193 -0.1069 -1.5225 -0.4475
 1997TIP3   OH227405   6.551   4.448   4.786  0.7851  0.9630 -0.2171
 1997TIP3    H127406   6.514   4.416   4.868 -0.3481  0.5623 -0.8546
 1997TIP3    H227407   6.519   4.538   4.778 -2.0571 -0.0652 -1.8349
 1998TIP3   OH227408   2.085   3.717  11.173  0.0071 -0.6523  0.6661
 1998TIP3    H127409   2.021   3.758  11.116  0.9240  0.5110  0.4260
 1998TIP3    H227410   2.098   3.630  11.135  2.1026  0.7569 -2.2574
 1999TIP3   OH227411   6.734   5.061  13.190  0.0461  0.5458 -0.3601
 1999TIP3    H127412   6.659   5.119  13.177  1.0715  2.2585  0.8914
 1999TIP3    H227413   6.807   5.106  13.148  1.1248  0.8888  1.7094
 2000TIP3   OH227414   4.645   4.897  10.942  0.5115  0.4120 -0.5311
 2000TIP3    H127415   4.656   4.817  10.993  2.4209  1.5477  0.9815
 2000TIP3    H227416   4.640   4.867  10.851  2.3574 -1.4057 -0.1154
 2001TIP3   OH227417   3.063   4.460   6.276 -0.4164 -0.0305  0.0631
 2001TIP3    H127418   3.025   4.542   6.307  1.9587  1.3077 -0.3001
 2001TIP3    H227419   3.002   4.427   6.210 -1.1617  1.7288 -0.1536
 2002TIP3   OH227420   4.399   5.012   5.657  0.2447 -0.3196  0.3672
 2002TIP3    H127421   4.371   5.103   5.669  0.3314  0.0038 -1.6213
 2002TIP3    H227422   4.333   4.974   5.599  0.6723 -1.3064  0.5087
 2003TIP3   OH227423   6.280   6.638   1.873  0.2451  0.3690 -0.4038
 2003TIP3    H127424   6.271   6.553   1.831  2.0001 -1.0101  1.8297
 2003TIP3    H227425   6.206   6.689   1.839  0.3626 -1.2625 -3.4613
 2004TIP3   OH227426   4.242   5.255   5.658 -0.1276  0.0336 -0.0583
 2004TIP3    H127427   4.274   5.322   5.597 -0.6605 -0.3555 -0.7777
 2004TIP3    H227428   4.161   5.291   5.693 -0.6782 -0.4248 -0.8208
 2005TIP3   OH227429   1.886   3.178   5.325  0.3351 -0.4028  0.1003
 2005TIP3    H127430   1.878   3.145   5.414 -1.2966  0.3765  0.2902
 2005TIP3    H227431   1.868   3.272   5.333  2.3550  0.1156 -0.7619
 2006TIP3   OH227432   1.125   0.264  14.642  0.1046 -0.5119  0.1547
 2006TIP3    H127433   1.046   0.214  14.665 -0.4969 -0.0637 -0.8670
 2006TIP3    H227434   1.179   0.202  14.594 -0.0135 -0.5702  0.0969
 2007TIP3   OH227435   1.628   3.714  12.339  0.3406  0.3124  0.0373
 2007TIP3    H127436   1.615   3.664  12.419 -0.5020  0.2132 -0.1583
 2007TIP3    H227437   1.710   3.679  12.303 -0.7036 -1.6740 -0.6055
 2008TIP3   OH227438   4.943   3.635  14.536  0.3277 -0.2426 -0.4411
 2008TIP3    H127439   5.019   3.656  14.483  0.4216 -1.1830 -0.7044
 2008TIP3    H227440   4.868   3.661  14.483  0.4473  1.7544  0.2815
 2009TIP3   OH227441   6.441   2.808  13.020 -0.0550 -0.0350  0.9514
 2009TIP3    H127442   6.383   2.798  13.095 -0.7286 -0.5956  0.3702
 2009TIP3    H227443   6.481   2.894  13.032 -2.1851  1.0858  0.5789
 2010TIP3   OH227444   5.155   4.438  10.700  0.7268 -0.0598 -0.1307
 2010TIP3    H127445   5.204   4.385  10.638  0.1784 -0.6938 -0.0373
 2010TIP3    H227446   5.095   4.376  10.743  0.4289  0.5400  0.3435
 2011TIP3   OH227447   1.849   1.587   1.984 -0.2656  0.7358  0.3086
 2011TIP3    H127448   1.870   1.495   2.000  0.5883  0.1915 -3.0569
 2011TIP3    H227449   1.758   1.597   2.011 -0.2728 -1.0044  1.0150
 2012TIP3   OH227450   4.055   0.253   4.270 -0.0146  0.2464  0.5436
 2012TIP3    H127451   4.098   0.319   4.324 -0.5376 -1.5712  3.4247
 2012TIP3    H227452   3.965   0.283   4.263 -0.0381  0.3202  1.0710
 2013TIP3   OH227453   6.760   3.584  14.502 -0.1855  0.4473  0.3549
 2013TIP3    H127454   6.738   3.491  14.504  1.0166  0.1167 -0.7499
 2013TIP3    H227455   6.679   3.627  14.474 -0.8903 -0.1978  1.3340
 2014TIP3   OH227456   6.229   1.318   1.860  0.3534 -0.3868 -1.0929
 2014TIP3    H127457   6.233   1.322   1.764  0.4349  1.1450 -1.0512
 2014TIP3    H227458   6.318   1.292   1.886  0.5743  0.0238 -1.4120
 2015TIP3   OH227459   6.676   0.557  14.923 -0.2455 -0.6619  0.3581
 2015TIP3    H127460   6.689   0.561  14.829 -0.9775  2.1916  0.2764
 2015TIP3    H227461   6.590   0.517  14.934 -0.8384  0.3789 -0.3084
 2016TIP3   OH227462   0.643   6.718   1.241  0.4190  0.1774 -0.4227
 2016TIP3    H127463   0.607   6.806   1.230 -1.2779 -0.5487 -1.0221
 2016TIP3    H227464   0.629   6.677   1.156  0.7476 -0.8247  0.0031
 2017TIP3   OH227465   3.578   3.073  11.601 -0.2512  0.2028  0.3119
 2017TIP3    H127466   3.580   2.984  11.566  0.6380 -0.6070  2.2694
 2017TIP3    H227467   3.582   3.129  11.523 -3.4577 -1.3573 -1.1776
 2018TIP3   OH227468   6.592   2.163  14.704  0.4758 -0.2714  0.5110
 2018TIP3    H127469   6.587   2.140  14.611  1.0315 -0.6620  0.5722
 2018TIP3    H227470   6.686   2.172  14.722  0.3529  0.2183  0.9350
 2019TIP3   OH227471   4.707   2.765  10.679  0.4679 -0.0068 -0.1219
 2019TIP3    H127472   4.742   2.767  10.590 -0.0670 -0.8454 -0.3713
 2019TIP3    H227473   4.769   2.815  10.731  1.1569 -0.0944 -0.8414
 2020TIP3   OH227474   6.678   6.156   1.497  0.0793  0.4184  0.5264
 2020TIP3    H127475   6.632   6.195   1.572 -0.4369  1.8272 -0.4777
 2020TIP3    H227476   6.726   6.082   1.534 -0.5327  0.7973  2.1610
 2021TIP3   OH227477   0.873   0.623   3.304  0.1776  0.2540  0.2934
 2021TIP3    H127478   0.861   0.701   3.358  1.8493  0.4645  0.4012
 2021TIP3    H227479   0.949   0.643   3.249  0.6715 -1.2981  0.3560
 2022TIP3   OH227480   2.612   4.975  11.968  0.2365 -0.0114 -0.4716
 2022TIP3    H127481   2.677   4.926  11.918  0.1383  0.7220 -1.3493
 2022TIP3    H227482   2.530   4.929  11.952  0.4795 -0.7942  0.4402
 2023TIP3   OH227483   3.259   4.959   5.715  0.3366  0.4416 -0.3295
 2023TIP3    H127484   3.183   4.952   5.774  1.7236 -1.5397  1.3586
 2023TIP3    H227485   3.222   4.991   5.633 -1.8298  2.5940  1.3240
 2024TIP3   OH227486   6.504   0.667   4.171  0.1039  0.6001 -0.1379
 2024TIP3    H127487   6.503   0.694   4.263  0.3944  0.7003 -0.1637
 2024TIP3    H227488   6.421   0.699   4.136 -0.2414  0.1066  0.2194
 2025TIP3   OH227489   5.352   4.438   5.853  0.3124 -0.2926  0.0160
 2025TIP3    H127490   5.366   4.510   5.914  0.0384  0.8061 -1.1812
 2025TIP3    H227491   5.270   4.459   5.810  0.9507 -0.5524 -1.3830
 2026TIP3   OH227492   4.608   5.921  15.100 -0.1133  0.5895  0.5054
 2026TIP3    H127493   4.700   5.916  15.074  0.1206  0.8437  1.2564
 2026TIP3    H227494   4.562   5.947  15.020  0.6085  1.5857  0.3973
 2027TIP3   OH227495   3.716   1.426   3.648  0.3147 -0.3506  0.6058
 2027TIP3    H127496   3.802   1.440   3.688  0.4787  0.3228  0.0351
 2027TIP3    H227497   3.724   1.464   3.561 -0.4468 -0.6290  0.4086
 2028TIP3   OH227498   2.742   4.333   0.172 -0.3439 -0.2100 -0.0387
 2028TIP3    H127499   2.786   4.384   0.103 -1.5801 -0.0906 -0.7640
 2028TIP3    H227500   2.733   4.246   0.135 -0.5501 -0.2836  0.1848
 2029TIP3   OH227501   6.697   0.208   0.307 -0.5011  0.7297 -0.1986
 2029TIP3    H127502   6.774   0.199   0.250  0.8225  2.3508  1.2233
 2029TIP3    H227503   6.624   0.213   0.246  0.5953 -0.0112 -1.6554
 2030TIP3   OH227504   2.055   5.381  17.033 -0.2487 -0.4423 -0.5501
 2030TIP3    H127505   1.971   5.336  17.039 -0.6482  0.4064  0.5117
 2030TIP3    H227506   2.113   5.317  16.991 -2.0511 -0.1460 -3.8932
 2031TIP3   OH227507   4.900   2.478  15.368  0.0443  0.2118  0.8258
 2031TIP3    H127508   4.894   2.541  15.440 -0.4086  0.1058  0.8845
 2031TIP3    H227509   4.875   2.529  15.290  2.7958  0.9902  0.3109
 2032TIP3   OH227510   4.359   1.423  15.325  0.6346 -0.2071 -0.9620
 2032TIP3    H127511   4.378   1.336  15.360 -0.1584 -0.3219 -0.8062
 2032TIP3    H227512   4.441   1.472  15.338 -0.0548  0.2551  2.5143
 2033TIP3   OH227513   1.128   4.150   1.929  0.2842 -0.1119  0.6611
 2033TIP3    H127514   1.129   4.083   1.860  1.4017  0.9098 -0.3638
 2033TIP3    H227515   1.036   4.175   1.936  0.4093  2.3352 -3.1514
 2034TIP3   OH227516   6.202   3.138  15.296 -0.4010 -0.0643 -0.7778
 2034TIP3    H127517   6.163   3.065  15.248  1.0745 -0.2722 -1.7604
 2034TIP3    H227518   6.267   3.174  15.235  0.7801  0.3623  0.6812
 2035TIP3   OH227519   6.322   0.046  14.704 -0.0391 -0.4371  0.1590
 2035TIP3    H127520   6.375   0.119  14.673 -1.4283  1.1496  1.3210
 2035TIP3    H227521   6.293   0.002  14.624 -2.1834  2.5399 -0.9074
 2036TIP3   OH227522   1.726   4.739   2.842 -0.3134  0.1211 -0.6098
 2036TIP3    H127523   1.670   4.705   2.773 -0.5211 -0.0796 -0.3431
 2036TIP3    H227524   1.728   4.670   2.909  1.1078 -0.3387 -1.0770
 2037TIP3   OH227525   1.506   2.819  13.903  0.8161 -0.1236 -0.2881
 2037TIP3    H127526   1.423   2.857  13.933  1.5070 -0.1417  1.8654
 2037TIP3    H227527   1.522   2.747  13.964  1.1989 -1.7792 -2.2298
 2038TIP3   OH227528   4.784   0.522   5.531  0.0414 -0.2130  0.2384
 2038TIP3    H127529   4.812   0.472   5.453 -0.8556  0.0331 -0.2530
 2038TIP3    H227530   4.783   0.613   5.502 -0.4283 -0.1339  0.4952
 2039TIP3   OH227531   6.443   4.310   3.759  0.5386  0.0173  0.0088
 2039TIP3    H127532   6.491   4.351   3.686 -0.7005 -0.0991 -0.9027
 2039TIP3    H227533   6.487   4.225   3.771  0.6238 -0.0581 -0.7609
 2040TIP3   OH227534   5.891   6.214  14.034  0.1566 -0.0799  0.5605
 2040TIP3    H127535   5.986   6.205  14.024  0.0620  0.8405 -1.7716
 2040TIP3    H227536   5.871   6.163  14.113  2.3219 -1.9420  0.0449
 2041TIP3   OH227537   6.737   2.628  10.409  0.1403 -0.0181 -0.2904
 2041TIP3    H127538   6.795   2.591  10.477 -0.1317 -0.3800 -0.2567
 2041TIP3    H227539   6.653   2.640  10.453 -0.0732 -0.3732 -0.6004
 2042TIP3   OH227540   5.346   2.060   4.008  0.6998 -0.0299  0.6106
 2042TIP3    H127541   5.369   2.036   3.919 -0.0902  0.1724  0.3403
 2042TIP3    H227542   5.330   1.977   4.053  0.7920 -0.1206  0.4742
 2043TIP3   OH227543   1.046   0.521  14.461 -0.4463 -0.1063  0.1898
 2043TIP3    H127544   1.023   0.499  14.551 -1.6441 -0.2193 -0.1261
 2043TIP3    H227545   0.963   0.550  14.421  0.2051  0.6351 -0.6689
 2044TIP3   OH227546   4.194   0.086   1.980 -0.2204 -0.1814 -0.0019
 2044TIP3    H127547   4.231   0.173   1.988 -0.4122  0.0509 -1.3420
 2044TIP3    H227548   4.121   0.084   2.042 -0.4652  0.7448 -0.2553
 2045TIP3   OH227549   6.436   4.526  17.133 -0.3162  0.3708 -0.1409
 2045TIP3    H127550   6.490   4.604  17.145  0.4536 -0.2426  0.4874
 2045TIP3    H227551   6.408   4.503  17.222  0.8891 -1.0483 -0.0913
 2046TIP3   OH227552   1.571   3.831  15.135  0.7108 -0.3408 -0.3882
 2046TIP3    H127553   1.630   3.769  15.177  2.7020  1.5291 -0.2287
 2046TIP3    H227554   1.492   3.829  15.189  1.0809 -1.9766  0.1630
 2047TIP3   OH227555   6.040   6.530  15.352 -0.5885 -0.1300 -0.0041
 2047TIP3    H127556   6.082   6.553  15.269 -1.9945  0.4050 -0.5869
 2047TIP3    H227557   6.077   6.444  15.375 -2.3907 -1.7955 -2.7800
 2048TIP3   OH227558   5.596   4.366   1.967  0.2396  0.0536  0.3920
 2048TIP3    H127559   5.608   4.332   1.879  1.5126 -0.6209  0.8022
 2048TIP3    H227560   5.550   4.296   2.014  0.6437 -0.0821  0.5842
 2049TIP3   OH227561   4.165   6.720  14.377  0.1035 -0.5985 -0.3220
 2049TIP3    H127562   4.195   6.683  14.461  0.9293  0.5495 -0.0821
 2049TIP3    H227563   4.097   6.783  14.402  0.2300 -0.3817 -0.5253
 2050TIP3   OH227564   6.659   4.677   3.995 -0.1669  0.0145 -0.6081
 2050TIP3    H127565   6.646   4.590   4.033 -3.1848  0.1246 -1.1121
 2050TIP3    H227566   6.648   4.664   3.901  0.5991  0.7584 -0.8084
 2051TIP3   OH227567   2.240   6.212   5.952 -0.1237  0.0849 -0.4385
 2051TIP3    H127568   2.295   6.135   5.964  1.7138  1.2734 -0.8080
 2051TIP3    H227569   2.214   6.208   5.860 -2.5587 -1.6158  0.2281
 2052TIP3   OH227570   0.565   1.520   1.771 -0.6799 -0.0844 -0.0765
 2052TIP3    H127571   0.551   1.581   1.699 -1.3855  0.1163  0.2278
 2052TIP3    H227572   0.656   1.536   1.798 -0.0522 -0.9006 -1.5890
 2053TIP3   OH227573   6.598   3.049  15.124  0.4136 -0.3289 -0.2155
 2053TIP3    H127574   6.649   3.027  15.201  0.5975  1.3355  0.1563
 2053TIP3    H227575   6.591   3.144  15.125 -0.3299 -0.3320 -1.7723
 2054TIP3   OH227576   3.776   0.110   3.218  0.4927 -0.8562 -0.3411
 2054TIP3    H127577   3.812   0.134   3.133  1.3473 -0.5848  0.0852
 2054TIP3    H227578   3.814   0.174   3.279  2.2913 -2.8132  0.7255
 2055TIP3   OH227579   3.767   5.987   3.549 -0.2516  0.0900 -0.0259
 2055TIP3    H127580   3.748   6.067   3.500 -1.8741 -0.8073 -0.9664
 2055TIP3    H227581   3.681   5.957   3.578 -0.0253 -2.5842 -1.7799
 2056TIP3   OH227582   5.120   4.103  16.537 -0.6216  0.1969  0.1112
 2056TIP3    H127583   5.166   4.023  16.512  0.8242  0.9011  0.4113
 2056TIP3    H227584   5.042   4.073  16.583  0.6367 -1.0553  1.5095
 2057TIP3   OH227585   4.184   1.398   5.641 -0.6448 -0.1361 -0.0671
 2057TIP3    H127586   4.162   1.310   5.609  1.3310 -0.8149  0.2872
 2057TIP3    H227587   4.278   1.407   5.624 -0.1557  0.7201  2.5874
 2058TIP3   OH227588   4.235   3.814  17.033  0.4988  0.3332 -0.4374
 2058TIP3    H127589   4.324   3.789  17.009  0.5762  1.3516 -1.2853
 2058TIP3    H227590   4.179   3.764  16.973  0.4521 -0.6123  0.3590
 2059TIP3   OH227591   0.536   4.560  13.085  0.3475  0.0240 -0.3824
 2059TIP3    H127592   0.575   4.648  13.085  1.2307 -0.3586  0.0775
 2059TIP3    H227593   0.524   4.539  13.177  0.1217 -0.3287 -0.4935
 2060TIP3   OH227594   4.335   2.302  16.168 -0.0253  0.2148 -0.8750
 2060TIP3    H127595   4.378   2.322  16.085  2.1902 -1.2956 -0.1981
 2060TIP3    H227596   4.348   2.380  16.221  0.2016  0.4990 -1.3458
 2061TIP3   OH227597   1.247   6.756  15.337  0.6464  0.2476  0.3900
 2061TIP3    H127598   1.152   6.759  15.332  0.5974 -1.0081  0.0120
 2061TIP3    H227599   1.267   6.664  15.358  1.8290 -0.1231 -1.9183
 2062TIP3   OH227600   5.537   2.235   0.333  0.0690  0.2727  0.1668
 2062TIP3    H127601   5.583   2.305   0.287  1.1172 -1.5134 -1.6560
 2062TIP3    H227602   5.510   2.174   0.264 -2.0145 -0.4819  1.5391
 2063TIP3   OH227603   5.319   2.594   1.163 -0.1743  0.5188  0.2102
 2063TIP3    H127604   5.409   2.570   1.185 -1.0499 -1.9045  1.5532
 2063TIP3    H227605   5.292   2.652   1.234  0.5466  1.8896 -0.6144
 2064TIP3   OH227606   3.694   4.983  16.271 -0.2445 -0.4931 -0.1207
 2064TIP3    H127607   3.618   5.037  16.250  1.2808  1.1809 -1.8391
 2064TIP3    H227608   3.722   4.947  16.186 -0.1077 -2.5026  0.7272
 2065TIP3   OH227609   4.540   2.400  11.588 -0.4171 -0.2015  0.1340
 2065TIP3    H127610   4.628   2.363  11.588 -0.1891  0.3330  0.2388
 2065TIP3    H227611   4.553   2.495  11.587 -0.9964 -0.1202 -0.7531
 2066TIP3   OH227612   6.156   2.253   0.215 -0.3520 -0.3233 -0.3682
 2066TIP3    H127613   6.182   2.332   0.264 -1.3440 -0.7156  0.8342
 2066TIP3    H227614   6.083   2.282   0.160 -0.3550 -0.2761 -0.3395
 2067TIP3   OH227615   4.385   6.664   0.971 -0.5782 -0.3741 -0.6988
 2067TIP3    H127616   4.463   6.610   0.984 -1.5347 -1.5932  0.1462
 2067TIP3    H227617   4.419   6.754   0.965  0.8743 -0.8631 -0.1686
 2068TIP3   OH227618   1.643   4.376   3.821 -0.0518 -0.1185 -0.5014
 2068TIP3    H127619   1.611   4.287   3.831 -0.6428 -0.1645 -2.5024
 2068TIP3    H227620   1.733   4.373   3.855 -0.4168 -1.1956  0.4275
 2069TIP3   OH227621   5.014   6.659   4.377  0.5557  0.0046 -0.1748
 2069TIP3    H127622   4.989   6.751   4.370 -0.9187 -0.2850  0.9151
 2069TIP3    H227623   5.037   6.647   4.469 -1.2224 -1.1718  0.1512
 2070TIP3   OH227624   4.201   6.704   2.934  0.0078 -0.1256 -0.7162
 2070TIP3    H127625   4.211   6.799   2.945 -1.8525  0.0057  0.1607
 2070TIP3    H227626   4.179   6.693   2.842 -1.3994  0.4929 -0.4846
 2071TIP3   OH227627   6.510   5.531   4.247  0.7041  0.0635 -0.1659
 2071TIP3    H127628   6.500   5.547   4.340  0.3902  0.2682 -0.2307
 2071TIP3    H227629   6.512   5.618   4.207  1.1008 -0.0166 -0.3258
 2072TIP3   OH227630   0.891   1.218   2.642 -0.3429  0.1754  0.6971
 2072TIP3    H127631   0.867   1.179   2.558  0.3626  1.8517 -0.3375
 2072TIP3    H227632   0.898   1.143   2.702 -2.7471 -0.9020 -0.2064
 2073TIP3   OH227633   5.005   6.697  14.910 -0.0935 -0.2267  0.1989
 2073TIP3    H127634   5.017   6.644  14.989 -1.0363 -1.4810 -0.4518
 2073TIP3    H227635   5.013   6.787  14.940 -0.5205 -0.6724  1.7555
 2074TIP3   OH227636   4.996   4.330  16.184  0.1821  0.8390  0.2096
 2074TIP3    H127637   5.021   4.386  16.258  0.5582  1.1852 -0.1796
 2074TIP3    H227638   4.909   4.362  16.159 -1.2142 -1.0528  2.2503
 2075TIP3   OH227639   1.108   0.526  12.117 -0.5371 -0.2924 -0.2111
 2075TIP3    H127640   1.068   0.576  12.188 -3.1580  0.2628 -1.9130
 2075TIP3    H227641   1.116   0.437  12.152  0.5995  0.4411  1.5562
 2076TIP3   OH227642   4.988   6.406   4.275 -0.0525  0.0563 -0.6819
 2076TIP3    H127643   5.002   6.363   4.360 -0.3502 -1.0127 -1.1671
 2076TIP3    H227644   4.994   6.500   4.295 -0.0735 -0.1811  0.5137
 2077TIP3   OH227645   5.719   0.492   0.106 -0.7350 -0.2796 -0.0492
 2077TIP3    H127646   5.750   0.565   0.161 -0.3022 -0.9148  0.5773
 2077TIP3    H227647   5.693   0.533   0.024  0.5976  0.4572 -0.1392
 2078TIP3   OH227648   5.783   0.357   3.497  0.3078  0.1447  0.3709
 2078TIP3    H127649   5.699   0.392   3.466  0.2288  0.4483  0.9205
 2078TIP3    H227650   5.794   0.275   3.448 -1.3752 -1.0553  1.8645
 2079TIP3   OH227651   1.945   1.893  16.772  0.0738  0.1989 -0.0234
 2079TIP3    H127652   1.928   1.975  16.725  1.3655  1.0160  0.8836
 2079TIP3    H227653   2.005   1.845  16.715 -0.3812  0.0450 -0.3792
 2080TIP3   OH227654   0.341   5.700   3.006 -0.0272 -0.5239  0.3186
 2080TIP3    H127655   0.273   5.719   3.070  1.6885 -1.9208  2.6918
 2080TIP3    H227656   0.384   5.784   2.990 -1.6452  0.1941 -0.5291
 2081TIP3   OH227657   5.782   0.455  13.303  0.2926 -0.0065 -0.5334
 2081TIP3    H127658   5.757   0.364  13.290 -0.2526  0.0921 -0.1850
 2081TIP3    H227659   5.706   0.496  13.344  1.4729 -0.0545  1.9318
 2082TIP3   OH227660   0.374   5.552  16.831 -0.1140 -0.2041 -0.0433
 2082TIP3    H127661   0.291   5.532  16.874 -0.1796 -1.0088 -0.5227
 2082TIP3    H227662   0.438   5.497  16.876  0.0522 -0.0411 -0.0797
 2083TIP3   OH227663   3.739   1.845   1.123  0.0835 -0.2084 -0.2524
 2083TIP3    H127664   3.753   1.772   1.062  0.1665 -0.8561  0.5278
 2083TIP3    H227665   3.824   1.856   1.166 -0.4712 -0.9964  1.0855
 2084TIP3   OH227666   3.466   3.913  13.201  0.2190 -0.0144 -0.1873
 2084TIP3    H127667   3.477   3.823  13.172  0.7928 -0.2791  0.7997
 2084TIP3    H227668   3.450   3.906  13.295  0.8654  0.9330  0.0068
 2085TIP3   OH227669   6.222   5.569  13.525  0.2225 -0.1171 -0.5508
 2085TIP3    H127670   6.134   5.607  13.521  0.5818  0.7198 -0.9130
 2085TIP3    H227671   6.222   5.517  13.605 -1.1104 -1.4700 -1.3806
 2086TIP3   OH227672   2.506   1.451   2.574  0.2108  0.3402  0.1272
 2086TIP3    H127673   2.558   1.531   2.560  0.3392  0.3829  0.7990
 2086TIP3    H227674   2.509   1.438   2.669  0.3393 -0.5649 -0.0005
 2087TIP3   OH227675   5.577   3.310   0.024 -0.1354 -0.5286  0.4657
 2087TIP3    H127676   5.529   3.367   0.084 -0.1788  0.0195 -0.0834
 2087TIP3    H227677   5.568   3.352  -0.061  1.5298 -0.2769  0.3862
 2088TIP3   OH227678   3.896   0.522  14.055  0.1751  0.1411  0.0802
 2088TIP3    H127679   3.988   0.544  14.041  0.4415 -0.8060  0.3005
 2088TIP3    H227680   3.872   0.468  13.980 -0.0197 -0.1457  0.3474
 2089TIP3   OH227681   4.888   4.395   0.688 -0.7406  0.3870 -0.8471
 2089TIP3    H127682   4.875   4.487   0.664  0.4058  0.6704 -0.4660
 2089TIP3    H227683   4.832   4.382   0.764 -0.7845  0.8201 -0.8023
 2090TIP3   OH227684   3.360   4.332  13.942 -0.0053 -0.1375  0.0897
 2090TIP3    H127685   3.424   4.367  14.004 -1.0609  0.9677  0.6068
 2090TIP3    H227686   3.323   4.256  13.986  1.1267 -0.9459 -0.3283
 2091TIP3   OH227687   4.179   0.102   2.398 -0.0197 -0.4453 -0.0264
 2091TIP3    H127688   4.093   0.126   2.364  0.9957 -0.1080 -2.6913
 2091TIP3    H227689   4.198   0.017   2.357  1.1102 -0.2540  0.0731
 2092TIP3   OH227690   5.999   2.571  16.951 -0.5382 -0.0542 -0.1582
 2092TIP3    H127691   6.013   2.512  17.024 -3.3125  0.4110  0.8662
 2092TIP3    H227692   6.083   2.573  16.905  0.1361 -3.5352  0.6249
 2093TIP3   OH227693   0.679   1.098   0.192 -0.2541  0.1828  0.8932
 2093TIP3    H127694   0.655   1.187   0.166  0.4454  0.3338  0.7216
 2093TIP3    H227695   0.603   1.044   0.170 -0.6497  0.7263  0.9183
 2094TIP3   OH227696   3.472   6.159   2.181  0.3638  0.4082 -0.6900
 2094TIP3    H127697   3.514   6.213   2.248  0.0136  0.2735 -0.3622
 2094TIP3    H227698   3.527   6.081   2.176  0.3098  0.3538 -0.4561
 2095TIP3   OH227699   1.193   5.712  14.265  0.0149  0.2187 -0.3773
 2095TIP3    H127700   1.170   5.804  14.268 -0.1822  0.2755 -2.1487
 2095TIP3    H227701   1.288   5.711  14.254  0.1287  0.1707  0.5500
 2096TIP3   OH227702   2.131   4.680  14.400 -0.2950  0.2325  0.6864
 2096TIP3    H127703   2.039   4.695  14.421 -1.1078 -4.5491  1.5890
 2096TIP3    H227704   2.129   4.623  14.323  2.0267  1.0991 -0.1000
 2097TIP3   OH227705   1.034   0.128  12.804 -0.1710 -0.7119 -0.2540
 2097TIP3    H127706   1.053   0.186  12.730  0.2180 -0.7611 -0.1945
 2097TIP3    H227707   0.941   0.140  12.821  0.1959  1.0849  0.7638
 2098TIP3   OH227708   4.994   2.358  16.348  0.1657  0.6613  0.2598
 2098TIP3    H127709   4.939   2.283  16.372 -0.6735  1.4040  0.6986
 2098TIP3    H227710   5.069   2.318  16.304 -0.8225 -0.3758 -0.5778
 2099TIP3   OH227711   2.736   3.205   6.400  0.1108 -0.2505  0.0423
 2099TIP3    H127712   2.830   3.191   6.390  0.2183  0.6240 -0.2812
 2099TIP3    H227713   2.714   3.162   6.483  0.8422 -0.2448  0.2458
 2100TIP3   OH227714   6.527   4.805  12.572 -0.1511  0.4464  0.5499
 2100TIP3    H127715   6.497   4.830  12.659 -0.0054 -0.3402  0.8399
 2100TIP3    H227716   6.573   4.722  12.585 -0.0877  0.3377 -0.2674
 2101TIP3   OH227717   0.008   3.162   3.656 -0.0826  0.2943 -0.1675
 2101TIP3    H127718  -0.059   3.132   3.596  0.2852  1.0881 -0.9990
 2101TIP3    H227719  -0.022   3.133   3.742 -1.4241  0.5396 -0.5293
 2102TIP3   OH227720   4.777   1.735  13.738  0.1948 -0.0790 -0.2182
 2102TIP3    H127721   4.772   1.649  13.695 -1.5180 -0.9061  1.4703
 2102TIP3    H227722   4.871   1.755  13.741  0.5417 -1.2678 -1.7909
 2103TIP3   OH227723   1.305   5.903  16.296 -0.4581  0.2977 -0.1941
 2103TIP3    H127724   1.380   5.961  16.287  1.1790 -1.6566  0.2908
 2103TIP3    H227725   1.266   5.928  16.380  1.2722 -0.3794  0.8742
 2104TIP3   OH227726   6.418   6.209  12.742 -0.5955 -0.2478  0.2859
 2104TIP3    H127727   6.322   6.211  12.738 -0.6585 -1.8540  0.4085
 2104TIP3    H227728   6.441   6.284  12.796 -1.8061 -0.0039  0.4955
 2105TIP3   OH227729   0.632   0.630   0.539  0.0169 -0.0680 -0.0563
 2105TIP3    H127730   0.604   0.712   0.579  0.6834 -0.6847  1.7740
 2105TIP3    H227731   0.602   0.636   0.448 -2.7377  0.8315  0.8255
 2106TIP3   OH227732   6.378   1.437  14.816  0.0647  0.3277  0.1892
 2106TIP3    H127733   6.368   1.532  14.818  0.0239  0.3437 -0.4911
 2106TIP3    H227734   6.382   1.411  14.908 -1.8101  0.7950  0.4571
 2107TIP3   OH227735   2.217   6.742   5.969 -0.0378 -0.4141  0.7708
 2107TIP3    H127736   2.203   6.794   6.048  0.8812  0.0609  0.6414
 2107TIP3    H227737   2.298   6.694   5.985 -0.3450 -1.0418  0.4851
 2108TIP3   OH227738   1.525   6.140   4.047 -0.6803 -0.2091  0.2509
 2108TIP3    H127739   1.442   6.150   4.092 -0.5263  1.9114  0.1218
 2108TIP3    H227740   1.579   6.214   4.076  0.8744 -1.0612 -0.3053
 2109TIP3   OH227741   1.296   2.296  16.544 -0.6415 -0.8520 -0.2062
 2109TIP3    H127742   1.290   2.386  16.512 -1.2567 -1.6555 -2.4941
 2109TIP3    H227743   1.390   2.278  16.548 -0.5318 -0.6071 -1.3309
 2110TIP3   OH227744   5.402   6.140   3.107  0.6600  0.3813  0.2121
 2110TIP3    H127745   5.417   6.056   3.064 -0.5633 -0.1765  0.8389
 2110TIP3    H227746   5.388   6.202   3.035  0.1506 -0.2332 -0.2247
 2111TIP3   OH227747   5.828   2.771   4.756  0.3200 -0.1416 -0.4668
 2111TIP3    H127748   5.745   2.819   4.756  1.6079  2.2471 -0.7990
 2111TIP3    H227749   5.850   2.763   4.848  0.0684 -0.1369 -0.4046
 2112TIP3   OH227750   0.927   3.953   1.752  0.0746 -0.0039 -0.3509
 2112TIP3    H127751   0.982   3.990   1.683  0.1730 -0.8471 -0.7428
 2112TIP3    H227752   0.946   3.859   1.750  2.0777  0.1785  2.5528
 2113TIP3   OH227753   5.493   1.524   1.164 -0.5377  0.4454  0.6453
 2113TIP3    H127754   5.465   1.540   1.074  1.3173 -0.6761 -0.1747
 2113TIP3    H227755   5.478   1.431   1.178  1.5794  0.0498  0.5663
 2114TIP3   OH227756   5.782   0.166  16.157 -0.3795 -0.4168 -0.3172
 2114TIP3    H127757   5.777   0.071  16.153 -1.0789 -0.3510 -2.4422
 2114TIP3    H227758   5.737   0.196  16.078  0.4169  1.6646 -0.0645
 2115TIP3   OH227759   6.165   3.171  14.586 -0.3815  0.3436  0.1900
 2115TIP3    H127760   6.119   3.094  14.551  0.2092 -0.2952  0.7636
 2115TIP3    H227761   6.123   3.246  14.544 -0.8895 -0.3021 -0.4864
 2116TIP3   OH227762   0.184   1.111   4.392 -0.0615  0.2283 -0.2379
 2116TIP3    H127763   0.109   1.165   4.416  0.0215 -0.5407  2.0965
 2116TIP3    H227764   0.260   1.166   4.410 -0.0245  0.0275  0.2463
 2117TIP3   OH227765   1.109   5.091  11.997 -0.1903  0.1743  0.6837
 2117TIP3    H127766   1.098   5.147  12.074  1.1966  0.0878  0.9648
 2117TIP3    H227767   1.055   5.015  12.016  0.1858  0.1217  1.6117
 2118TIP3   OH227768   3.396   6.631   5.045  0.3220  0.0457  0.5299
 2118TIP3    H127769   3.382   6.542   5.078 -2.1856  0.1138 -0.1012
 2118TIP3    H227770   3.442   6.676   5.116  1.2035 -1.6018  1.0611
 2119TIP3   OH227771   1.655   2.980  12.569  0.3106 -0.1080  0.0352
 2119TIP3    H127772   1.726   3.022  12.521 -0.2977  0.1475 -0.6442
 2119TIP3    H227773   1.578   3.034  12.552  0.0120 -0.1827  1.0453
 2120TIP3   OH227774   4.974   1.376   0.456  0.9711 -0.2049  0.5112
 2120TIP3    H127775   5.042   1.339   0.513  0.1026 -0.5905  1.3068
 2120TIP3    H227776   4.934   1.299   0.415  1.9706  0.0762 -1.1231
 2121TIP3   OH227777   1.865   6.743   4.720  0.2386  0.1346 -0.1836
 2121TIP3    H127778   1.811   6.771   4.795  0.5013 -0.0165  0.0655
 2121TIP3    H227779   1.818   6.670   4.682  0.2246  0.0587 -0.0189
 2122TIP3   OH227780   0.418   6.489   1.429 -0.0218  0.2646  0.3756
 2122TIP3    H127781   0.336   6.462   1.388 -0.3208 -1.1977  1.8502
 2122TIP3    H227782   0.406   6.581   1.450 -0.2570  0.7759 -1.7864
 2123TIP3   OH227783   4.795   5.651  16.230 -0.3892  0.0386 -0.7679
 2123TIP3    H127784   4.825   5.735  16.263  1.5946 -1.2696  1.0510
 2123TIP3    H227785   4.775   5.667  16.138  2.8107  1.9238 -1.3035
 2124TIP3   OH227786   4.939   1.559   1.989  0.1621  0.0093 -0.0665
 2124TIP3    H127787   4.874   1.547   1.920 -0.5661  0.6101  0.4833
 2124TIP3    H227788   5.017   1.590   1.943 -0.4484  0.8406 -0.5964
 2125TIP3   OH227789   6.310   1.319  15.989  0.1470  0.3523  0.0351
 2125TIP3    H127790   6.258   1.281  16.060  0.0089 -0.7362 -0.6220
 2125TIP3    H227791   6.340   1.244  15.939  0.3753  1.0959 -0.9739
 2126TIP3   OH227792   5.891   6.403  16.165 -0.1701  0.3147  0.3050
 2126TIP3    H127793   5.928   6.360  16.088  0.2412  0.7250  0.2763
 2126TIP3    H227794   5.805   6.361  16.176 -0.0388 -0.0680 -0.0995
 2127TIP3   OH227795   0.080   5.068   1.259 -0.2380 -0.4819  0.8238
 2127TIP3    H127796   0.019   5.006   1.219 -0.0947  0.1853 -0.4870
 2127TIP3    H227797   0.161   5.059   1.208 -0.5080  1.4077 -0.0547
 2128TIP3   OH227798   5.483   6.133   2.313  0.3145  0.0518 -0.0594
 2128TIP3    H127799   5.407   6.176   2.353 -0.8008  1.2243 -3.1633
 2128TIP3    H227800   5.478   6.043   2.345 -1.3212  0.5534  1.2451
 2129TIP3   OH227801   0.307   3.472  16.184 -0.2493 -0.2437  0.3349
 2129TIP3    H127802   0.311   3.393  16.238  0.7748  0.5068  1.3910
 2129TIP3    H227803   0.295   3.439  16.095 -1.9068 -1.5112  0.9699
 2130TIP3   OH227804   0.678   1.060  16.324  0.5606 -0.6363 -0.2425
 2130TIP3    H127805   0.708   1.148  16.348  0.3203 -1.3682  3.3065
 2130TIP3    H227806   0.603   1.075  16.266  0.6904  1.4812  0.0704
 2131TIP3   OH227807   3.642   1.050   0.136  0.0549 -0.0697  0.0367
 2131TIP3    H127808   3.630   0.955   0.140 -0.7557  0.0349  0.1471
 2131TIP3    H227809   3.634   1.079   0.226  1.7927 -0.0555  0.2142
 2132TIP3   OH227810   4.946   6.226   3.256 -0.1528 -0.3944  0.2042
 2132TIP3    H127811   4.986   6.278   3.326 -0.2663 -0.3744  0.2546
 2132TIP3    H227812   4.974   6.136   3.274  0.2477 -0.3170 -0.0260
 2133TIP3   OH227813   0.399   0.153  13.568 -0.9032 -0.0151  0.2161
 2133TIP3    H127814   0.329   0.210  13.537 -1.0124 -0.2270  0.0683
 2133TIP3    H227815   0.441   0.202  13.638  1.2906  1.8397 -2.1671
 2134TIP3   OH227816   4.139   1.014   1.903 -0.7585 -0.1439 -0.2638
 2134TIP3    H127817   4.161   1.010   1.996  0.4603 -0.3314 -0.5423
 2134TIP3    H227818   4.224   1.017   1.859 -1.3267  1.3131 -1.3163
 2135TIP3   OH227819   6.262   1.255   4.563 -0.1885 -0.4183  0.1498
 2135TIP3    H127820   6.228   1.342   4.583  0.6621  0.5009 -2.0599
 2135TIP3    H227821   6.338   1.245   4.620  0.4091  0.8064 -0.4117
 2136TIP3   OH227822   6.384   5.984  12.042 -0.2975 -0.4029  0.1103
 2136TIP3    H127823   6.445   5.930  12.091 -1.1934 -0.8096  0.7903
 2136TIP3    H227824   6.440   6.034  11.982  0.9139  0.6475  2.0030
 2137TIP3   OH227825   5.837   3.912   6.054 -0.0833 -0.4636  0.3510
 2137TIP3    H127826   5.841   3.893   5.961 -0.6458 -0.4824  0.3265
 2137TIP3    H227827   5.750   3.882   6.081 -0.6873  1.2824  0.4807
 2138TIP3   OH227828   6.192   6.384   5.656  0.2965 -0.3048  0.0196
 2138TIP3    H127829   6.230   6.464   5.694 -0.8234 -0.4536  1.5625
 2138TIP3    H227830   6.255   6.315   5.680 -0.2251 -0.3416  1.4018
 2139TIP3   OH227831   2.231   4.185  15.651 -0.1673  0.4275 -0.2846
 2139TIP3    H127832   2.220   4.090  15.651  1.1080  0.2501 -1.4030
 2139TIP3    H227833   2.234   4.210  15.559 -2.0134  1.7958 -0.0446
 2140TIP3   OH227834   6.622   5.749  15.122  0.2022 -0.1194 -0.2519
 2140TIP3    H127835   6.540   5.768  15.076 -0.5219  1.1063  1.4128
 2140TIP3    H227836   6.601   5.763  15.215  1.3782 -3.1443  0.5927
 2141TIP3   OH227837   4.792   5.624   0.843 -0.4533 -0.3149  0.3334
 2141TIP3    H127838   4.846   5.675   0.903 -1.0980 -0.9754  1.5040
 2141TIP3    H227839   4.854   5.566   0.799 -0.0488 -0.2144  0.7655
 2142TIP3   OH227840   4.302   4.643   1.520 -0.6417  0.1610 -0.4209
 2142TIP3    H127841   4.366   4.638   1.448 -0.1988 -1.2858  0.0527
 2142TIP3    H227842   4.286   4.737   1.529  1.6471  0.6242 -0.3686
 2143TIP3   OH227843   5.314   1.569   0.658 -0.0744 -0.3952  0.0634
 2143TIP3    H127844   5.372   1.513   0.607  2.8093  2.3643 -0.0571
 2143TIP3    H227845   5.247   1.598   0.597  0.7543 -0.5693 -0.9494
 2144TIP3   OH227846   5.021   3.588  11.690  0.2914 -0.1116 -0.0691
 2144TIP3    H127847   5.087   3.644  11.730 -1.6131  0.5027  2.4482
 2144TIP3    H227848   5.035   3.502  11.730  0.2274 -0.2513 -0.3417
 2145TIP3   OH227849   5.561   4.138  15.327 -0.1413  0.7659 -0.3204
 2145TIP3    H127850   5.499   4.084  15.278 -0.2663  0.3923  0.2444
 2145TIP3    H227851   5.582   4.210  15.267 -3.7265  2.8352  0.6349
 2146TIP3   OH227852   0.096   0.997  15.356 -0.1105  0.0560 -0.5329
 2146TIP3    H127853   0.033   0.939  15.399 -0.8130 -1.9978 -3.9296
 2146TIP3    H227854   0.048   1.077  15.338 -0.8460 -0.3531 -0.4248
 2147TIP3   OH227855   4.823   5.381  16.206  0.0517 -0.2347 -0.2515
 2147TIP3    H127856   4.830   5.462  16.256 -0.3162  0.1613 -0.8302
 2147TIP3    H227857   4.909   5.340  16.214 -0.0525 -0.2735  0.8436
 2148TIP3   OH227858   1.660   1.764   3.762 -0.0722  1.3112 -0.4133
 2148TIP3    H127859   1.746   1.802   3.742  1.2294 -1.2450 -0.1389
 2148TIP3    H227860   1.619   1.749   3.677  1.0591 -0.1069 -0.7548
 2149TIP3   OH227861   2.360   3.974  16.378 -0.1435 -0.1749  0.4568
 2149TIP3    H127862   2.391   4.037  16.443  0.2548 -1.5018  1.5782
 2149TIP3    H227863   2.363   3.889  16.422 -0.9722 -0.9613 -0.9195
 2150TIP3   OH227864   3.741   6.541  15.030 -0.6013  0.1571 -1.0072
 2150TIP3    H127865   3.709   6.470  14.974  1.2077 -1.4050 -0.1937
 2150TIP3    H227866   3.805   6.499  15.088 -2.7342  1.4875  2.7051
 2151TIP3   OH227867   2.961   5.536  16.365 -0.1077 -0.1623  0.6150
 2151TIP3    H127868   2.946   5.527  16.271  1.4227  1.1226  0.2115
 2151TIP3    H227869   2.988   5.449  16.393  0.2751 -0.3579 -0.3193
 2152TIP3   OH227870   2.872   6.336   5.399 -0.2797  0.1082 -0.3063
 2152TIP3    H127871   2.839   6.416   5.441 -0.5566  0.2610 -0.7996
 2152TIP3    H227872   2.815   6.266   5.432 -0.4027  0.2049 -0.3116
 2153TIP3   OH227873   2.908   6.535  14.249  0.0706  0.2342 -0.4249
 2153TIP3    H127874   3.001   6.559  14.241  0.8791 -2.8268 -1.4121
 2153TIP3    H227875   2.877   6.529  14.159  0.0699 -2.5627 -0.3131
 2154TIP3   OH227876   1.496   3.259  16.681  0.0296  0.3972 -0.4124
 2154TIP3    H127877   1.401   3.260  16.669  0.1304  0.6577 -1.2536
 2154TIP3    H227878   1.523   3.171  16.657 -0.2274 -0.3900  1.9229
 2155TIP3   OH227879   4.729   0.324  10.982 -0.5428 -0.3828 -0.8485
 2155TIP3    H127880   4.708   0.346  11.073  0.7249 -0.4056 -0.5368
 2155TIP3    H227881   4.644   0.302  10.943 -1.1279 -0.2042  0.2775
 2156TIP3   OH227882   4.941   4.724   2.477  0.4731  0.0916 -0.1091
 2156TIP3    H127883   4.864   4.698   2.527  1.0163 -0.8458  0.2601
 2156TIP3    H227884   5.013   4.716   2.539  0.9180  0.6431 -0.5469
 2157TIP3   OH227885   6.307   2.190   4.731  0.5077  0.0579  0.1231
 2157TIP3    H127886   6.355   2.243   4.667  0.7740  0.8119  0.9375
 2157TIP3    H227887   6.362   2.112   4.744  0.6724  0.1158 -0.2149
 2158TIP3   OH227888   0.373   3.099  12.207  0.2264 -0.2078 -0.1856
 2158TIP3    H127889   0.466   3.122  12.201  0.0265  0.3324 -2.7173
 2158TIP3    H227890   0.348   3.078  12.117 -1.6647 -2.3111  0.7371
 2159TIP3   OH227891   3.187   5.601   0.558  0.1871 -0.6205  0.7301
 2159TIP3    H127892   3.134   5.574   0.482 -0.4904  0.1252  0.9211
 2159TIP3    H227893   3.267   5.550   0.551  0.9757  0.7898 -1.5734
 2160TIP3   OH227894   4.469   4.574  15.623  0.3320 -0.0967 -0.0115
 2160TIP3    H127895   4.468   4.670  15.631  2.8624 -0.0593  0.4963
 2160TIP3    H227896   4.445   4.543  15.711 -0.9792  0.0144 -0.3018
 2161TIP3   OH227897   1.582   0.815  15.329 -0.7219  0.1008  0.2766
 2161TIP3    H127898   1.504   0.824  15.384 -1.3894  0.2345 -0.6865
 2161TIP3    H227899   1.549   0.788  15.244  0.2426  0.6240 -0.2791
 2162TIP3   OH227900   1.398   3.738   1.682  0.0642  0.3402  0.4996
 2162TIP3    H127901   1.447   3.735   1.764  0.2748  0.6892  0.3875
 2162TIP3    H227902   1.463   3.761   1.616  0.1583 -1.1753  0.0201
 2163TIP3   OH227903   4.963   5.414   2.728  0.3554  0.8986 -0.1490
 2163TIP3    H127904   4.984   5.485   2.668  0.6029  0.9296 -0.0264
 2163TIP3    H227905   4.960   5.336   2.673  0.7862  0.8946 -0.1681
 2164TIP3   OH227906   3.222   5.344  12.211  0.0352  0.0924 -0.0447
 2164TIP3    H127907   3.134   5.358  12.247 -0.0784  2.3156 -1.0430
 2164TIP3    H227908   3.276   5.326  12.288 -1.0110  0.1419  0.7382
 2165TIP3   OH227909   5.409   2.498  15.872 -0.2613  0.5623 -0.4595
 2165TIP3    H127910   5.374   2.587  15.868 -0.9403  0.3638  0.6313
 2165TIP3    H227911   5.436   2.479  15.782 -0.1167  1.8584 -0.7126
 2166TIP3   OH227912   2.610   5.744  11.560 -0.5816  0.1584  0.2053
 2166TIP3    H127913   2.671   5.687  11.607 -1.3303 -0.3542  0.5786
 2166TIP3    H227914   2.531   5.690  11.548 -0.0240 -0.1733 -2.7350
 2167TIP3   OH227915   2.982   2.764  12.742  0.0945 -0.1705 -0.2668
 2167TIP3    H127916   3.034   2.794  12.816  0.9926 -2.2622  0.0225
 2167TIP3    H227917   2.892   2.786  12.766  0.5350  0.7038  0.6522
 2168TIP3   OH227918   0.024   5.295   3.430  0.2450 -1.0394 -0.2886
 2168TIP3    H127919   0.108   5.282   3.387  1.0713 -0.3177  1.0547
 2168TIP3    H227920   0.046   5.319   3.520 -1.3506  0.9156 -0.3537
 2169TIP3   OH227921   2.489   0.360   2.200  0.1547 -0.2158  0.0011
 2169TIP3    H127922   2.491   0.267   2.223  0.1191  0.1412  1.5846
 2169TIP3    H227923   2.537   0.366   2.118  0.2455 -1.6209 -0.0649
 2170TIP3   OH227924   3.119   2.850  15.423  0.1948 -0.1513 -0.2143
 2170TIP3    H127925   3.069   2.773  15.398  0.8141 -0.8049  0.5268
 2170TIP3    H227926   3.053   2.917  15.440 -0.3086 -0.1703 -1.9034
 2171TIP3   OH227927   4.613   1.680   1.836 -0.5240  0.6986 -0.6170
 2171TIP3    H127928   4.605   1.700   1.930  0.0573  0.2838 -0.4738
 2171TIP3    H227929   4.547   1.612   1.821  0.3692 -0.2941 -0.1782
 2172TIP3   OH227930   6.417   5.017  12.000 -0.2702 -0.3391 -0.4405
 2172TIP3    H127931   6.451   4.944  12.052  2.1166 -1.6035 -3.3851
 2172TIP3    H227932   6.363   4.975  11.933 -2.1826  1.0705  0.1551
 2173TIP3   OH227933   2.145   4.738   5.104  0.8699 -0.3838  0.0443
 2173TIP3    H127934   2.053   4.752   5.081  1.0030  1.2551  0.3276
 2173TIP3    H227935   2.177   4.826   5.126  2.1188 -1.1252  1.3567
 2174TIP3   OH227936   2.619   6.260  15.463  0.7966  0.6746  0.5357
 2174TIP3    H127937   2.599   6.224  15.549  1.0934 -0.4536  0.1589
 2174TIP3    H227938   2.546   6.317  15.443 -0.1716 -0.4449  0.7765
 2175TIP3   OH227939   4.143   1.779  11.905  0.0431  0.2632 -0.1168
 2175TIP3    H127940   4.172   1.843  11.971 -1.0717  0.5747  0.1032
 2175TIP3    H227941   4.088   1.830  11.846  0.1536 -0.2488 -0.6678
 2176TIP3   OH227942   0.883   4.374   2.677 -0.1280  0.0353 -0.2589
 2176TIP3    H127943   0.940   4.337   2.744 -0.5684 -0.5350 -0.1942
 2176TIP3    H227944   0.938   4.437   2.630  0.5279 -0.4621 -0.1562
 2177TIP3   OH227945   4.383   2.453  11.338 -0.2418 -0.1883 -0.0739
 2177TIP3    H127946   4.409   2.399  11.412 -0.4749 -0.3372 -0.1033
 2177TIP3    H227947   4.465   2.469  11.291 -0.1064 -0.1597  0.1696
 2178TIP3   OH227948   3.516   4.016   5.745  0.0809 -0.1529  0.7027
 2178TIP3    H127949   3.442   3.960   5.769 -0.1336 -0.6429 -1.0104
 2178TIP3    H227950   3.593   3.963   5.767 -0.0986 -1.9913 -2.5441
 2179TIP3   OH227951   1.152   4.739  14.776 -0.5093 -0.2214 -0.1413
 2179TIP3    H127952   1.184   4.703  14.859  0.6452 -1.3830 -1.0443
 2179TIP3    H227953   1.232   4.769  14.731 -1.2100  1.2642 -0.4604
 2180TIP3   OH227954   0.838   1.210   1.586  0.4606 -0.5472  0.0864
 2180TIP3    H127955   0.755   1.211   1.634  0.2071 -5.0036  0.1479
 2180TIP3    H227956   0.905   1.217   1.653  0.2226  1.4061  0.1858
 2181TIP3   OH227957   2.837   2.556   1.384 -0.8121  0.1849 -0.3860
 2181TIP3    H127958   2.844   2.476   1.332 -0.6059  1.7104 -2.8849
 2181TIP3    H227959   2.748   2.587   1.366 -0.8290  0.6005  0.4088
 2182TIP3   OH227960   3.353   5.492  16.934  0.1699  0.3920 -0.8363
 2182TIP3    H127961   3.387   5.444  16.860  0.5043 -1.1343  0.2540
 2182TIP3    H227962   3.261   5.466  16.939  0.6238 -1.1908  0.4617
 2183TIP3   OH227963   0.527   0.240  16.692  0.2680  0.1927  0.9936
 2183TIP3    H127964   0.588   0.295  16.742 -0.5393  0.6253  1.5302
 2183TIP3    H227965   0.550   0.150  16.717  3.5411 -0.0423 -2.0624
 2184TIP3   OH227966   2.041   2.006   0.489  0.1905 -0.3481 -0.3158
 2184TIP3    H127967   2.033   1.955   0.409 -0.1887 -0.1644 -0.4024
 2184TIP3    H227968   2.106   1.960   0.541 -1.2442 -1.8196  0.2806
 2185TIP3   OH227969   3.407   4.824   5.918 -1.2692 -0.8651  0.1659
 2185TIP3    H127970   3.354   4.745   5.932 -4.1622  1.1365  1.5344
 2185TIP3    H227971   3.360   4.872   5.850  0.2282 -0.1409 -0.3747
 2186TIP3   OH227972   2.200   5.289   4.606 -0.2987 -0.1062  0.1087
 2186TIP3    H127973   2.111   5.265   4.631 -0.8400  0.3763 -1.2550
 2186TIP3    H227974   2.213   5.375   4.647  0.5158 -1.2392  2.4178
 2187TIP3   OH227975   1.017   3.640  12.925 -0.3554 -0.2163 -0.0721
 2187TIP3    H127976   0.978   3.578  12.864  2.0062 -2.5546  0.6182
 2187TIP3    H227977   1.018   3.593  13.009  1.2920  0.8131  0.5299
 2188TIP3   OH227978   3.513   4.006  16.872 -0.3386  0.1942  0.4711
 2188TIP3    H127979   3.597   3.975  16.837 -0.2429 -0.0055  0.8698
 2188TIP3    H227980   3.536   4.067  16.941 -0.5252  0.3479  0.3978
 2189TIP3   OH227981   3.263   1.485   3.195  0.5751 -0.0526  0.1087
 2189TIP3    H127982   3.199   1.421   3.227 -0.4836  1.0921  0.3748
 2189TIP3    H227983   3.231   1.508   3.107  1.4375 -0.5235 -0.3332
 2190TIP3   OH227984   1.865   3.291  15.528 -0.3566 -0.5068  0.5810
 2190TIP3    H127985   1.788   3.318  15.478 -0.9585 -1.1373  1.1608
 2190TIP3    H227986   1.868   3.351  15.602 -0.5248 -0.7430  0.7791
 2191TIP3   OH227987   3.327   1.228  16.594  0.6275 -0.0341  0.3011
 2191TIP3    H127988   3.409   1.251  16.549 -0.7818 -0.7774 -2.9408
 2191TIP3    H227989   3.281   1.311  16.605 -0.1249 -0.0475 -2.2022
 2192TIP3   OH227990   2.695   0.131   4.015  0.8353  0.1068  0.8192
 2192TIP3    H127991   2.681   0.190   3.941  1.4466 -0.6186  0.1101
 2192TIP3    H227992   2.771   0.168   4.061  0.0368  0.9490  1.5144
 2193TIP3   OH227993   6.698   4.420  13.388  0.2593  0.6049  0.3150
 2193TIP3    H127994   6.746   4.366  13.451 -1.0796  0.9954  1.7123
 2193TIP3    H227995   6.659   4.357  13.328  0.5380  0.1606  0.5925
 2194TIP3   OH227996   1.761   5.157  13.576  0.6089  0.8083  0.4724
 2194TIP3    H127997   1.676   5.117  13.593  0.0769  0.9196 -1.6321
 2194TIP3    H227998   1.787   5.124  13.490  1.7367  2.3449  0.1638
 2195TIP3   OH227999   4.207   1.328   3.035 -0.5961 -0.1586  0.0031
 2195TIP3    H128000   4.249   1.316   2.951 -0.4966 -1.2233  0.1931
 2195TIP3    H228001   4.279   1.340   3.097 -0.6890  1.9925 -0.2246
 2196TIP3   OH228002   5.763   5.190   3.550 -0.5835  0.1492 -0.3099
 2196TIP3    H128003   5.764   5.285   3.541  0.3979  0.1036 -0.8889
 2196TIP3    H228004   5.832   5.172   3.614  1.0532 -0.2914 -2.0795
 2197TIP3   OH228005   1.049   6.383  12.931  0.2974 -0.3182 -0.0713
 2197TIP3    H128006   1.144   6.391  12.929  0.3561 -1.1687 -2.2674
 2197TIP3    H228007   1.030   6.347  13.018  1.8536  0.8614  0.8142
 2198TIP3   OH228008   4.907   0.306   1.888  0.2169  0.2016 -0.2806
 2198TIP3    H128009   4.967   0.365   1.934  1.3167 -0.5393 -0.7016
 2198TIP3    H228010   4.927   0.321   1.795  1.3796 -1.6257 -0.3844
 2199TIP3   OH228011   4.441   2.911  12.579  0.5566 -0.0495  0.0734
 2199TIP3    H128012   4.461   2.889  12.488 -1.5536  2.1573 -1.0314
 2199TIP3    H228013   4.519   2.958  12.610  0.9209  0.0130 -0.9049
 2200TIP3   OH228014   1.725   2.595  16.537 -0.4924  0.0651 -0.3330
 2200TIP3    H128015   1.790   2.626  16.474 -0.1432 -1.1177 -0.5803
 2200TIP3    H228016   1.760   2.511  16.569 -2.3799 -1.1618 -1.3039
 2201TIP3   OH228017   0.768   3.851   0.665  0.0085  0.1796 -0.6120
 2201TIP3    H128018   0.712   3.812   0.732  1.0624  1.1796  0.8877
 2201TIP3    H228019   0.763   3.945   0.681  0.5215  0.4138 -1.7514
 2202TIP3   OH228020   3.432   4.884  14.567  0.1947  0.1490  0.3026
 2202TIP3    H128021   3.340   4.907  14.556  0.1790  2.4908  3.6127
 2202TIP3    H228022   3.473   4.965  14.598  2.4798 -1.7886  2.8340
 2203TIP3   OH228023   2.216   5.577   0.102 -0.2467 -0.2600  0.1169
 2203TIP3    H128024   2.186   5.616   0.020 -0.0689 -0.0615  0.1433
 2203TIP3    H228025   2.139   5.533   0.138 -0.2593 -0.5738 -0.2884
 2204TIP3   OH228026   3.269   4.187   5.669 -0.1832  0.2641 -0.2667
 2204TIP3    H128027   3.357   4.149   5.677 -0.7644 -0.7666  1.8522
 2204TIP3    H228028   3.283   4.281   5.670  0.8594  0.1133  0.6291
 2205TIP3   OH228029   0.485   2.809  15.762 -0.6184  0.6005 -0.4804
 2205TIP3    H128030   0.459   2.895  15.795 -1.1430 -0.0673  0.9041
 2205TIP3    H228031   0.403   2.771  15.730 -0.6326  0.1123  0.1161
 2206TIP3   OH228032   5.533   6.038   6.018 -0.5170 -0.0307  0.1147
 2206TIP3    H128033   5.485   5.985   5.954 -2.3743  0.7533  0.8167
 2206TIP3    H228034   5.490   6.123   6.017 -0.3339  0.1379  2.1203
 2207TIP3   OH228035   5.537   0.490   3.003  0.7291  0.1573  0.0900
 2207TIP3    H128036   5.473   0.558   2.983 -0.1406 -0.5295  0.4735
 2207TIP3    H228037   5.613   0.538   3.036  0.7091  1.0350 -1.0645
 2208TIP3   OH228038   2.787   2.087  13.164  0.1648 -0.2952 -0.2858
 2208TIP3    H128039   2.873   2.105  13.125  0.1368  0.8921  0.1699
 2208TIP3    H228040   2.725   2.101  13.092  0.0563  2.5074  0.2219
 2209TIP3   OH228041   5.479   3.509   0.566 -0.1519  0.5117 -0.1599
 2209TIP3    H128042   5.481   3.414   0.579 -1.6001 -0.0756 -3.3394
 2209TIP3    H228043   5.398   3.537   0.608  0.0827  0.3080  0.4438
 2210TIP3   OH228044   2.166   5.483  16.721 -0.1880 -0.2687 -0.0563
 2210TIP3    H128045   2.155   5.578  16.730  0.0450 -0.1026 -1.3720
 2210TIP3    H228046   2.077   5.448  16.731 -0.4488  0.1931 -0.7399
 2211TIP3   OH228047   4.503   3.544  13.308  0.1360 -0.0564  0.1750
 2211TIP3    H128048   4.471   3.634  13.306 -2.4503 -0.9063 -1.8799
 2211TIP3    H228049   4.488   3.516  13.398 -0.1832  1.1936  0.5333
 2212TIP3   OH228050   1.810   4.031  11.582  0.0223 -0.5933 -0.0843
 2212TIP3    H128051   1.904   4.051  11.579  0.4250 -2.2288  0.1406
 2212TIP3    H228052   1.805   3.951  11.635 -1.5171 -0.4922 -0.0367
 2213TIP3   OH228053   4.461   5.439   2.032  0.1188  0.2495  0.0763
 2213TIP3    H128054   4.448   5.473   1.943  1.8347  1.6406  0.2788
 2213TIP3    H228055   4.514   5.361   2.021 -1.4098 -0.7725 -0.2234
 2214TIP3   OH228056   5.073   4.639   3.240  0.0028 -0.0041  0.2436
 2214TIP3    H128057   5.127   4.586   3.299  0.4716  1.1229  0.8484
 2214TIP3    H228058   5.063   4.723   3.285 -1.0730  0.2918 -0.5100
 2215TIP3   OH228059   5.753   3.668  16.084  0.4947 -0.3440  0.1495
 2215TIP3    H128060   5.664   3.639  16.065  0.9912 -2.5918  0.8522
 2215TIP3    H228061   5.785   3.705  16.002 -0.0206 -2.5278 -1.1177
 2216TIP3   OH228062   3.916   4.365  14.250  0.1729  0.2359 -0.0401
 2216TIP3    H128063   3.841   4.419  14.275  0.2933 -0.3136  1.6617
 2216TIP3    H228064   3.935   4.313  14.329 -0.1469 -2.5418 -1.6360
 2217TIP3   OH228065   4.725   4.054  12.608  0.2184 -0.3293  0.3486
 2217TIP3    H128066   4.733   3.958  12.608  0.3799 -0.3704  2.8958
 2217TIP3    H228067   4.631   4.070  12.614  0.1341 -0.2837 -0.8466
 2218TIP3   OH228068   5.916   5.731  12.397  0.1271  0.8102 -0.2070
 2218TIP3    H128069   5.950   5.801  12.342  2.3651 -0.0620 -0.0451
 2218TIP3    H228070   5.982   5.721  12.466 -0.3812 -1.1114  0.0535
 2219TIP3   OH228071   3.718   4.727   2.220  0.0583  0.2576 -0.3077
 2219TIP3    H128072   3.808   4.708   2.191 -0.1255 -1.5591  0.1847
 2219TIP3    H228073   3.685   4.642   2.250 -1.3350  1.1814  0.8554
 2220TIP3   OH228074   3.720   0.723   0.562  0.5375 -0.1413  0.5299
 2220TIP3    H128075   3.647   0.782   0.580  1.7769  1.4701  0.5522
 2220TIP3    H228076   3.738   0.734   0.469 -0.4717 -2.0401  0.0707
 2221TIP3   OH228077   6.213   2.208  13.148  0.3222  0.1070 -0.1696
 2221TIP3    H128078   6.143   2.145  13.129  0.5343  0.3787 -2.0733
 2221TIP3    H228079   6.172   2.293  13.133  0.5233  0.3606  0.6772
 2222TIP3   OH228080   6.553   5.250   0.992 -0.1146  0.0517  0.0936
 2222TIP3    H128081   6.555   5.186   1.063  0.2955  0.5522  0.5408
 2222TIP3    H228082   6.462   5.277   0.986 -0.2132 -0.2581  0.1834
 2223TIP3   OH228083   1.451   0.644  11.233 -0.0636  0.3854  0.3277
 2223TIP3    H128084   1.467   0.714  11.297  0.0419 -0.0776  0.8164
 2223TIP3    H228085   1.419   0.689  11.155 -0.5636  0.9258  0.8398
 2224TIP3   OH228086   2.023   4.251   1.634 -0.1892 -0.2947 -0.7049
 2224TIP3    H128087   2.103   4.207   1.608 -0.1298  0.1637 -1.3019
 2224TIP3    H228088   2.052   4.329   1.680 -0.2924 -1.0184  0.6493
 2225TIP3   OH228089   2.244   0.980   4.909  0.1187  0.4639  0.7983
 2225TIP3    H128090   2.297   1.054   4.880  0.4623 -0.4913 -1.2227
 2225TIP3    H228091   2.304   0.924   4.957  0.1939  0.8285  1.1318
 2226TIP3   OH228092   2.633   3.944  11.809  0.1935  0.4433  0.2526
 2226TIP3    H128093   2.645   3.851  11.795 -0.1189  0.1169  1.9305
 2226TIP3    H228094   2.640   3.956  11.903 -0.7343  1.9640  0.1802
 2227TIP3   OH228095   1.927   6.153   5.569  0.6274 -0.0135  0.4888
 2227TIP3    H128096   1.858   6.216   5.549  1.1732  0.6563  0.6702
 2227TIP3    H228097   1.892   6.101   5.641  0.3767  0.4364  0.6948
 2228TIP3   OH228098   5.827   2.421   4.096 -0.4893 -0.1613  0.2932
 2228TIP3    H128099   5.810   2.371   4.176  0.6753 -0.2732  0.4915
 2228TIP3    H228100   5.841   2.354   4.029 -0.7493 -0.0744  0.1497
 2229TIP3   OH228101   6.329   3.114   4.387  0.5284 -0.0873 -0.3044
 2229TIP3    H128102   6.255   3.171   4.406  0.1942 -0.4310 -0.5645
 2229TIP3    H228103   6.291   3.039   4.343  0.9156 -0.6869  0.3577
 2230TIP3   OH228104   2.603   6.065   0.382  0.0210  0.4081  0.7016
 2230TIP3    H128105   2.624   6.072   0.289 -1.1061  0.9210  0.4711
 2230TIP3    H228106   2.598   6.155   0.413  2.4186  0.2334  1.7683
 2231TIP3   OH228107   5.483   5.025  14.609  0.5716  0.5962 -0.1030
 2231TIP3    H128108   5.440   4.949  14.647 -3.5762  2.5579 -0.3133
 2231TIP3    H228109   5.524   4.992  14.529 -1.7632 -1.3370 -0.6180
 2232TIP3   OH228110   3.775   0.887   4.748 -0.2308  0.1305  0.0309
 2232TIP3    H128111   3.719   0.925   4.816 -1.0806 -0.4777 -0.3145
 2232TIP3    H228112   3.715   0.871   4.675  0.6881  0.8896 -0.9180
 2233TIP3   OH228113   2.685   1.768   1.686 -0.9249  0.1304  0.0500
 2233TIP3    H128114   2.603   1.752   1.733 -1.8064  0.8426 -1.1929
 2233TIP3    H228115   2.720   1.680   1.670 -0.6106 -0.1447  1.9355
 2234TIP3   OH228116   3.414   0.597  16.005 -0.4279 -0.4068 -0.1246
 2234TIP3    H128117   3.382   0.586  15.915  0.8896  0.9165 -0.7992
 2234TIP3    H228118   3.507   0.574  16.000 -0.2852 -0.0684  0.8534
 2235TIP3   OH228119   1.690   5.243   0.775  0.1555  0.3447 -0.2541
 2235TIP3    H128120   1.598   5.221   0.763  0.4806 -0.9731 -0.5362
 2235TIP3    H228121   1.725   5.249   0.686  0.2428  1.3010 -0.1585
 2236TIP3   OH228122   4.387   2.589  16.178  0.0703  0.2331  0.5716
 2236TIP3    H128123   4.385   2.586  16.082 -0.0071  0.7051  0.5510
 2236TIP3    H228124   4.471   2.631  16.198  0.5785 -0.8536  0.7490
 2237TIP3   OH228125   2.238   6.086   4.923  0.4050  0.0221  0.4154
 2237TIP3    H128126   2.314   6.027   4.920  0.6116  0.3223 -0.7721
 2237TIP3    H228127   2.181   6.048   4.990  1.9390  0.2363  1.9193
 2238TIP3   OH228128   4.633   4.131  13.477  0.0961  0.5486 -0.0178
 2238TIP3    H128129   4.612   4.059  13.417 -2.2563  0.4815  0.7656
 2238TIP3    H228130   4.727   4.124  13.491  0.2854 -1.0000 -1.6884
 2239TIP3   OH228131   3.977   1.529  14.503 -0.1431 -0.3419  0.7491
 2239TIP3    H128132   3.976   1.614  14.460  0.8695 -0.4561  0.4665
 2239TIP3    H228133   4.070   1.509  14.514 -0.3783 -1.0316  1.5695
 2240TIP3   OH228134   3.896   3.899   3.237  0.1168  0.5086 -0.1100
 2240TIP3    H128135   3.808   3.883   3.204  0.5803  0.6500 -1.5004
 2240TIP3    H228136   3.952   3.892   3.160  0.9390  3.8573  0.0218
 2241TIP3   OH228137   5.500   4.600   0.277  0.3859  0.0219 -0.0251
 2241TIP3    H128138   5.582   4.600   0.228  0.3901 -1.0606 -0.0214
 2241TIP3    H228139   5.517   4.546   0.354 -0.2543  0.0137  0.1172
 2242TIP3   OH228140   1.940   0.251  12.517 -0.4893  0.2517 -0.1046
 2242TIP3    H128141   1.927   0.240  12.611  0.2612 -1.7628 -0.1800
 2242TIP3    H228142   2.028   0.290  12.509 -0.6323  0.6061  0.0179
 2243TIP3   OH228143   3.956   4.489  11.209 -0.1266 -0.1107 -0.4682
 2243TIP3    H128144   3.974   4.413  11.154  1.6260 -0.3312  0.3446
 2243TIP3    H228145   4.036   4.542  11.203  0.1770 -0.2184  1.9636
 2244TIP3   OH228146   4.285   0.269  11.338 -0.3350 -0.0103 -0.5918
 2244TIP3    H128147   4.254   0.216  11.412 -0.0651 -0.3618 -0.7312
 2244TIP3    H228148   4.302   0.206  11.269 -1.1331  0.3675 -1.1538
 2245TIP3   OH228149   3.713   5.093   1.494 -0.2163 -0.3380  0.5158
 2245TIP3    H128150   3.776   5.129   1.556 -2.0930 -2.8303  4.3045
 2245TIP3    H228151   3.763   5.029   1.443  0.5720 -2.1464  3.3157
 2246TIP3   OH228152   2.549   4.791  16.487 -0.0820  0.1914 -0.5188
 2246TIP3    H128153   2.492   4.740  16.544 -2.0888  2.5058 -0.2928
 2246TIP3    H228154   2.617   4.824  16.545  0.5037 -1.1249 -0.4239
 2247TIP3   OH228155   1.674   2.476  10.763  0.1666  0.0311  0.1089
 2247TIP3    H128156   1.667   2.497  10.670 -1.1992 -1.5842 -0.1948
 2247TIP3    H228157   1.597   2.515  10.803 -1.2933 -2.3974 -0.1268
 2248TIP3   OH228158   0.354   5.157   2.549  0.0737  0.2963  0.3926
 2248TIP3    H128159   0.380   5.247   2.569  1.7156 -0.5576  2.4158
 2248TIP3    H228160   0.419   5.102   2.593 -2.1011 -1.9257  1.0859
 2249TIP3   OH228161   0.448   1.986   2.569 -0.1590 -0.2060  0.3551
 2249TIP3    H128162   0.482   1.933   2.497  0.6404  0.9620 -0.1652
 2249TIP3    H228163   0.353   1.976   2.563 -0.1268  0.0100 -1.0014
 2250TIP3   OH228164   1.665   1.514   4.247 -0.5063 -0.5222 -0.3030
 2250TIP3    H128165   1.660   1.431   4.198 -1.1028 -1.3688  1.1283
 2250TIP3    H228166   1.577   1.526   4.283 -0.0112 -0.0985  0.8074
 2251TIP3   OH228167   6.281   2.773  15.725  0.2271 -0.3607 -0.4926
 2251TIP3    H128168   6.324   2.758  15.809  0.1843 -0.5659 -0.5056
 2251TIP3    H228169   6.305   2.696  15.672 -0.7372 -0.8365 -0.2611
 2252TIP3   OH228170   1.011   1.164   3.061  0.1305 -0.1858  0.3247
 2252TIP3    H128171   0.996   1.113   3.141  0.6782 -2.9045 -1.2074
 2252TIP3    H228172   0.924   1.194   3.035 -0.3338 -1.0975  0.7996
 2253TIP3   OH228173   5.229   4.250  15.470 -0.2148 -0.3402  0.3592
 2253TIP3    H128174   5.233   4.334  15.423 -1.8918  0.4450  1.5387
 2253TIP3    H228175   5.243   4.273  15.562 -2.5961 -1.0276  0.9656
 2254TIP3   OH228176   6.087   2.860  15.993 -0.1100  0.4537  0.6116
 2254TIP3    H128177   6.105   2.933  15.933 -2.5958 -1.2119 -2.4919
 2254TIP3    H228178   6.135   2.786  15.956 -0.6997 -0.3682  1.4496
 2255TIP3   OH228179   4.077   6.031   3.512 -0.1377  0.3278 -0.2829
 2255TIP3    H128180   4.000   5.978   3.534 -1.0681  1.0118 -1.6994
 2255TIP3    H228181   4.096   6.009   3.421 -0.7907  2.6178 -1.0619
 2256TIP3   OH228182   2.242   4.822   5.449  0.1537 -0.3485  0.1224
 2256TIP3    H128183   2.285   4.861   5.525  1.7575  0.0835 -0.9601
 2256TIP3    H228184   2.246   4.890   5.381 -0.1793 -1.1352 -0.7061
 2257TIP3   OH228185   2.380   3.067  16.317  0.9761  0.5117 -0.0132
 2257TIP3    H128186   2.429   3.016  16.253 -0.1076  1.0058 -1.2688
 2257TIP3    H228187   2.441   3.136  16.344  1.0868  0.9603 -1.3529
 2258TIP3   OH228188   0.102   2.645  12.511 -0.6685 -0.2450 -0.4163
 2258TIP3    H128189   0.057   2.722  12.476  2.2338  1.2115 -1.2741
 2258TIP3    H228190   0.102   2.659  12.606 -1.1380  0.2282 -0.4824
 2259TIP3   OH228191   2.329   4.752  13.701  0.7224  0.3549  0.0860
 2259TIP3    H128192   2.349   4.840  13.669  0.2646  0.3291 -0.2918
 2259TIP3    H228193   2.356   4.753  13.793 -1.9536  1.8555  0.9609
 2260TIP3   OH228194   1.125   1.911   2.918 -0.2166  0.0550 -0.3978
 2260TIP3    H128195   1.176   1.891   2.997 -0.9869  0.6555  0.2631
 2260TIP3    H228196   1.088   1.997   2.934 -1.2181 -0.2503 -0.9829
 2261TIP3   OH228197   1.961   0.036   0.759 -0.0914  0.4303 -0.4532
 2261TIP3    H128198   1.891   0.087   0.718 -1.5316 -0.1676  1.1281
 2261TIP3    H228199   1.941  -0.054   0.735  0.5192  0.3172 -0.5256
 2262TIP3   OH228200   0.205   6.050  16.887 -0.6230 -0.1513 -0.2494
 2262TIP3    H128201   0.260   6.057  16.965 -0.8871  0.6539 -0.1224
 2262TIP3    H228202   0.259   6.006  16.822  0.2685  0.8347 -0.2089
 2263TIP3   OH228203   0.010   6.453   1.986  0.2162  0.2200 -0.0319
 2263TIP3    H128204  -0.065   6.500   1.950  0.6321  0.5630 -0.4516
 2263TIP3    H228205   0.055   6.416   1.910 -0.6758 -1.7627  0.3395
 2264TIP3   OH228206   0.280   5.934  11.081 -0.1353  0.6532 -0.0195
 2264TIP3    H128207   0.343   5.866  11.057 -1.2565 -0.1545 -0.7790
 2264TIP3    H228208   0.229   5.948  11.001 -0.6248  1.6116  0.4490
 2265TIP3   OH228209   4.349   5.786   2.805 -0.0063 -0.3927  0.1489
 2265TIP3    H128210   4.412   5.840   2.756 -0.6612  0.7650  0.5251
 2265TIP3    H228211   4.394   5.704   2.820  0.4754 -0.5369 -1.7903
 2266TIP3   OH228212   5.100   1.335   2.616  0.0909 -0.5211 -0.2071
 2266TIP3    H128213   5.039   1.362   2.685 -1.4722  0.7160 -1.9732
 2266TIP3    H228214   5.131   1.249   2.643 -0.3502 -0.0171  2.0846
 2267TIP3   OH228215   6.342   0.422  13.385 -0.3736  0.4670  0.1027
 2267TIP3    H128216   6.333   0.359  13.457  0.0037  2.1612  1.7172
 2267TIP3    H228217   6.263   0.409  13.332  0.4847 -2.4846 -0.6400
 2268TIP3   OH228218   6.274   3.255   5.539 -0.1633 -0.1697 -0.4784
 2268TIP3    H128219   6.296   3.186   5.477  0.8348  0.0752 -0.4209
 2268TIP3    H228220   6.206   3.306   5.496 -0.6626 -0.9754 -0.6662
 2269TIP3   OH228221   5.911   0.457   1.661 -0.0058 -0.6655 -0.1860
 2269TIP3    H128222   5.889   0.409   1.581 -0.8746  1.9096 -1.5965
 2269TIP3    H228223   5.827   0.474   1.702  0.2964 -0.5089  0.3748
 2270TIP3   OH228224   2.821   1.087   5.758 -0.2187 -0.4065 -0.1950
 2270TIP3    H128225   2.834   1.015   5.820  2.7802  0.8523  0.8241
 2270TIP3    H228226   2.791   1.160   5.812 -0.2670 -0.0620 -0.6816
 2271TIP3   OH228227   0.261   1.112  11.082  0.0275  0.3148  0.2833
 2271TIP3    H128228   0.280   1.036  11.137  0.3314  0.0337 -0.2061
 2271TIP3    H228229   0.249   1.077  10.994  2.4062  1.0281 -0.4006
 2272TIP3   OH228230   6.452   0.422  15.809  0.3305  0.3726  0.7436
 2272TIP3    H128231   6.496   0.340  15.833 -0.8910 -0.6628 -0.3977
 2272TIP3    H228232   6.370   0.420  15.858 -0.7549 -0.2589 -0.9910
 2273TIP3   OH228233   3.066   6.623  14.483 -0.4006  0.2345  0.3993
 2273TIP3    H128234   3.045   6.701  14.432 -2.5790 -0.8025 -0.4328
 2273TIP3    H228235   3.138   6.582  14.435  0.1521  1.2464  0.3403
 2274TIP3   OH228236   4.956   2.280  14.122  0.2683 -0.1556  0.3555
 2274TIP3    H128237   5.042   2.293  14.163  1.1909  0.5750 -1.6619
 2274TIP3    H228238   4.898   2.340  14.168  1.2943  0.7717  0.4727
 2275TIP3   OH228239   6.180   5.228  11.733  0.2298  0.6675  0.1595
 2275TIP3    H128240   6.202   5.224  11.826 -0.1463  0.5550  0.2428
 2275TIP3    H228241   6.102   5.283  11.728 -0.0567  0.2576 -0.0333
 2276TIP3   OH228242   4.452   0.453  13.500  0.2645  0.4020 -0.3865
 2276TIP3    H128243   4.359   0.440  13.521  0.3159 -0.7041 -0.7633
 2276TIP3    H228244   4.484   0.365  13.480  2.2142  0.1828  2.9288
 2277TIP3   OH228245   1.784   3.559   6.277  0.0360 -0.3062  0.0635
 2277TIP3    H128246   1.748   3.550   6.365  2.9146 -1.2760  1.2448
 2277TIP3    H228247   1.878   3.544   6.287  0.5557  0.0655 -3.1098
 2278TIP3   OH228248   2.982   0.085   0.079 -0.1356  0.1387 -0.0317
 2278TIP3    H128249   3.008   0.101   0.170 -1.0743  1.6926 -0.0202
 2278TIP3    H228250   3.032   0.148   0.028  2.0449 -2.1118 -0.9176
 2279TIP3   OH228251   5.835   2.441  11.462  0.6900 -0.9968  0.3645
 2279TIP3    H128252   5.854   2.390  11.383 -0.5088 -1.1745  0.1760
 2279TIP3    H228253   5.746   2.474  11.449  1.2252  0.7074  0.7196
 2280TIP3   OH228254   4.876   0.823  13.297 -0.0461  0.1646  0.0250
 2280TIP3    H128255   4.797   0.781  13.263 -1.5171  1.0213  2.1714
 2280TIP3    H228256   4.847   0.909  13.328  1.9805  0.9928 -0.1882
 2281TIP3   OH228257   5.815   1.158  16.901  0.3289  0.1736 -0.2861
 2281TIP3    H128258   5.815   1.065  16.880 -0.5110  0.2300 -0.5718
 2281TIP3    H228259   5.805   1.162  16.996 -1.7115 -0.0136 -0.4686
 2282TIP3   OH228260   1.161   0.197   5.792 -0.0785 -0.0008  0.9500
 2282TIP3    H128261   1.136   0.281   5.831  1.0950  0.8638 -0.0969
 2282TIP3    H228262   1.078   0.156   5.767 -0.5949  2.3992 -1.6907
 2283TIP3   OH228263   3.789   3.819  14.585 -0.1356 -0.6624  0.8514
 2283TIP3    H128264   3.834   3.897  14.616  0.3749 -1.6195  2.6900
 2283TIP3    H228265   3.855   3.769  14.537 -0.6587  0.3399 -0.9933
 2284TIP3   OH228266   2.180   2.626  15.098 -0.4937  0.1089 -0.0909
 2284TIP3    H128267   2.099   2.667  15.126  0.6175  0.9704  2.1030
 2284TIP3    H228268   2.249   2.681  15.136  1.1518 -0.2826 -2.3083
 2285TIP3   OH228269   1.185   4.806  15.836 -0.6801 -0.1089 -0.6567
 2285TIP3    H128270   1.199   4.761  15.753  0.3219 -1.2212  0.0800
 2285TIP3    H228271   1.273   4.819  15.872 -1.1093 -0.0859  0.4401
 2286TIP3   OH228272   4.022   4.295  16.311  0.7462  0.1457 -0.1663
 2286TIP3    H128273   4.065   4.211  16.296 -0.6238 -0.6836  0.3134
 2286TIP3    H228274   3.994   4.292  16.402 -1.4087  0.0731 -0.7604
 2287TIP3   OH228275   5.631   0.758   0.938 -0.4771  0.4294 -0.4663
 2287TIP3    H128276   5.565   0.689   0.939 -0.4020  0.3634 -0.0390
 2287TIP3    H228277   5.710   0.714   0.906 -0.8221  0.6843 -1.7442
 2288TIP3   OH228278   2.600   5.974   3.693 -0.0975 -0.1240  0.0788
 2288TIP3    H128279   2.572   6.064   3.710  2.8255  0.8048  0.4569
 2288TIP3    H228280   2.529   5.937   3.641 -1.6036  2.2337  0.2918
 2289TIP3   OH228281   1.269   6.296  15.158  0.5385 -0.4862  0.3891
 2289TIP3    H128282   1.307   6.260  15.238 -1.0398  0.1506  1.4684
 2289TIP3    H228283   1.268   6.390  15.172 -0.4691 -0.4199 -0.0450
 2290TIP3   OH228284   5.851   6.089   2.435 -0.4527 -0.8843  0.3951
 2290TIP3    H128285   5.872   6.071   2.527  0.4085  0.0195  0.3920
 2290TIP3    H228286   5.775   6.147   2.439 -0.6564 -1.1571  0.5216
 2291TIP3   OH228287   4.376   1.086   5.586  0.1524  0.1537 -0.2676
 2291TIP3    H128288   4.365   1.054   5.675  1.0631  1.9820  0.5474
 2291TIP3    H228289   4.335   1.019   5.531 -2.3767  0.0056  1.6141
 2292TIP3   OH228290   1.425   1.418   2.995  0.4650 -0.0921 -0.2398
 2292TIP3    H128291   1.354   1.380   2.943  0.3632 -0.1908 -0.0266
 2292TIP3    H228292   1.503   1.371   2.965  0.2776 -0.7620  0.3199
 2293TIP3   OH228293   3.376   4.233   4.978 -0.2267 -0.2991 -0.8057
 2293TIP3    H128294   3.404   4.155   4.929  1.5091 -0.4433  0.3226
 2293TIP3    H228295   3.404   4.216   5.068  0.3660  1.7094 -0.5592
 2294TIP3   OH228296   4.420   0.466   3.458 -0.1915 -0.1670  0.1200
 2294TIP3    H128297   4.426   0.527   3.532 -1.1563 -0.6997  0.6554
 2294TIP3    H228298   4.462   0.386   3.490 -1.5404 -0.7551  0.5037
 2295TIP3   OH228299   1.543   2.328   3.700 -0.1490 -0.3013  0.0247
 2295TIP3    H128300   1.475   2.372   3.651 -0.3815 -1.0074 -0.3031
 2295TIP3    H228301   1.617   2.323   3.640 -0.1359 -0.3869  0.0472
 2296TIP3   OH228302   5.707   3.555   3.091  0.1569 -1.1364 -0.3336
 2296TIP3    H128303   5.797   3.579   3.069  0.5662 -0.0363  2.2316
 2296TIP3    H228304   5.706   3.459   3.085  0.6251 -1.0476 -3.2401
 2297TIP3   OH228305   0.138   5.039   2.969 -0.3169 -0.0770  0.1836
 2297TIP3    H128306   0.204   5.082   2.915 -0.0769  2.5878  2.3489
 2297TIP3    H228307   0.167   5.054   3.059 -3.3264  0.3947  1.2202
 2298TIP3   OH228308   6.232   5.379  14.749  0.8256 -0.2030  0.1531
 2298TIP3    H128309   6.201   5.450  14.694  2.3594  1.2954  1.1301
 2298TIP3    H228310   6.282   5.422  14.818  0.0109 -2.0934  2.0267
 2299TIP3   OH228311   0.423   4.787   3.898  0.0922 -0.4740  0.5969
 2299TIP3    H128312   0.511   4.759   3.921  0.2242 -0.8942 -0.3456
 2299TIP3    H228313   0.417   4.878   3.926  0.2431 -0.9186  2.1822
 2300TIP3   OH228314   4.422   4.501   5.380 -0.3586 -0.2312 -0.1622
 2300TIP3    H128315   4.395   4.454   5.302 -0.2661 -1.5913  0.5938
 2300TIP3    H228316   4.477   4.439   5.428 -1.1772  0.2286  1.4364
 2301TIP3   OH228317   0.865   2.711   4.902 -0.5088 -0.5664  0.1721
 2301TIP3    H128318   0.924   2.738   4.832 -0.0111  0.8448  1.0756
 2301TIP3    H228319   0.912   2.641   4.947 -0.4723 -0.9210 -0.4217
 2302TIP3   OH228320   0.509   3.052  13.076  0.0371 -0.1007  0.0797
 2302TIP3    H128321   0.585   3.071  13.020  0.3214  1.4275  0.9505
 2302TIP3    H228322   0.541   2.986  13.138  1.2382  1.7925  1.5646
 2303TIP3   OH228323   0.723   5.570   0.954 -0.0753 -0.1572 -0.9063
 2303TIP3    H128324   0.668   5.528   1.019  0.8947  0.9284  0.7178
 2303TIP3    H228325   0.810   5.532   0.968 -0.0599 -0.6909 -2.3287
 2304TIP3   OH228326   6.475   0.610   4.867  0.4808  0.2005  0.0911
 2304TIP3    H128327   6.451   0.672   4.797  1.2093 -0.1818 -0.5171
 2304TIP3    H228328   6.557   0.645   4.902 -0.2075  0.7387  1.2005
 2305TIP3   OH228329   5.262   2.934   1.844 -0.1695  0.2934 -0.1569
 2305TIP3    H128330   5.258   3.027   1.820 -0.6666 -0.1674 -2.0327
 2305TIP3    H228331   5.175   2.916   1.881 -1.1533 -0.0395 -2.4529
 2306TIP3   OH228332   1.173   1.267  13.064  0.0605  0.0991 -0.1174
 2306TIP3    H128333   1.144   1.277  13.155  2.2449  0.3150  0.6070
 2306TIP3    H228334   1.169   1.356  13.029 -4.0668 -0.3818 -1.4280
 2307TIP3   OH228335   3.931   5.213  14.534  0.9496 -0.6739 -0.7194
 2307TIP3    H128336   3.913   5.296  14.490  1.7719  0.2443  0.6346
 2307TIP3    H228337   3.922   5.147  14.465 -4.1497 -0.0547 -0.9923
 2308TIP3   OH228338   3.136   0.653   0.477  0.0859 -0.3881 -0.3722
 2308TIP3    H128339   3.133   0.579   0.416 -2.8220 -0.3697 -0.3778
 2308TIP3    H228340   3.047   0.660   0.511  1.4304 -0.1229  3.6118
 2309TIP3   OH228341   5.578   1.574   4.593 -0.4084 -0.1601 -0.2405
 2309TIP3    H128342   5.624   1.536   4.669  0.3463  0.0040 -0.6030
 2309TIP3    H228343   5.575   1.503   4.529 -2.1199 -0.6751  0.3716
 2310TIP3   OH228344   2.766   5.606   4.216 -0.8461 -0.1614 -0.3969
 2310TIP3    H128345   2.676   5.573   4.223 -1.0238  0.3164 -0.3864
 2310TIP3    H228346   2.770   5.676   4.281  0.7612 -2.7993  2.6350
 2311TIP3   OH228347   0.823   4.398   3.689  0.0091 -0.1066  0.1169
 2311TIP3    H128348   0.879   4.340   3.741  0.4153  1.5863  1.6521
 2311TIP3    H228349   0.884   4.457   3.646 -0.4696  0.0521 -0.3471
 2312TIP3   OH228350   6.647   0.546   2.361 -0.6933  0.0566 -0.5895
 2312TIP3    H128351   6.627   0.454   2.376 -2.5117  0.2282 -1.6428
 2312TIP3    H228352   6.647   0.586   2.448  0.9323 -1.0292 -0.0296
 2313TIP3   OH228353   0.574   0.137   5.495 -0.2759  0.4313  0.2102
 2313TIP3    H128354   0.596   0.137   5.401  1.1500  0.3770  0.5235
 2313TIP3    H228355   0.579   0.045   5.521 -0.3271  0.4893  0.4267
 2314TIP3   OH228356   3.902   1.692  10.535 -0.0451  0.8596  0.1141
 2314TIP3    H128357   3.923   1.756  10.603  1.0075  0.7450 -0.0768
 2314TIP3    H228358   3.987   1.653  10.513 -0.5426  0.0692 -0.4359
 2315TIP3   OH228359   5.250   2.542  16.456  0.5569  0.6508  0.4915
 2315TIP3    H128360   5.291   2.461  16.489  3.1280  1.5064 -0.3746
 2315TIP3    H228361   5.296   2.560  16.374 -0.9295  2.2802 -0.0329
 2316TIP3   OH228362   3.006   2.334   6.370 -0.1991 -0.2541 -0.1735
 2316TIP3    H128363   3.026   2.273   6.299  0.9224 -0.2669  0.1319
 2316TIP3    H228364   3.087   2.338   6.421 -0.4489  1.0297  0.1510
 2317TIP3   OH228365   0.364   5.440   2.455  0.0898 -0.2461  0.1794
 2317TIP3    H128366   0.420   5.497   2.507 -1.0461  0.3924  0.7343
 2317TIP3    H228367   0.290   5.496   2.429 -0.2458 -1.0380 -0.6086
 2318TIP3   OH228368   6.729   1.036   3.764 -0.3261  0.0103 -0.0053
 2318TIP3    H128369   6.687   1.088   3.832 -1.0088  0.1925 -0.5496
 2318TIP3    H228370   6.663   1.030   3.695 -0.8172 -2.7707  0.5982
 2319TIP3   OH228371   2.013   4.073  17.203  0.6481 -0.1844  0.1705
 2319TIP3    H128372   2.044   4.093  17.115 -1.3065  2.2862 -0.0719
 2319TIP3    H228373   2.019   4.156  17.250 -3.3694 -0.0037  0.6844
 2320TIP3   OH228374   5.927   2.884  11.829  0.4140 -0.4038 -0.0189
 2320TIP3    H128375   5.858   2.897  11.765  0.6961  0.2022 -0.2016
 2320TIP3    H228376   5.966   2.971  11.842  2.5025 -1.0587 -1.4431
 2321TIP3   OH228377   4.527   5.212  15.427 -0.1300 -0.0080  0.1465
 2321TIP3    H128378   4.536   5.168  15.511  1.2937 -0.5913 -0.2904
 2321TIP3    H228379   4.588   5.167  15.369 -0.3963  0.9968 -0.9550
 2322TIP3   OH228380   0.191   0.816  12.520  0.5700  0.0741 -0.1643
 2322TIP3    H128381   0.222   0.764  12.594  1.0740 -0.4913 -0.7539
 2322TIP3    H228382   0.160   0.751  12.456  1.2566  0.4679 -0.9320
 2323TIP3   OH228383   6.581   1.172  15.854  0.6882 -0.3955  0.5105
 2323TIP3    H128384   6.519   1.099  15.857  0.5881 -0.9347 -4.6424
 2323TIP3    H228385   6.667   1.130  15.851  0.7983 -0.1552  0.2704
 2324TIP3   OH228386   0.757   0.680  15.247  0.1222  0.0630  0.3292
 2324TIP3    H128387   0.706   0.624  15.189  0.6905 -1.3207  1.1147
 2324TIP3    H228388   0.740   0.769  15.216 -0.1971 -0.5799 -1.4385
 2325TIP3   OH228389   0.684   3.959  16.475 -0.1305  0.1334 -0.4015
 2325TIP3    H128390   0.627   3.883  16.480 -1.5443  1.1810  0.1768
 2325TIP3    H228391   0.769   3.924  16.449 -0.4078 -1.7863  1.0811
 2326TIP3   OH228392   0.076   4.364   2.526  0.5738 -0.4183  0.0082
 2326TIP3    H128393   0.090   4.373   2.620  1.8293  0.4491 -0.2329
 2326TIP3    H228394   0.158   4.327   2.493  1.1108  1.5595 -1.0330
 2327TIP3   OH228395   3.338   6.066   5.597  0.3556 -0.5115  0.4082
 2327TIP3    H128396   3.356   6.002   5.667 -1.4765 -1.6523 -0.0944
 2327TIP3    H228397   3.281   6.019   5.536 -0.8047  1.5167 -0.1622
 2328TIP3   OH228398   2.588   5.225   4.334 -0.6014 -0.4280  0.3006
 2328TIP3    H128399   2.587   5.261   4.423  0.5637 -3.5236  1.6916
 2328TIP3    H228400   2.633   5.141   4.342 -2.8571 -2.1469 -2.7086
 2329TIP3   OH228401   0.538   3.831   0.871 -0.3350 -0.3740 -0.2655
 2329TIP3    H128402   0.580   3.830   0.957  1.2941  0.9617 -1.0082
 2329TIP3    H228403   0.523   3.923   0.852 -1.7696 -0.7164 -0.9293
 2330TIP3   OH228404   0.093   0.565   0.019  0.2819 -0.0240 -0.0289
 2330TIP3    H128405   0.016   0.609  -0.017 -0.0460 -0.3691  0.2432
 2330TIP3    H228406   0.074   0.471   0.008  0.2189 -0.1360  0.9329
 2331TIP3   OH228407   5.618   3.516  13.075  0.3530 -0.1119  0.1812
 2331TIP3    H128408   5.544   3.461  13.049 -0.7885  1.0443  0.8542
 2331TIP3    H228409   5.688   3.492  13.014 -1.2798  0.3543 -1.9883
 2332TIP3   OH228410   6.034   0.497   3.455  0.0225 -0.6510 -0.0753
 2332TIP3    H128411   6.038   0.440   3.379 -0.9803  0.1670 -0.7675
 2332TIP3    H228412   5.959   0.465   3.505  0.0005 -0.4942 -0.0048
 2333TIP3   OH228413   3.172   3.154  15.602 -0.1254 -0.0727  0.0249
 2333TIP3    H128414   3.108   3.222  15.622  0.6253  1.2581 -1.8610
 2333TIP3    H228415   3.130   3.073  15.632 -1.2865  1.1178  1.7902
 2334TIP3   OH228416   3.566   2.912   3.426 -0.1950  0.0785 -0.6493
 2334TIP3    H128417   3.516   2.941   3.502  1.1276  2.0188 -0.4294
 2334TIP3    H228418   3.614   2.835   3.456 -0.0501  0.5417  0.3477
 2335TIP3   OH228419   3.790   2.513   4.367 -0.1557  0.3883 -0.1898
 2335TIP3    H128420   3.791   2.479   4.277  0.6588  0.5715 -0.2551
 2335TIP3    H228421   3.751   2.600   4.358 -0.9781  0.0262 -0.2187
 2336TIP3   OH228422   0.901   5.875  11.087  0.6016  0.1101 -0.0812
 2336TIP3    H128423   0.907   5.843  11.177  3.0588 -3.2221 -1.2418
 2336TIP3    H228424   0.809   5.900  11.077  0.4232  1.5863  3.5195
 2337TIP3   OH228425   1.718   6.529   1.764  0.3087  0.0423  0.1484
 2337TIP3    H128426   1.762   6.592   1.821 -1.5079  1.1209  0.4109
 2337TIP3    H228427   1.699   6.577   1.684 -1.5690  0.0112  0.5525
 2338TIP3   OH228428   2.741   0.753  16.878 -0.1902  0.6077 -0.5469
 2338TIP3    H128429   2.687   0.827  16.904 -0.2671 -0.0026  1.1470
 2338TIP3    H228430   2.689   0.676  16.899 -0.0691  0.0301 -2.1879
 2339TIP3   OH228431   2.162   0.156   6.141  0.1845 -0.1540 -0.0422
 2339TIP3    H128432   2.172   0.235   6.087 -0.0884  0.0586  0.2120
 2339TIP3    H228433   2.078   0.169   6.186 -0.4918 -1.1735 -0.9611
 2340TIP3   OH228434   5.824   1.014  13.317 -0.1047 -0.3971 -0.7950
 2340TIP3    H128435   5.779   0.936  13.349 -1.2137  1.1487  1.7219
 2340TIP3    H228436   5.914   1.004  13.347 -0.8460  0.4476  1.9953
 2341TIP3   OH228437   1.021   1.666  17.171  0.2541 -0.7422 -0.1769
 2341TIP3    H128438   1.018   1.756  17.139 -2.3036 -0.7098 -0.0056
 2341TIP3    H228439   1.079   1.670  17.247  1.4648  0.3923 -1.0921
 2342TIP3   OH228440   3.374   5.500  16.362  0.1038  0.3361 -0.5372
 2342TIP3    H128441   3.366   5.407  16.385  0.2696  0.6599  0.9156
 2342TIP3    H228442   3.456   5.505  16.313  1.2734  0.0242  1.2888
 2343TIP3   OH228443   0.510   6.464   5.817  0.0135 -0.0012 -0.0561
 2343TIP3    H128444   0.605   6.467   5.831 -0.0906 -2.0331  1.6406
 2343TIP3    H228445   0.475   6.529   5.878  0.2591 -0.4622  0.5974
 2344TIP3   OH228446   5.459   6.486  15.758  0.7302 -0.0875 -0.6360
 2344TIP3    H128447   5.462   6.578  15.733 -0.5307 -0.2326 -1.4009
 2344TIP3    H228448   5.383   6.479  15.816  1.5699 -0.4284  0.4688
 2345TIP3   OH228449   1.363   2.780   3.970 -0.9142  0.0810 -0.0981
 2345TIP3    H128450   1.412   2.832   3.907 -0.1312 -1.3441 -0.7294
 2345TIP3    H228451   1.406   2.798   4.054  0.6273 -0.9811 -0.6116
 2346TIP3   OH228452   5.398   2.759  15.241 -0.1221  0.1175  0.3424
 2346TIP3    H128453   5.310   2.721  15.236 -0.1067  0.1991 -0.8810
 2346TIP3    H228454   5.400   2.823  15.170  0.6918  0.6242  0.8117
 2347TIP3   OH228455   2.897   4.798   2.409 -0.3187 -0.1397 -0.2493
 2347TIP3    H128456   2.849   4.878   2.434  1.7700  0.4088  2.5753
 2347TIP3    H228457   2.831   4.742   2.370 -2.0305  2.6675 -1.7546
 2348TIP3   OH228458   6.586   4.703   6.213  0.0802 -0.2835  0.7042
 2348TIP3    H128459   6.671   4.720   6.254  0.4709 -0.8789  0.1522
 2348TIP3    H228460   6.524   4.752   6.267  0.5175 -1.3849  2.2715
 2349TIP3   OH228461   3.311   3.704  14.829 -0.2915  0.1479 -0.2090
 2349TIP3    H128462   3.404   3.712  14.849 -0.7571  0.2345  2.1930
 2349TIP3    H228463   3.278   3.793  14.832  0.0120  0.5914 -4.2923
 2350TIP3   OH228464   1.879   2.984   3.563  0.1012  0.0094 -0.2376
 2350TIP3    H128465   1.950   3.048   3.553  0.4537 -0.2364  0.5950
 2350TIP3    H228466   1.846   2.971   3.474  1.7092 -0.5618 -0.7855
 2351TIP3   OH228467   0.231   6.000   5.384  0.1220 -0.1265  0.3322
 2351TIP3    H128468   0.255   5.910   5.364 -0.7884 -0.5433  1.0748
 2351TIP3    H228469   0.161   5.993   5.448  0.7394  1.1327  1.1782
 2352TIP3   OH228470   5.863   1.265   1.666  0.4711 -0.3502  0.0900
 2352TIP3    H128471   5.821   1.186   1.700  1.4212 -1.5092 -1.3153
 2352TIP3    H228472   5.940   1.233   1.620  2.1073  1.5825  1.3168
 2353TIP3   OH228473   0.683   5.002  12.785  0.1114 -0.0905 -0.6017
 2353TIP3    H128474   0.636   4.937  12.733 -0.4293 -0.5619  0.4409
 2353TIP3    H228475   0.755   4.952  12.826  0.4538  0.2451 -0.7855
 2354TIP3   OH228476   2.629   5.940   3.375  0.1214  0.1128 -0.1001
 2354TIP3    H128477   2.615   5.999   3.301 -0.1350  1.0452  0.6663
 2354TIP3    H228478   2.543   5.901   3.391  0.1719 -0.0717 -0.2809
 2355TIP3   OH228479   6.759   3.813  15.411 -0.0408  0.0802  0.8458
 2355TIP3    H128480   6.811   3.733  15.421 -0.3904 -0.1577  0.7994
 2355TIP3    H228481   6.670   3.781  15.395  0.2314  0.4322 -1.7905
 2356TIP3   OH228482   2.315   6.537  15.732  0.0142 -0.4293 -0.5318
 2356TIP3    H128483   2.287   6.590  15.658 -2.0432  1.7914  1.6203
 2356TIP3    H228484   2.397   6.576  15.761 -0.2472  0.0468 -0.4263
 2357TIP3   OH228485   6.085   5.165  12.491  0.2137  0.3201 -0.5047
 2357TIP3    H128486   6.053   5.104  12.558  1.9135 -0.4443 -0.3330
 2357TIP3    H228487   6.028   5.150  12.416 -1.7054  1.1496  0.7050
 2358TIP3   OH228488   2.095   3.502   0.695 -0.3448  0.0941  0.0618
 2358TIP3    H128489   2.168   3.449   0.661 -2.4883 -1.9844 -1.7092
 2358TIP3    H228490   2.103   3.495   0.790 -0.7845 -4.1421 -0.0118
 2359TIP3   OH228491   1.372   2.958   2.460  0.2029  0.1775  0.3236
 2359TIP3    H128492   1.339   2.921   2.542  1.5248 -0.9612  0.3682
 2359TIP3    H228493   1.316   3.034   2.444  0.6197  1.1110  2.8789
 2360TIP3   OH228494   1.476   4.176  11.472 -0.3954  0.7662 -0.3769
 2360TIP3    H128495   1.550   4.172  11.411  0.1796 -0.0465  0.3601
 2360TIP3    H228496   1.401   4.199  11.417  0.1853  0.4330 -1.3285
 2361TIP3   OH228497   0.724   6.002  16.282 -0.1192  0.4586  0.2865
 2361TIP3    H128498   0.697   5.985  16.192 -0.4483 -1.8323  0.7792
 2361TIP3    H228499   0.758   6.092  16.279 -0.4477  0.5782 -2.0254
 2362TIP3   OH228500   0.814   3.677  15.348 -0.1342 -0.7556 -0.0685
 2362TIP3    H128501   0.790   3.603  15.293 -1.3770  0.1272 -0.7435
 2362TIP3    H228502   0.890   3.717  15.303  1.6172 -2.5225  1.1572
 2363TIP3   OH228503   6.597   5.431   3.370 -0.2004 -0.1961 -0.2760
 2363TIP3    H128504   6.681   5.392   3.397  0.0009 -0.3087 -1.0359
 2363TIP3    H228505   6.531   5.369   3.401  0.0598 -0.6018 -0.5207
 2364TIP3   OH228506   2.546   4.439  12.917 -0.1072 -0.0717 -0.0351
 2364TIP3    H128507   2.486   4.364  12.917  1.2448 -1.2781  2.3246
 2364TIP3    H228508   2.575   4.446  12.826 -2.2482 -0.7121 -0.8370
 2365TIP3   OH228509   3.949   6.336   0.720  0.2650  0.0255  0.3765
 2365TIP3    H128510   3.942   6.281   0.798 -0.8677  1.5799  1.4333
 2365TIP3    H228511   3.944   6.274   0.646  2.5906 -1.6087  1.4797
 2366TIP3   OH228512   4.028   3.828   6.305  0.5963 -0.1588 -0.6358
 2366TIP3    H128513   3.983   3.745   6.325 -0.5471  0.3422 -1.0362
 2366TIP3    H228514   4.093   3.837   6.374 -0.3425 -0.6112  0.3463
 2367TIP3   OH228515   3.596   4.879   0.878 -0.2230 -0.0369 -0.3873
 2367TIP3    H128516   3.524   4.818   0.888 -1.0442  0.9996  0.2217
 2367TIP3    H228517   3.640   4.878   0.963  0.0790 -0.1662 -0.5431
 2368TIP3   OH228518   2.547   4.629   5.635 -0.0506 -0.3140 -0.1913
 2368TIP3    H128519   2.489   4.572   5.584  1.7165 -1.1654 -1.3522
 2368TIP3    H228520   2.603   4.671   5.570  1.5206 -0.5485  0.9387
 2369TIP3   OH228521   4.638   6.155  12.715  0.3176  0.1106 -0.0170
 2369TIP3    H128522   4.711   6.123  12.663  0.2333  1.4228 -0.9921
 2369TIP3    H228523   4.653   6.119  12.802  0.9402 -1.4151 -0.7165
 2370TIP3   OH228524   2.821   2.044  14.974  0.0350  0.4951 -0.1582
 2370TIP3    H128525   2.830   2.132  15.009  1.1055  1.2939 -2.2589
 2370TIP3    H228526   2.726   2.030  14.966 -0.1673  1.0626  1.0226
 2371TIP3   OH228527   4.808   6.182  14.401 -0.1121  0.1063 -0.1433
 2371TIP3    H128528   4.721   6.176  14.442  0.2246  2.1643  1.0408
 2371TIP3    H228529   4.867   6.200  14.474  1.3029 -0.9955 -0.9670
 2372TIP3   OH228530   1.637   5.293   5.024  0.1330  0.0858  0.2207
 2372TIP3    H128531   1.645   5.371   5.080 -0.4743  0.5004 -0.2560
 2372TIP3    H228532   1.567   5.242   5.065 -0.1266  0.2591 -0.0021
 2373TIP3   OH228533   6.233   6.678  14.461 -0.0180  0.5266 -0.2441
 2373TIP3    H128534   6.317   6.692  14.417 -0.5064  0.0570 -1.3603
 2373TIP3    H228535   6.168   6.700  14.395 -0.7781  0.5716  0.5086
 2374TIP3   OH228536   2.981   5.778  17.179 -0.2696  0.4413  0.0616
 2374TIP3    H128537   3.005   5.830  17.256 -0.1904 -0.4804  0.6724
 2374TIP3    H228538   2.905   5.728  17.207  0.9518 -1.4111  0.2329
 2375TIP3   OH228539   3.253   5.202   4.862 -0.4861  0.3077 -0.1593
 2375TIP3    H128540   3.194   5.205   4.938 -1.8719 -0.8040 -1.1379
 2375TIP3    H228541   3.211   5.258   4.797  0.0346  0.2586 -0.5416
 2376TIP3   OH228542   1.976   1.660  16.102  0.3793 -0.1455  0.0082
 2376TIP3    H128543   2.009   1.715  16.173 -1.1817  0.2218  0.4995
 2376TIP3    H228544   1.917   1.597  16.145 -0.4480 -0.0424 -0.9228
 2377TIP3   OH228545   6.070   4.562  10.677 -0.5201  0.1728  0.4707
 2377TIP3    H128546   6.161   4.564  10.707 -1.1687  1.5584  2.5878
 2377TIP3    H228547   6.044   4.655  10.674 -1.3960 -0.0891 -1.7248
 2378TIP3   OH228548   5.669   3.419   6.437  0.1171 -0.0137 -0.4356
 2378TIP3    H128549   5.648   3.502   6.394 -0.1394 -0.4732 -1.2114
 2378TIP3    H228550   5.764   3.410   6.427  0.4152  1.0039  1.1586
 2379TIP3   OH228551   1.343   2.271  13.580  0.1156  0.4957 -0.0551
 2379TIP3    H128552   1.426   2.223  13.584  0.4448  0.7472 -2.3379
 2379TIP3    H228553   1.366   2.361  13.606  0.1186  0.1017  1.3246
 2380TIP3   OH228554   2.944   3.725   2.605  0.6753 -0.7244 -0.0680
 2380TIP3    H128555   2.855   3.689   2.603  0.4328 -0.1962 -3.2737
 2380TIP3    H228556   2.999   3.651   2.630 -0.4912 -1.5007  0.3044
 2381TIP3   OH228557   6.761   5.078   3.244 -0.0984 -0.4727 -0.0424
 2381TIP3    H128558   6.677   5.036   3.226 -1.3765  1.5440  0.7595
 2381TIP3    H228559   6.738   5.154   3.298  2.4983 -1.1419  2.2451
 2382TIP3   OH228560   1.428   1.069  15.135  0.6028 -0.1604  0.1046
 2382TIP3    H128561   1.424   0.974  15.131  1.4819 -0.2426  0.8661
 2382TIP3    H228562   1.440   1.097  15.044  2.4608 -0.9094  0.0801
 2383TIP3   OH228563   3.889   0.217  13.262  0.0529 -0.3770 -0.5083
 2383TIP3    H128564   3.857   0.302  13.230  0.2172  0.0930  0.5373
 2383TIP3    H228565   3.934   0.179  13.187  2.9858  1.9761 -0.1351
 2384TIP3   OH228566   5.361   0.123  14.926  0.4851 -0.0135  0.1913
 2384TIP3    H128567   5.445   0.155  14.892 -0.4964 -0.6307 -3.1402
 2384TIP3    H228568   5.305   0.201  14.928  1.2217  0.5579  3.1505
 2385TIP3   OH228569   3.531   6.148   5.393  0.5080 -0.1190  0.1991
 2385TIP3    H128570   3.503   6.146   5.484 -0.5257 -1.6784 -0.1128
 2385TIP3    H228571   3.455   6.180   5.344  0.8861  0.2223 -0.1865
 2386TIP3   OH228572   2.644   2.876  16.074 -0.3716 -0.5074  0.0790
 2386TIP3    H128573   2.736   2.852  16.064 -0.1427  0.4976 -0.3958
 2386TIP3    H228574   2.641   2.926  16.155 -0.3044  0.3117 -0.4105
 2387TIP3   OH228575   0.376   1.582   0.457  0.0484 -0.3367 -0.7699
 2387TIP3    H128576   0.431   1.548   0.528  0.2392  0.5163 -0.5011
 2387TIP3    H228577   0.355   1.505   0.404 -1.8569 -1.3947  1.3682
 2388TIP3   OH228578   3.941   2.016   4.276 -0.5535  0.2108  0.4956
 2388TIP3    H128579   3.931   1.965   4.196 -0.9099 -0.0063  0.6749
 2388TIP3    H228580   4.019   1.980   4.318 -1.8876 -1.5882  1.6192
 2389TIP3   OH228581   3.306   0.692  12.788 -0.1580 -1.0272 -0.4715
 2389TIP3    H128582   3.354   0.775  12.790 -0.9175 -0.6005  1.2519
 2389TIP3    H228583   3.266   0.690  12.701  1.2742 -0.4384 -1.1860
 2390TIP3   OH228584   4.202   0.531  10.302 -0.3065  0.5976 -0.0203
 2390TIP3    H128585   4.195   0.621  10.272 -0.0471 -0.1673 -2.6883
 2390TIP3    H228586   4.140   0.524  10.374 -1.3770  2.5504 -0.6842
 2391TIP3   OH228587   2.073   2.302  14.186  0.0423 -0.1680 -0.0879
 2391TIP3    H128588   2.055   2.265  14.272  2.7762  1.5148  1.3512
 2391TIP3    H228589   2.140   2.244  14.149 -2.5134 -2.0614 -2.0927
 2392TIP3   OH228590   2.128   1.188  11.871 -0.4751  0.1276  0.2415
 2392TIP3    H128591   2.035   1.203  11.890 -0.9089 -0.1341 -1.5269
 2392TIP3    H228592   2.173   1.222  11.948 -2.0434  0.0022  1.2741
 2393TIP3   OH228593   5.402   3.508   1.703 -0.2533  0.3790  0.5616
 2393TIP3    H128594   5.431   3.578   1.762 -1.7988  0.3876  1.3719
 2393TIP3    H228595   5.363   3.443   1.761  0.0385 -0.5880 -0.2950
 2394TIP3   OH228596   5.291   1.528   3.466  0.2042 -0.3353 -0.0147
 2394TIP3    H128597   5.356   1.583   3.422  0.5445  0.5576  1.5272
 2394TIP3    H228598   5.207   1.566   3.440  0.4311  0.9331  0.9808
 2395TIP3   OH228599   1.209   5.344  12.475 -0.4712  0.2051 -0.1860
 2395TIP3    H128600   1.263   5.280  12.428  0.0970  1.9861 -2.1042
 2395TIP3    H228601   1.163   5.292  12.541 -0.4259 -2.2780 -1.9576
 2396TIP3   OH228602   2.871   4.827   1.625  0.1931 -0.1054  0.2265
 2396TIP3    H128603   2.935   4.763   1.594 -0.6547 -0.6897 -0.3857
 2396TIP3    H228604   2.829   4.784   1.700  2.6161  1.5178  2.6885
 2397TIP3   OH228605   0.204   3.719   1.205 -0.1406  0.4397 -0.6451
 2397TIP3    H128606   0.231   3.807   1.230  1.4312  0.0021 -0.7197
 2397TIP3    H228607   0.226   3.712   1.112  0.9929 -0.4565 -0.3344
 2398TIP3   OH228608   2.525   5.991   4.037  0.3332 -0.4219  0.2458
 2398TIP3    H128609   2.493   5.902   4.054  2.2538 -1.2763 -0.3654
 2398TIP3    H228610   2.503   6.040   4.116 -1.1029 -1.3282  0.4382
 2399TIP3   OH228611   2.687   3.998  15.217 -0.2782 -0.4456 -0.2856
 2399TIP3    H128612   2.781   3.983  15.224 -0.3328 -0.2625  1.0340
 2399TIP3    H228613   2.679   4.075  15.160  0.5439  1.2835  1.7718
 2400TIP3   OH228614   4.201   0.592  16.047 -0.1843  0.0682 -0.1445
 2400TIP3    H128615   4.260   0.609  15.974 -1.0512  0.5107 -0.7580
 2400TIP3    H228616   4.229   0.653  16.116 -0.8875  1.3820 -0.9830
 2401TIP3   OH228617   1.795   0.695  16.560 -0.0435 -0.0226  0.4557
 2401TIP3    H128618   1.776   0.741  16.478  1.5172  1.3710  0.8123
 2401TIP3    H228619   1.885   0.665  16.550  0.1324  0.0760  1.6280
 2402TIP3   OH228620   0.830   4.533   0.069  0.5385 -0.2050 -0.0704
 2402TIP3    H128621   0.821   4.622   0.103  0.8707  0.4891 -1.6916
 2402TIP3    H228622   0.925   4.520   0.062  0.4846 -0.1811 -1.0231
 2403TIP3   OH228623   3.935   2.751   1.219 -0.2091  0.1099  0.1236
 2403TIP3    H128624   3.851   2.710   1.197  1.4768 -3.1753 -0.7473
 2403TIP3    H228625   3.969   2.784   1.136 -0.4480  1.1701  0.4279
 2404TIP3   OH228626   2.011   1.356   1.536  0.5693 -0.1612  0.4551
 2404TIP3    H128627   2.051   1.390   1.456 -0.8886  0.5162 -0.0170
 2404TIP3    H228628   1.917   1.371   1.525  0.1313 -1.7959  1.4685
 2405TIP3   OH228629   0.810   6.238  16.232  0.1228  0.0102  0.5443
 2405TIP3    H128630   0.740   6.291  16.194  1.6759  1.6663 -0.1538
 2405TIP3    H228631   0.843   6.292  16.304  0.7486 -0.7160  0.8107
 2406TIP3   OH228632   4.668   1.749   5.509  0.6382 -0.2012 -0.4610
 2406TIP3    H128633   4.763   1.759   5.498  0.7099  0.0463  0.3397
 2406TIP3    H228634   4.642   1.690   5.438  1.6210 -1.4291  0.1487
 2407TIP3   OH228635   3.323   4.710   5.471 -0.1921 -0.0682  0.4375
 2407TIP3    H128636   3.346   4.720   5.379 -0.6630 -0.6687  0.2518
 2407TIP3    H228637   3.406   4.691   5.514  0.2186  1.3063  0.3216
 2408TIP3   OH228638   3.649   0.382   1.615 -0.3496  0.7256  0.1051
 2408TIP3    H128639   3.680   0.390   1.525  0.9158  0.7968  0.5338
 2408TIP3    H228640   3.662   0.289   1.637  0.8950  1.0260  0.7385
 2409TIP3   OH228641   3.745   2.681  11.645 -0.6020  0.2439  0.2173
 2409TIP3    H128642   3.677   2.652  11.584 -0.4977  0.0543  0.1893
 2409TIP3    H228643   3.776   2.764  11.609 -0.8620  0.3635  0.2642
 2410TIP3   OH228644   4.297   1.901   3.355 -0.1262  0.4739  0.3900
 2410TIP3    H128645   4.271   1.978   3.306  0.6883 -0.2871 -1.3075
 2410TIP3    H228646   4.340   1.845   3.291 -1.6038 -1.8673  1.3366
 2411TIP3   OH228647   1.059   6.377  15.620  0.5254 -0.5412  0.5013
 2411TIP3    H128648   0.996   6.433  15.666 -0.7090 -0.4181 -1.2435
 2411TIP3    H228649   1.015   6.354  15.538  2.1666 -1.7232 -0.0967
 2412TIP3   OH228650   2.211   0.604   1.634 -0.0884 -0.0482 -0.3763
 2412TIP3    H128651   2.191   0.685   1.588 -0.5653 -0.4900 -0.9687
 2412TIP3    H228652   2.292   0.573   1.594 -0.3810 -0.3162 -0.7606
 2413TIP3   OH228653   3.092   1.738  15.809  0.5144  0.1580 -0.8100
 2413TIP3    H128654   3.023   1.803  15.797 -0.1209 -0.2751  0.3766
 2413TIP3    H228655   3.165   1.786  15.848  0.7694  0.5314 -1.7018
 2414TIP3   OH228656   2.296   0.563  13.228  0.2352 -0.1647 -0.1739
 2414TIP3    H128657   2.322   0.471  13.232  0.2416 -0.1369  0.5166
 2414TIP3    H228658   2.344   0.605  13.299 -0.6221  0.1521  0.2415
 2415TIP3   OH228659   0.784   3.911  13.318 -0.2141 -0.6787  0.2706
 2415TIP3    H128660   0.864   3.871  13.285 -0.6413 -0.5944 -0.9494
 2415TIP3    H228661   0.811   3.997  13.351  0.7739 -2.0120  3.2569
 2416TIP3   OH228662   2.690   0.577  11.590  0.0079  0.5692 -0.3023
 2416TIP3    H128663   2.726   0.488  11.582 -1.0450 -0.0388  1.2947
 2416TIP3    H228664   2.597   0.563  11.609 -0.2410  2.0359 -0.3586
 2417TIP3   OH228665   5.732   1.952  14.580 -0.1838  0.1108 -0.3555
 2417TIP3    H128666   5.778   2.020  14.629 -1.7332  1.1128 -0.1977
 2417TIP3    H228667   5.801   1.893  14.549  1.0639  0.8845  0.8303
 2418TIP3   OH228668   3.399   3.195  17.025 -0.6276  0.1197  0.0743
 2418TIP3    H128669   3.418   3.239  17.108  0.5420 -1.2110  0.5672
 2418TIP3    H228670   3.480   3.149  17.004 -1.6525 -1.5016 -0.5621
 2419TIP3   OH228671   6.606   2.196  13.649 -0.1590 -0.1284  0.3468
 2419TIP3    H128672   6.676   2.262  13.647  0.2417 -0.5303  0.7860
 2419TIP3    H228673   6.649   2.114  13.628 -0.6068 -0.2957  0.0738
 2420TIP3   OH228674   2.687   4.029  12.493 -0.0643  0.2425  0.3931
 2420TIP3    H128675   2.688   4.061  12.583  2.4623  1.2443  0.0862
 2420TIP3    H228676   2.708   4.106  12.440  1.0883 -0.8571 -0.8163
 2421TIP3   OH228677   3.652   1.887  11.777 -0.8267 -0.4050  0.0043
 2421TIP3    H128678   3.655   1.834  11.856 -0.7248 -0.6871 -0.1879
 2421TIP3    H228679   3.742   1.915  11.762 -1.2174  2.0726  1.6048
 2422TIP3   OH228680   6.487   2.395  11.996 -0.0416  0.1453 -0.1366
 2422TIP3    H128681   6.554   2.347  11.947 -0.1928 -0.6501  0.4189
 2422TIP3    H228682   6.445   2.328  12.050 -1.2728  0.6312 -0.4614
 2423TIP3   OH228683   0.244   4.730  15.314 -0.3849 -0.2799 -0.3447
 2423TIP3    H128684   0.216   4.651  15.359 -1.0506  0.4710  0.5854
 2423TIP3    H228685   0.170   4.790  15.323  1.2313  1.5522  1.6627
 2424TIP3   OH228686   5.185   0.496   2.730  0.2728 -0.0375 -1.1108
 2424TIP3    H128687   5.271   0.535   2.713  1.2403 -1.6286 -0.0854
 2424TIP3    H228688   5.149   0.548   2.802  1.4318 -0.8243  0.0706
 2425TIP3   OH228689   1.006   0.882   5.116  0.2671 -0.3488  0.1753
 2425TIP3    H128690   1.006   0.816   5.186 -0.7390 -0.9951 -0.4142
 2425TIP3    H228691   1.045   0.836   5.041 -0.1558 -0.1787 -0.1503
 2426TIP3   OH228692   1.605   1.000   3.017  0.0024  0.2291 -0.1353
 2426TIP3    H128693   1.619   1.071   3.080 -0.6273  0.0573  0.1999
 2426TIP3    H228694   1.547   1.038   2.951  0.0552  0.1740 -0.2138
 2427TIP3   OH228695   5.733   0.562  14.182  0.1709  0.2596 -0.4954
 2427TIP3    H128696   5.648   0.599  14.158 -0.4314  0.0715  1.1968
 2427TIP3    H228697   5.738   0.573  14.277  1.9838  0.1231 -0.5467
 2428TIP3   OH228698   6.312   3.401   0.159  0.3229 -0.1481 -0.0322
 2428TIP3    H128699   6.374   3.358   0.100  1.9080 -0.7795  1.9613
 2428TIP3    H228700   6.233   3.413   0.107  1.5182 -0.9383 -2.1542
 2429TIP3   OH228701   3.529   1.319   4.504 -0.0379 -0.6054 -0.3771
 2429TIP3    H128702   3.543   1.399   4.555 -0.2781 -0.0590 -1.1573
 2429TIP3    H228703   3.612   1.272   4.511  1.3594  1.2636 -2.6212
 2430TIP3   OH228704   4.366   6.001   6.653 -0.8651  0.0549  0.6159
 2430TIP3    H128705   4.422   5.980   6.578  2.7060  1.7186  2.5700
 2430TIP3    H228706   4.297   5.935   6.651  0.0237 -0.9800 -3.1043
 2431TIP3   OH228707   0.534   5.475   4.316 -0.0259 -0.5395  0.1998
 2431TIP3    H128708   0.625   5.455   4.336  0.3767 -0.2130 -1.2181
 2431TIP3    H228709   0.485   5.438   4.389  1.3780  1.1302  2.0904
 2432TIP3   OH228710   3.318   4.658   2.759  0.0981 -0.2975  0.0396
 2432TIP3    H128711   3.358   4.600   2.823  0.3539  0.3847  0.5095
 2432TIP3    H228712   3.379   4.661   2.685 -1.0805 -2.6309 -1.1452
 2433TIP3   OH228713   2.522   6.496  14.113 -0.0827 -0.1307  0.1256
 2433TIP3    H128714   2.576   6.463  14.042  0.2234 -0.1809  0.3772
 2433TIP3    H228715   2.556   6.452  14.191 -0.2742  0.0836  0.3318
 2434TIP3   OH228716   4.120   3.872  14.752  1.0379  0.3868 -0.5486
 2434TIP3    H128717   4.196   3.888  14.696 -0.5462 -0.0050 -2.9197
 2434TIP3    H228718   4.045   3.879  14.694 -0.8899  1.8854  1.9178
 2435TIP3   OH228719   2.880   6.298   3.196 -0.0800  0.0225  0.4769
 2435TIP3    H128720   2.815   6.367   3.192 -0.6862 -0.5249  0.7622
 2435TIP3    H228721   2.935   6.312   3.119 -2.2935 -1.2433 -1.4568
 2436TIP3   OH228722   0.676   6.403  12.965 -0.0665  0.3932  0.1713
 2436TIP3    H128723   0.760   6.379  13.004 -0.7867 -0.3503  1.3175
 2436TIP3    H228724   0.697   6.478  12.908  1.4569 -0.1354 -0.0255
 2437TIP3   OH228725   2.490   6.082  11.212  0.0627  0.1552  0.0606
 2437TIP3    H128726   2.441   6.127  11.142 -2.1813 -1.5751  0.4134
 2437TIP3    H228727   2.544   6.018  11.165 -0.8966 -0.5144 -0.1493
 2438TIP3   OH228728   0.466   4.254  11.772  0.0115  0.0432  0.3816
 2438TIP3    H128729   0.426   4.334  11.806 -1.1801 -0.8052  1.0403
 2438TIP3    H228730   0.397   4.187  11.779  0.2532 -0.5856 -2.1311
 2439TIP3   OH228731   0.149   3.765   5.523 -1.0559 -0.1301 -0.6795
 2439TIP3    H128732   0.209   3.783   5.596 -1.8588  1.2250 -0.3105
 2439TIP3    H228733   0.165   3.673   5.501 -2.0885 -1.2224  2.4850
 2440TIP3   OH228734   1.263   4.362   1.008  0.3560  0.0284  0.1116
 2440TIP3    H128735   1.294   4.452   1.024  0.6211  0.0112 -0.3059
 2440TIP3    H228736   1.304   4.336   0.926 -0.5982 -0.0783 -0.3495
 2441TIP3   OH228737   6.394   2.659   5.240 -0.1243 -0.1111  0.7578
 2441TIP3    H128738   6.349   2.721   5.297  1.8622  1.8547  0.2924
 2441TIP3    H228739   6.466   2.709   5.201  1.0392 -2.4749 -0.3352
 2442TIP3   OH228740   4.748   3.219  16.732  0.1372 -0.1994  0.3395
 2442TIP3    H128741   4.753   3.127  16.708 -2.3328 -0.0270 -1.1095
 2442TIP3    H228742   4.781   3.266  16.655  2.3293  0.1808  1.4287
 2443TIP3   OH228743   0.098   1.188  15.047 -0.0651  0.0264 -0.7024
 2443TIP3    H128744   0.049   1.265  15.018 -1.1403 -0.3381  0.0367
 2443TIP3    H228745   0.086   1.188  15.142  0.0189 -0.9712 -0.6817
 2444TIP3   OH228746   1.643   4.415   3.257 -0.4983  0.1356 -0.1236
 2444TIP3    H128747   1.565   4.360   3.267  0.7385 -1.6114  0.4208
 2444TIP3    H228748   1.616   4.501   3.289 -2.5821 -0.0468 -1.2637
 2445TIP3   OH228749   3.148   3.059   2.054 -0.1836  0.3451  0.5694
 2445TIP3    H128750   3.193   2.992   2.002 -1.3231 -1.7699  2.1511
 2445TIP3    H228751   3.169   3.037   2.144  2.0055  4.1027  1.1885
 2446TIP3   OH228752   5.077   6.471   0.368 -0.3442  0.1583 -0.4078
 2446TIP3    H128753   5.141   6.418   0.416  0.6629  0.4321 -1.4179
 2446TIP3    H228754   5.037   6.410   0.306 -1.9041 -0.2825  0.9633
 2447TIP3   OH228755   1.580   0.395   3.499  0.0547  0.6703  0.8681
 2447TIP3    H128756   1.610   0.484   3.516  0.4513  0.3953  1.6290
 2447TIP3    H228757   1.484   0.401   3.505  0.0919  0.9987  1.1673
 2448TIP3   OH228758   5.913   4.062   1.463 -0.1183 -0.6557 -0.0445
 2448TIP3    H128759   5.981   4.036   1.524 -0.6531  0.5945  1.1269
 2448TIP3    H228760   5.845   3.996   1.473 -1.3461  0.8757  2.7014
 2449TIP3   OH228761   3.408   5.125   0.436 -0.2626 -1.0606  0.1787
 2449TIP3    H128762   3.365   5.041   0.453 -1.1748 -0.6903 -0.2554
 2449TIP3    H228763   3.372   5.155   0.353 -0.0383 -0.1757  0.3878
 2450TIP3   OH228764   0.892   5.450   1.969  0.1546 -0.0937  0.2829
 2450TIP3    H128765   0.876   5.541   1.943 -1.7198 -0.1427  1.1039
 2450TIP3    H228766   0.962   5.420   1.911 -0.0597  1.4858 -0.8455
 2451TIP3   OH228767   3.951   2.796   5.595  0.5095 -0.3939  0.0544
 2451TIP3    H128768   3.916   2.777   5.508  0.8556  1.6418 -0.5902
 2451TIP3    H228769   4.045   2.780   5.587  0.3211 -1.8747  0.5841
 2452TIP3   OH228770   5.376   5.059   5.643  0.1007 -0.3438 -0.3772
 2452TIP3    H128771   5.438   5.110   5.696 -0.6500  1.6895 -1.3433
 2452TIP3    H228772   5.315   5.124   5.610 -0.3572 -1.7695 -2.5008
 2453TIP3   OH228773   5.616   3.958   3.678 -0.0706  0.0394  0.0148
 2453TIP3    H128774   5.710   3.968   3.693 -0.1594  1.6480 -0.3207
 2453TIP3    H228775   5.606   3.958   3.583 -0.5591  1.9729  0.0224
 2454TIP3   OH228776   1.744   6.511  14.873 -0.5686  0.0237 -0.1985
 2454TIP3    H128777   1.829   6.492  14.913 -0.2202 -0.7839 -1.2514
 2454TIP3    H228778   1.681   6.461  14.926 -0.3533  0.3510  0.3767
 2455TIP3   OH228779   5.011   2.527  17.194 -0.1514  0.0703 -0.2177
 2455TIP3    H128780   5.079   2.585  17.227 -0.9671  0.1105  1.5137
 2455TIP3    H228781   4.941   2.585  17.166 -0.4772 -0.0088  0.3933
 2456TIP3   OH228782   2.770   4.349  15.461  0.3571 -0.2739 -0.4238
 2456TIP3    H128783   2.840   4.414  15.465  0.4425 -0.2777 -1.5481
 2456TIP3    H228784   2.697   4.390  15.507  1.2359 -0.4793  1.2256
 2457TIP3   OH228785   4.856   6.343   3.778  0.0151 -0.1228 -0.6865
 2457TIP3    H128786   4.844   6.312   3.868  0.0722  0.9503 -0.2804
 2457TIP3    H228787   4.946   6.376   3.777  0.7478 -2.0472 -1.7665
 2458TIP3   OH228788   5.239   0.042   6.440  0.0574 -0.7029  0.5307
 2458TIP3    H128789   5.323   0.009   6.409 -0.6283 -0.8442 -1.3459
 2458TIP3    H228790   5.239   0.135   6.416 -0.5275 -0.8355 -0.0261
 2459TIP3   OH228791   5.620   1.769   1.180  0.2372  0.2778 -0.1631
 2459TIP3    H128792   5.573   1.687   1.165  1.5169 -0.7070  1.0449
 2459TIP3    H228793   5.665   1.786   1.097 -1.5909  0.8492 -1.0889
 2460TIP3   OH228794   1.276   1.588   2.620  0.1108 -0.0887  0.1887
 2460TIP3    H128795   1.246   1.523   2.556  0.5659 -0.0613 -0.0591
 2460TIP3    H228796   1.263   1.672   2.577  1.1314 -0.1071 -0.1840
 2461TIP3   OH228797   3.981   2.532   3.624  0.1114 -0.1902 -0.2312
 2461TIP3    H128798   3.990   2.610   3.678  0.7922  0.6643 -1.5178
 2461TIP3    H228799   3.896   2.495   3.649 -2.2064  3.1808 -2.3125
 2462TIP3   OH228800   1.230   1.937  11.070  0.0883 -0.3954  0.0397
 2462TIP3    H128801   1.249   1.846  11.050  0.3002 -0.3328 -0.0477
 2462TIP3    H228802   1.242   1.983  10.987  0.5242 -0.2039  0.2051
 2463TIP3   OH228803   5.249   6.114   2.669  0.0571  0.0486 -0.6090
 2463TIP3    H128804   5.159   6.110   2.703  0.3380 -1.3725  0.0304
 2463TIP3    H228805   5.295   6.043   2.714  1.2092 -0.0012 -1.8134
 2464TIP3   OH228806   3.470   3.904   5.344  0.0163 -0.1673  0.5915
 2464TIP3    H128807   3.405   3.856   5.396 -1.3033 -0.3399 -1.1333
 2464TIP3    H228808   3.506   3.969   5.404 -0.2992 -1.3803  2.1452
 2465TIP3   OH228809   4.100   5.927   0.764 -0.3371  0.1591 -0.0564
 2465TIP3    H128810   4.164   5.998   0.762 -0.1667  0.0183 -2.6673
 2465TIP3    H228811   4.018   5.969   0.788  0.1034  0.9068  0.1690
 2466TIP3   OH228812   1.363   0.463   5.265 -0.3443 -0.1592  0.9126
 2466TIP3    H128813   1.454   0.467   5.234 -0.0424 -1.9998  1.4210
 2466TIP3    H228814   1.366   0.500   5.353 -0.5013  1.6351  0.2024
 2467TIP3   OH228815   5.551   3.155  16.411  1.0977 -0.0350  0.2905
 2467TIP3    H128816   5.620   3.126  16.352  1.7926 -0.4811  1.2880
 2467TIP3    H228817   5.513   3.074  16.446  0.6052  0.2168  0.3546
 2468TIP3   OH228818   0.664   4.179   5.211 -0.3696 -0.2679 -0.1902
 2468TIP3    H128819   0.684   4.108   5.272 -0.3103  0.6957  0.9648
 2468TIP3    H228820   0.601   4.234   5.258  0.1632  0.8453 -0.7185
 2469TIP3   OH228821   3.292   1.675   1.870  0.2543 -0.6351  0.2670
 2469TIP3    H128822   3.323   1.585   1.875  0.4946 -0.5519  0.2680
 2469TIP3    H228823   3.365   1.723   1.831 -1.2118 -1.1452 -3.5366
 2470TIP3   OH228824   3.187   2.623  13.096  0.2207  0.2341 -0.3189
 2470TIP3    H128825   3.176   2.718  13.103  0.6768  0.3536 -1.0906
 2470TIP3    H228826   3.108   2.593  13.050 -0.5198  0.0577  0.9972
 2471TIP3   OH228827   0.396   5.696   4.231 -0.2438 -0.3086 -0.8056
 2471TIP3    H128828   0.475   5.647   4.252 -1.0288 -0.9257  0.8666
 2471TIP3    H228829   0.325   5.634   4.243 -0.9387 -0.2820 -4.0060
 2472TIP3   OH228830   4.380   4.185  16.582  0.1283  0.4680 -0.4520
 2472TIP3    H128831   4.442   4.252  16.556 -0.6295  1.4783  0.2714
 2472TIP3    H228832   4.432   4.104  16.587  1.5948  1.4361  0.9668
 2473TIP3   OH228833   1.800   0.213  11.815  0.5657  0.0716  0.4176
 2473TIP3    H128834   1.799   0.220  11.719  1.4966 -0.3797  0.3696
 2473TIP3    H228835   1.724   0.157  11.835  0.7468 -0.3769 -0.1107
 2474TIP3   OH228836   3.947   1.826  12.114  0.1091  0.7758 -0.2898
 2474TIP3    H128837   4.032   1.847  12.155  0.6705  2.3194 -2.1131
 2474TIP3    H228838   3.884   1.881  12.162  0.2378  0.2005  0.5639
 2475TIP3   OH228839   0.741   1.276  14.396 -0.1477  0.4462 -0.2139
 2475TIP3    H128840   0.799   1.344  14.362 -1.0432  1.2394 -0.2132
 2475TIP3    H228841   0.771   1.262  14.486  0.7245  0.0549 -0.5551
 2476TIP3   OH228842   0.159   4.622  11.722  0.4029  0.3765 -0.9685
 2476TIP3    H128843   0.202   4.705  11.702 -0.4676  1.3890  1.0839
 2476TIP3    H228844   0.210   4.556  11.675  1.2991  2.0247 -2.4010
 2477TIP3   OH228845   0.174   5.931   2.750  0.4009  0.6792  0.9092
 2477TIP3    H128846   0.216   5.953   2.667  0.5418 -0.5187  0.6368
 2477TIP3    H228847   0.239   5.953   2.817  1.2812 -0.6141  0.5312
 2478TIP3   OH228848   4.951   3.983  13.736 -0.2357  0.0974 -0.6289
 2478TIP3    H128849   4.860   4.014  13.738 -0.2609 -0.0038  0.1912
 2478TIP3    H228850   4.949   3.908  13.677 -1.4943 -2.2491  2.1378
 2479TIP3   OH228851   2.661   2.782  13.951 -0.1161  0.0494  0.0787
 2479TIP3    H128852   2.710   2.853  13.992 -0.5876 -0.1653  1.0397
 2479TIP3    H228853   2.728   2.720  13.921  0.3318  1.1687 -1.3176
 2480TIP3   OH228854   6.641   6.135  12.260 -0.0372 -0.3331  0.5675
 2480TIP3    H128855   6.605   6.048  12.245 -1.3328 -0.3114  2.9737
 2480TIP3    H228856   6.581   6.194  12.216  0.3007 -0.5874 -0.2485
 2481TIP3   OH228857   0.643   2.129   1.249  0.3139  0.6153 -0.1385
 2481TIP3    H128858   0.592   2.116   1.329 -0.7543 -3.8058 -1.2600
 2481TIP3    H228859   0.733   2.105   1.273  0.2462  0.5473  0.0487
 2482TIP3   OH228860   1.033   6.449  11.628  0.0426 -0.4692 -0.1039
 2482TIP3    H128861   0.976   6.525  11.641 -0.2796 -0.5767 -0.7953
 2482TIP3    H228862   1.057   6.420  11.716 -0.6939 -0.2126  0.1849
 2483TIP3   OH228863   3.245   4.086  15.345  0.0592 -0.2727  0.3278
 2483TIP3    H128864   3.316   4.150  15.344  0.1451 -0.3372  1.2348
 2483TIP3    H228865   3.264   4.027  15.271 -0.0306  0.7382 -0.5212
 2484TIP3   OH228866   1.822   4.805   0.844 -0.0190 -0.0343  0.3596
 2484TIP3    H128867   1.907   4.849   0.837  0.0263 -0.3352 -1.4044
 2484TIP3    H228868   1.759   4.877   0.849  0.2360  0.2137  0.0881
 2485TIP3   OH228869   3.832   4.951   5.398 -0.3115  0.3948  0.7998
 2485TIP3    H128870   3.897   4.992   5.342  0.3850  1.7224  2.4697
 2485TIP3    H228871   3.880   4.885   5.448 -0.5932  0.2537  0.8900
 2486TIP3   OH228872   4.293   2.057  14.815 -0.2002 -0.4135 -0.1921
 2486TIP3    H128873   4.213   2.060  14.763 -0.9296  0.2492  0.9316
 2486TIP3    H228874   4.300   2.145  14.854  0.7589 -0.6429  0.1799
 2487TIP3   OH228875   3.008   2.076  13.682 -0.3506  0.0279 -0.2139
 2487TIP3    H128876   3.016   2.166  13.714 -1.3005 -0.3333  1.1132
 2487TIP3    H228877   2.951   2.081  13.606 -1.2666  0.4256  0.4911
 2488TIP3   OH228878   6.598   1.667   3.118 -0.0111 -0.2199 -0.2569
 2488TIP3    H128879   6.588   1.648   3.025  1.4754  1.2369 -0.7823
 2488TIP3    H228880   6.609   1.762   3.122 -1.7040 -0.0249  1.6046
 2489TIP3   OH228881   0.757   1.334   5.467  0.1714  0.4683 -0.1212
 2489TIP3    H128882   0.694   1.359   5.535 -0.5914 -1.4829 -0.0417
 2489TIP3    H228883   0.774   1.415   5.419 -0.7904  1.4776  1.1526
 2490TIP3   OH228884   4.969   3.658  13.246  0.2374 -0.1240  0.3260
 2490TIP3    H128885   4.913   3.735  13.234 -0.9490 -0.9252  0.5213
 2490TIP3    H228886   4.908   3.584  13.245  1.3843 -1.0892 -0.1182
 2491TIP3   OH228887   4.611   5.875   0.421 -0.5650  0.5238 -0.6908
 2491TIP3    H128888   4.667   5.885   0.498  0.1838 -3.5593 -0.4920
 2491TIP3    H228889   4.660   5.916   0.350  0.7282  0.6767  0.2518
 2492TIP3   OH228890   4.736   4.773  15.723 -0.0303  0.1221 -0.5508
 2492TIP3    H128891   4.685   4.842  15.681 -1.9619 -0.4010  0.8389
 2492TIP3    H228892   4.825   4.786  15.689 -1.0124  1.1104 -2.9949
 2493TIP3   OH228893   1.395   5.482  17.245 -0.1389 -0.0945  0.8827
 2493TIP3    H128894   1.369   5.566  17.281  0.1126 -0.6778  2.5089
 2493TIP3    H228895   1.488   5.474  17.268  0.2240 -0.1949 -0.5317
 2494TIP3   OH228896   1.177   0.086  13.072 -0.4096 -0.0450 -0.0235
 2494TIP3    H128897   1.137   0.121  12.993  0.6868  1.8521  0.2078
 2494TIP3    H228898   1.124   0.010  13.095 -4.4665  2.7360  0.7891
 2495TIP3   OH228899   1.939   1.501  11.188 -0.0848  0.2538 -0.2773
 2495TIP3    H128900   1.846   1.515  11.170  0.3111  1.4620 -1.6048
 2495TIP3    H228901   1.979   1.493  11.101  1.0375 -0.4460  0.2757
 2496TIP3   OH228902   1.632   0.931   3.949  0.0696 -0.1948 -0.3174
 2496TIP3    H128903   1.670   1.009   3.908 -0.3602  0.0210 -0.3144
 2496TIP3    H228904   1.568   0.899   3.886 -2.0607  1.2898  0.9438
 2497TIP3   OH228905   3.739   2.644   1.911 -1.1056 -0.4966  0.0281
 2497TIP3    H128906   3.683   2.612   1.841 -1.9614 -1.4372  1.1206
 2497TIP3    H228907   3.690   2.717   1.949 -1.1795 -0.7521  0.4180
 2498TIP3   OH228908   4.928   0.540   5.011  0.0910  0.3110  0.2640
 2498TIP3    H128909   4.920   0.519   4.918 -1.7491 -0.9778  0.6770
 2498TIP3    H228910   4.993   0.478   5.045  0.7433  0.7640 -0.1151
 2499TIP3   OH228911   1.297   4.861  14.437  0.2753 -0.2071  0.4808
 2499TIP3    H128912   1.337   4.882  14.352  0.2731 -0.8607  0.3084
 2499TIP3    H228913   1.219   4.916  14.442  1.0416  0.8811  0.6952
 2500TIP3   OH228914   2.913   1.010  14.245  0.1613  0.2877 -0.1117
 2500TIP3    H128915   2.951   0.926  14.219 -1.8841 -0.7478  0.0613
 2500TIP3    H228916   2.966   1.038  14.320  2.2762  0.3245 -1.5249
 2501TIP3   OH228917   6.418   1.960   5.377 -0.2835  0.3005  0.8750
 2501TIP3    H128918   6.351   2.027   5.392 -0.4447 -0.0140  1.6360
 2501TIP3    H228919   6.501   2.006   5.387 -0.3818  0.6275  0.2283
 2502TIP3   OH228920   3.225   3.336  11.839 -0.0396  0.8375 -0.1735
 2502TIP3    H128921   3.159   3.323  11.906  0.5207  3.7053  1.1023
 2502TIP3    H228922   3.240   3.249  11.802 -2.5162 -0.3345  1.3416
 2503TIP3   OH228923   5.734   0.388   1.928  0.2651  0.0190  0.0080
 2503TIP3    H128924   5.681   0.374   1.850 -0.6168  0.1918  0.5612
 2503TIP3    H228925   5.772   0.302   1.948  0.9367  0.0831 -0.9008
 2504TIP3   OH228926   4.169   4.041  10.731 -0.1466 -0.0658  0.8568
 2504TIP3    H128927   4.227   3.973  10.765  0.0415 -0.7749 -0.7822
 2504TIP3    H228928   4.226   4.116  10.716 -0.0047 -0.1421  1.0159
 2505TIP3   OH228929   6.006   0.537   5.658 -0.6425 -0.5801  0.0108
 2505TIP3    H128930   6.023   0.545   5.752 -0.6920 -2.2436  0.1839
 2505TIP3    H228931   5.959   0.455   5.648 -1.2930 -0.0733 -1.4055
 2506TIP3   OH228932   4.076   3.421   2.790 -0.2092 -0.1928  0.2155
 2506TIP3    H128933   4.082   3.505   2.745 -1.5676 -0.8360 -1.2656
 2506TIP3    H228934   4.097   3.356   2.723  1.2634 -1.0502  1.4521
 2507TIP3   OH228935   6.038   6.559  10.664  0.5299 -0.4931  0.9920
 2507TIP3    H128936   5.987   6.498  10.610  0.5484  1.0643 -0.8995
 2507TIP3    H228937   6.124   6.563  10.621  0.1467  1.7519  0.2970
 2508TIP3   OH228938   5.976   1.623   5.457  0.3483 -0.1426  0.3985
 2508TIP3    H128939   5.974   1.708   5.413 -1.4460 -0.8886 -1.0878
 2508TIP3    H228940   5.936   1.639   5.542  1.1880  0.7340  0.6483
 2509TIP3   OH228941   6.563   5.508   5.251 -0.1899  0.0530 -0.3777
 2509TIP3    H128942   6.549   5.559   5.172 -1.0924 -1.3300 -1.1531
 2509TIP3    H228943   6.615   5.565   5.308 -3.2982  2.9229 -0.0627
 2510TIP3   OH228944   2.922   3.439  15.859 -0.3261 -0.5014  0.7527
 2510TIP3    H128945   2.910   3.485  15.775 -0.3903 -0.0285  1.0171
 2510TIP3    H228946   2.987   3.491  15.905  1.1634 -1.8309  0.2282
 2511TIP3   OH228947   0.867   4.565  11.679 -0.2023  0.7742  0.1558
 2511TIP3    H128948   0.818   4.532  11.755 -0.8498 -1.4259 -1.1202
 2511TIP3    H228949   0.801   4.603  11.622 -0.4116 -1.4306 -1.1827
 2512TIP3   OH228950   4.094   4.938   2.999  0.3683  0.6589  0.6631
 2512TIP3    H128951   4.118   4.989   3.076 -1.3980 -2.2008  3.3514
 2512TIP3    H228952   4.002   4.914   3.014  0.6217 -1.8615 -1.2066
 2513TIP3   OH228953   2.572   5.415   4.985 -0.4083 -0.0441  0.5336
 2513TIP3    H128954   2.480   5.402   4.961 -1.3309  1.7476  2.7998
 2513TIP3    H228955   2.583   5.367   5.067  0.5628  0.1524  0.5330
 2514TIP3   OH228956   0.310   0.627  17.044 -0.0434 -0.1022 -0.3913
 2514TIP3    H128957   0.294   0.587  16.958 -0.8870 -0.3120 -0.1496
 2514TIP3    H228958   0.225   0.624  17.088 -0.0419  1.6266 -0.2107
 2515TIP3   OH228959   4.561   4.672   2.454 -0.4354 -0.6871  0.0952
 2515TIP3    H128960   4.641   4.665   2.506 -0.3494 -1.1823 -0.1006
 2515TIP3    H228961   4.507   4.598   2.483 -1.2456  0.1975  0.9385
 2516TIP3   OH228962   4.048   5.503  16.633 -0.6600  1.0240  0.3291
 2516TIP3    H128963   3.991   5.579  16.620 -2.0414  0.0167  0.1444
 2516TIP3    H228964   4.084   5.514  16.720 -1.7886  1.3294  0.7781
 2517TIP3   OH228965   0.777   2.479  14.093 -0.0055  0.2115  0.1586
 2517TIP3    H128966   0.683   2.485  14.074 -0.0767 -0.6334  0.2232
 2517TIP3    H228967   0.801   2.390  14.069  1.0553  0.7745 -1.0089
 2518TIP3   OH228968   3.189   0.816  11.306  0.3052 -0.0146  0.1212
 2518TIP3    H128969   3.215   0.732  11.344 -0.4781 -0.5858 -0.5423
 2518TIP3    H228970   3.145   0.863  11.377  0.9410 -0.0745  0.5549
 2519TIP3   OH228971   2.566   1.114  12.779 -0.4910 -0.0771  0.1619
 2519TIP3    H128972   2.593   1.205  12.786 -0.3968 -0.0545 -0.4252
 2519TIP3    H228973   2.505   1.113  12.705 -1.5027 -0.2639  0.9853
 2520TIP3   OH228974   0.179   6.343   3.499 -0.4980 -0.0955  0.1410
 2520TIP3    H128975   0.228   6.426   3.497  1.3950 -1.1279  0.9953
 2520TIP3    H228976   0.196   6.307   3.586 -2.5440 -0.7017  0.3406
 2521TIP3   OH228977   5.870   6.342  10.606 -0.3965 -0.3938  0.2281
 2521TIP3    H128978   5.845   6.321  10.516  0.7336  0.1067 -0.2204
 2521TIP3    H228979   5.815   6.285  10.660 -1.8134  0.0109 -0.7280
 2522TIP3   OH228980   5.423   4.875  15.512  0.3294 -0.3005  0.5423
 2522TIP3    H128981   5.346   4.887  15.456  1.0454 -1.0717 -0.6634
 2522TIP3    H228982   5.457   4.789  15.488  1.1058 -0.3117  1.6304
 2523TIP3   OH228983   0.002   3.970   1.116  0.0402  0.3663  0.6048
 2523TIP3    H128984  -0.026   3.897   1.171 -0.1232  0.2214  0.3331
 2523TIP3    H228985  -0.063   3.974   1.046 -1.4473  2.4265  1.9902
 2524TIP3   OH228986   4.977   1.932  15.108  0.0534  0.3721 -0.2521
 2524TIP3    H128987   4.889   1.900  15.124  0.7617 -1.0642  1.1433
 2524TIP3    H228988   5.030   1.852  15.101  1.3620  1.2091 -0.2155
 2525TIP3   OH228989   5.069   1.008  16.668  0.2751  0.1151 -0.1046
 2525TIP3    H128990   5.123   1.087  16.668 -1.3922  1.3314 -1.3700
 2525TIP3    H228991   5.102   0.956  16.741  1.4437  1.9765  0.7588
 2526TIP3   OH228992   0.462   1.422   1.422 -0.8337  0.1240 -0.2349
 2526TIP3    H128993   0.527   1.449   1.358 -0.1328 -1.2465 -0.1449
 2526TIP3    H228994   0.384   1.401   1.370 -0.3206 -0.8318 -0.6444
 2527TIP3   OH228995   1.899   1.000   5.065 -0.2043  0.4751 -0.0644
 2527TIP3    H128996   1.818   0.976   5.111 -0.1020  1.9063  0.9194
 2527TIP3    H228997   1.968   0.954   5.112 -0.3515 -0.2049 -0.4877
 2528TIP3   OH228998   1.820   1.471  16.240  0.0033 -0.3370 -0.2499
 2528TIP3    H128999   1.814   1.420  16.159  0.2800 -1.5256  0.4457
 2528TIP3    H229000   1.760   1.426  16.300 -0.1301  0.4793  0.2422
 2529TIP3   OH229001   3.469   0.898  10.461 -0.1978 -0.1472 -0.3130
 2529TIP3    H129002   3.510   0.964  10.404 -0.8459  1.9119  1.4715
 2529TIP3    H229003   3.504   0.917  10.548 -1.0173 -1.6916  0.3924
 2530TIP3   OH229004   1.828   1.548   4.533  0.2169 -0.0475  0.2288
 2530TIP3    H129005   1.808   1.480   4.597 -4.0193  0.3875 -0.2963
 2530TIP3    H229006   1.830   1.503   4.448 -0.6458  0.1790  0.0771
 2531TIP3   OH229007   4.643   6.025  11.278  0.0976  0.0981  0.0513
 2531TIP3    H129008   4.673   6.063  11.195  0.8867  1.3451  0.8979
 2531TIP3    H229009   4.549   6.044  11.281 -0.3212 -1.4327 -1.3101
 2532TIP3   OH229010   1.330   0.328  13.262  0.1427  0.0340  0.1197
 2532TIP3    H129011   1.328   0.234  13.242 -0.0775  0.1216 -0.2848
 2532TIP3    H229012   1.389   0.365  13.196  0.7216  0.0898  0.6708
 2533TIP3   OH229013   0.993   5.438  14.117  0.0120  0.8908 -0.3255
 2533TIP3    H129014   0.991   5.348  14.084  1.0589  1.3968 -1.8935
 2533TIP3    H229015   1.013   5.429  14.210  3.4096 -0.4573 -1.0349
 2534TIP3   OH229016   4.407   2.299   3.366 -0.3866  0.2001  0.2167
 2534TIP3    H129017   4.404   2.217   3.416  1.3500  1.0898  1.9461
 2534TIP3    H229018   4.347   2.358   3.412 -0.2333  0.4458  0.1054
 2535TIP3   OH229019   4.372   5.997  16.453  0.3466 -0.0085  0.5744
 2535TIP3    H129020   4.328   5.984  16.369  1.1207 -0.6077  0.2494
 2535TIP3    H229021   4.329   5.936  16.512 -1.3658  1.6152  1.0784
 2536TIP3   OH229022   6.661   6.007  13.554 -0.4601  0.4555  0.5734
 2536TIP3    H129023   6.744   6.027  13.596 -0.7373  2.4963  0.2496
 2536TIP3    H229024   6.678   5.927  13.503  1.8595  1.8412 -0.9920
 2537TIP3   OH229025   1.562   5.505  11.737 -0.0693  0.0025 -0.5735
 2537TIP3    H129026   1.466   5.506  11.740 -0.0799 -1.6426  0.6965
 2537TIP3    H229027   1.582   5.484  11.645 -0.8825  0.8255 -0.9658
 2538TIP3   OH229028   5.277   4.744   0.454  0.1414 -0.3724  0.2728
 2538TIP3    H129029   5.308   4.813   0.395 -0.8064  1.8446  2.1710
 2538TIP3    H229030   5.337   4.671   0.440  1.3860  0.9156 -1.6546
 2539TIP3   OH229031   0.546   1.258   5.220 -0.1619 -0.3581  0.6219
 2539TIP3    H129032   0.631   1.259   5.264  0.6824  2.0884 -0.8237
 2539TIP3    H229033   0.556   1.194   5.149  0.7193  0.3402  0.0942
 2540TIP3   OH229034   0.691   2.122   3.852  0.2704  0.1106 -0.2479
 2540TIP3    H129035   0.666   2.181   3.781  0.5616  0.8703  0.2813
 2540TIP3    H229036   0.782   2.099   3.834  0.3212  0.2430 -0.1559
 2541TIP3   OH229037   1.937   3.800   3.805 -0.1482  0.3427  0.6750
 2541TIP3    H129038   2.021   3.832   3.772 -0.8416  1.4367 -0.1192
 2541TIP3    H229039   1.881   3.878   3.807 -1.7910 -0.6973 -0.9807
 2542TIP3   OH229040   4.717   4.855   1.162 -0.3002  0.9056 -0.1766
 2542TIP3    H129041   4.732   4.941   1.123 -0.3070  0.7416 -0.5430
 2542TIP3    H229042   4.740   4.793   1.093  1.7850  0.5448  0.7771
 2543TIP3   OH229043   3.558   0.971   4.888  0.2202 -0.1173 -0.7137
 2543TIP3    H129044   3.511   0.966   4.971  1.3125  0.6038 -0.0434
 2543TIP3    H229045   3.498   1.018   4.830 -1.0009 -1.5477 -0.6905
 2544TIP3   OH229046   3.501   6.280  11.298  0.0480 -0.1013 -0.1047
 2544TIP3    H129047   3.585   6.275  11.345  0.1279 -1.8591 -0.3460
 2544TIP3    H229048   3.446   6.336  11.353  0.9895  0.0677  0.7002
 2545TIP3   OH229049   1.061   5.852   3.680 -0.1425  0.5561 -0.3760
 2545TIP3    H129050   1.142   5.802   3.695  1.0153  2.4972  0.2493
 2545TIP3    H229051   0.993   5.785   3.672  1.5817 -1.1891 -1.4885
 2546TIP3   OH229052   5.774   5.316   1.219 -0.3601 -0.4863 -0.2377
 2546TIP3    H129053   5.840   5.380   1.246 -0.3083 -0.3722 -0.6377
 2546TIP3    H229054   5.824   5.237   1.198 -0.2869 -0.2127 -1.1310
 2547TIP3   OH229055   3.185   6.126  10.999 -0.4281 -0.1089  0.5918
 2547TIP3    H129056   3.253   6.114  10.933  0.4158  1.3909  1.1511
 2547TIP3    H229057   3.219   6.081  11.077 -1.5776 -2.1819 -0.0215
 2548TIP3   OH229058   5.350   5.581  14.472  0.4788  0.1868 -0.2257
 2548TIP3    H129059   5.314   5.622  14.550 -1.8721 -1.8679 -0.1003
 2548TIP3    H229060   5.438   5.555  14.496  1.3349  3.2246  0.3045
 2549TIP3   OH229061   3.405   0.325   2.582  0.3991 -0.8716 -0.3257
 2549TIP3    H129062   3.486   0.352   2.626 -0.6381  0.1491  1.0435
 2549TIP3    H229063   3.377   0.401   2.532 -1.5913  0.1621  2.1282
 2550TIP3   OH229064   2.203   5.562  14.451 -0.1737  0.7623  0.0322
 2550TIP3    H129065   2.169   5.651  14.437 -1.7679 -0.0276 -1.4081
 2550TIP3    H229066   2.134   5.505  14.418  0.9012 -1.0312  0.7832
 2551TIP3   OH229067   6.096   2.008   3.527 -0.3501  0.3388 -0.2148
 2551TIP3    H129068   6.158   1.939   3.504 -0.9801  0.1411 -1.4048
 2551TIP3    H229069   6.125   2.039   3.613 -1.1117 -2.6178  1.2202
 2552TIP3   OH229070   6.466   6.727   5.326 -0.0299  0.4966  0.1293
 2552TIP3    H129071   6.493   6.764   5.242 -0.1216 -0.7705 -0.4865
 2552TIP3    H229072   6.494   6.635   5.321 -2.1352 -0.2175  0.5165
 2553TIP3   OH229073   1.984   3.061   0.007  0.2781  0.0536 -0.7212
 2553TIP3    H129074   2.004   3.121  -0.066 -0.4905  1.4184  0.1373
 2553TIP3    H229075   2.069   3.028   0.035  0.8863  1.6834 -0.4842
 2554TIP3   OH229076   1.574   1.061   1.075  0.0020  0.1040 -0.3917
 2554TIP3    H129077   1.579   0.976   1.119 -1.9340 -0.6875 -1.5518
 2554TIP3    H229078   1.513   1.112   1.129 -0.6269 -0.0702 -0.9321
 2555TIP3   OH229079   5.446   3.850  13.891 -0.8308  1.3022  0.2819
 2555TIP3    H129080   5.420   3.893  13.809 -0.8143  1.1292  0.1857
 2555TIP3    H229081   5.538   3.874  13.901 -0.5798  0.5796 -0.2232
 2556TIP3   OH229082   1.346   2.585  15.304 -0.0836  0.1718 -0.0654
 2556TIP3    H129083   1.250   2.589  15.298 -0.0424  1.6056 -0.0573
 2556TIP3    H229084   1.375   2.676  15.294  1.4045 -0.4417 -1.8502
 2557TIP3   OH229085   6.412   1.322   5.552  0.2553 -1.0144 -0.3699
 2557TIP3    H129086   6.495   1.357   5.583  0.9165 -2.3892 -0.4822
 2557TIP3    H229087   6.399   1.243   5.605 -1.0245 -0.7831 -0.3101
 2558TIP3   OH229088   0.048   0.673   6.289  0.1097 -0.0789 -0.7600
 2558TIP3    H129089  -0.043   0.675   6.318  0.4195 -1.0630  0.3875
 2558TIP3    H229090   0.081   0.761   6.307 -0.3473 -0.0134 -0.2117
 2559TIP3   OH229091   5.841   3.164  10.769  0.0110  0.0666  0.3707
 2559TIP3    H129092   5.797   3.239  10.810  0.9239 -0.7229  3.0504
 2559TIP3    H229093   5.928   3.196  10.747 -0.3796  0.4106 -0.7044
 2560TIP3   OH229094   1.661   0.744   2.943 -0.4279  0.7494 -0.4223
 2560TIP3    H129095   1.657   0.696   3.025 -1.4457  2.1123  0.3793
 2560TIP3    H229096   1.641   0.835   2.967 -2.6459  0.8916 -2.4009
 2561TIP3   OH229097   6.217   6.224   2.945 -0.1597 -0.2180  0.5374
 2561TIP3    H129098   6.233   6.288   3.015 -0.7413  0.0891  0.3949
 2561TIP3    H229099   6.236   6.139   2.985  0.1959  0.0083  0.8579
 2562TIP3   OH229100   4.735   3.490  11.534  0.1029  0.0300  0.1438
 2562TIP3    H129101   4.673   3.485  11.607 -0.5946 -2.0966 -0.5170
 2562TIP3    H229102   4.805   3.547  11.566 -1.2318  0.9124  1.6438
 2563TIP3   OH229103   2.112   2.758   1.030 -0.1014 -0.0805 -0.9943
 2563TIP3    H129104   2.074   2.695   0.968  1.2416 -1.7440 -0.2186
 2563TIP3    H229105   2.178   2.804   0.978  0.9668 -1.4133 -0.8664
 2564TIP3   OH229106   4.792   1.264  14.879  0.2761  0.2259 -0.4809
 2564TIP3    H129107   4.848   1.273  14.802  0.4257  0.1061 -0.3871
 2564TIP3    H229108   4.713   1.314  14.857  0.7788  1.1411 -0.2605
 2565TIP3   OH229109   4.013   6.538  12.272 -0.2933  0.9250  0.6787
 2565TIP3    H129110   3.975   6.615  12.315 -1.0367  1.2285 -0.4877
 2565TIP3    H229111   4.106   6.541  12.297 -0.5199  1.5913  1.5115
 2566TIP3   OH229112   3.595   5.132  15.627 -0.0720 -0.0416 -1.3161
 2566TIP3    H129113   3.667   5.171  15.677  0.8827 -0.7037 -2.1257
 2566TIP3    H229114   3.573   5.199  15.562  0.2418 -0.0711 -1.4568
 2567TIP3   OH229115   0.669   1.500   4.320 -0.3343  0.5828  0.0965
 2567TIP3    H129116   0.740   1.536   4.266 -0.8672  1.0719 -0.2794
 2567TIP3    H229117   0.599   1.481   4.259  0.6257 -3.1323 -0.0926
 2568TIP3   OH229118   6.548   2.793   4.271 -0.5575 -0.2845  0.0388
 2568TIP3    H129119   6.542   2.825   4.361 -0.8135 -1.3365  0.4088
 2568TIP3    H229120   6.490   2.717   4.269 -1.2004  0.2133 -1.2442
 2569TIP3   OH229121   1.883   5.840  16.100  0.0578  0.1287  0.2552
 2569TIP3    H129122   1.847   5.837  16.011  1.4090  1.7374 -0.4019
 2569TIP3    H229123   1.961   5.894  16.092 -0.9666  2.2186  2.8310
 2570TIP3   OH229124   4.445   4.008  15.740 -0.5608 -0.2137  0.5800
 2570TIP3    H129125   4.457   4.031  15.832  0.1201 -2.5714  1.1607
 2570TIP3    H229126   4.391   3.929  15.742  0.3207 -0.9087 -0.9488
 2571TIP3   OH229127   4.260   5.447   1.534 -0.2904 -0.3806 -0.4550
 2571TIP3    H129128   4.226   5.526   1.492 -0.4226  0.2658  0.8252
 2571TIP3    H229129   4.324   5.412   1.472  1.7954  2.2390  0.0491
 2572TIP3   OH229130   1.270   5.541   3.414  0.7447 -0.7144  0.1996
 2572TIP3    H129131   1.246   5.632   3.396  1.2126 -0.3944  1.1426
 2572TIP3    H229132   1.359   5.532   3.381  1.8540  0.0559  2.7152
 2573TIP3   OH229133   4.788   0.707  10.664  0.4151 -0.0571 -0.1974
 2573TIP3    H129134   4.725   0.768  10.702  0.2006  0.7331 -1.7466
 2573TIP3    H229135   4.871   0.729  10.707  0.4458  1.6811 -1.0660
 2574TIP3   OH229136   5.682   1.865   1.431  0.5361  0.1752  0.1225
 2574TIP3    H129137   5.676   1.823   1.345  2.7996 -0.9279  0.4344
 2574TIP3    H229138   5.613   1.824   1.483  0.3940 -0.5536 -0.6199
 2575TIP3   OH229139   4.792   0.194  15.800 -0.4495  0.3035 -0.0719
 2575TIP3    H129140   4.788   0.113  15.749 -0.1176 -0.1457  0.6001
 2575TIP3    H229141   4.708   0.197  15.846  0.3716 -0.7913  1.5695
 2576TIP3   OH229142   5.047   1.577   6.046  0.8375  0.6696  0.6599
 2576TIP3    H129143   5.079   1.621   5.967  0.8966  0.0204  0.3165
 2576TIP3    H229144   4.952   1.583   6.040  0.8423  0.6263  0.5462
 2577TIP3   OH229145   2.121   3.993   6.301 -0.4699  0.2549  0.1109
 2577TIP3    H129146   2.206   3.958   6.325 -0.5561  0.3371  0.5466
 2577TIP3    H229147   2.058   3.933   6.340 -0.6559 -1.3975 -2.4827
 2578TIP3   OH229148   3.991   5.915   0.455  0.2976 -0.0198  1.0505
 2578TIP3    H129149   4.036   5.920   0.539 -1.0823 -1.3889  1.9330
 2578TIP3    H229150   3.937   5.994   0.451  0.5947  0.1959  1.3212
 2579TIP3   OH229151   2.765   3.332  10.443  0.1026 -0.1816 -0.4395
 2579TIP3    H129152   2.840   3.380  10.479 -0.4017 -1.6266  2.9086
 2579TIP3    H229153   2.805   3.265  10.388  0.9331  2.1020 -2.7878
 2580TIP3   OH229154   5.911   4.822  13.820  0.2401 -0.0107 -0.5237
 2580TIP3    H129155   5.853   4.847  13.892  1.8018 -0.5630  0.9993
 2580TIP3    H229156   5.893   4.729  13.806  0.6540 -0.1544 -0.1280
 2581TIP3   OH229157   5.293   3.357  15.911  0.1699  0.5196  0.1390
 2581TIP3    H129158   5.232   3.431  15.916 -1.7918 -1.0320  0.5900
 2581TIP3    H229159   5.321   3.355  15.820 -2.0494  0.1500 -0.6017
 2582TIP3   OH229160   3.724   4.789  10.281 -0.3920  0.1130  0.1126
 2582TIP3    H129161   3.723   4.878  10.315 -1.8758 -0.6851  2.3360
 2582TIP3    H229162   3.658   4.743  10.332  1.3578 -2.6444  0.0726
 2583TIP3   OH229163   3.231   1.859   0.957  0.2466  0.1435  0.2083
 2583TIP3    H129164   3.274   1.885   1.039  0.0032 -2.1781  1.1472
 2583TIP3    H229165   3.142   1.893   0.966  0.3277  0.2281  0.7311
 2584TIP3   OH229166   4.773   2.478   3.107 -0.1630 -0.1272  0.6480
 2584TIP3    H129167   4.767   2.506   3.199  0.0893  0.9401  0.3506
 2584TIP3    H229168   4.713   2.403   3.101 -0.7073  0.2225  1.5162
 2585TIP3   OH229169   3.902   1.437  16.750 -0.2557  0.4683  0.4779
 2585TIP3    H129170   3.990   1.460  16.721 -0.8596  2.7807  0.3161
 2585TIP3    H229171   3.888   1.489  16.829 -1.2733 -0.3231  0.8460
 2586TIP3   OH229172   2.472   3.228   1.151  0.2513  0.1817  0.2366
 2586TIP3    H129173   2.503   3.181   1.228  1.4757  0.8020  0.1438
 2586TIP3    H229174   2.455   3.317   1.182  0.0980  0.2629 -0.0720
 2587TIP3   OH229175   3.325   4.299   3.685 -0.3464  0.0863 -0.2406
 2587TIP3    H129176   3.368   4.306   3.771  1.4242  1.7991 -1.1630
 2587TIP3    H229177   3.300   4.389   3.664  0.0915 -0.1503 -1.9067
 2588TIP3   OH229178   4.518   2.578  12.507 -0.3797  0.6238  0.2821
 2588TIP3    H129179   4.563   2.661  12.491 -0.5546  0.5569 -0.6011
 2588TIP3    H229180   4.451   2.572  12.438  0.3463 -0.7581 -0.3471
 2589TIP3   OH229181   2.021   3.393  14.172 -0.2187 -0.1965 -0.3075
 2589TIP3    H129182   1.981   3.336  14.238  0.4816  0.1040  0.4036
 2589TIP3    H229183   2.050   3.334  14.103 -0.3059 -0.6019  0.0006
 2590TIP3   OH229184   5.342   2.784   5.515  0.4497 -0.0824 -0.2990
 2590TIP3    H129185   5.356   2.738   5.597 -0.8148  1.1607  0.6669
 2590TIP3    H229186   5.248   2.776   5.499  0.6595 -0.1772 -1.5555
 2591TIP3   OH229187   5.796   3.904   5.785  0.2972 -0.2229 -0.4430
 2591TIP3    H129188   5.716   3.879   5.740 -1.0640  0.1167  1.6594
 2591TIP3    H229189   5.841   3.963   5.725 -0.2511 -1.5782 -2.2663
 2592TIP3   OH229190   5.298   6.076  11.385 -0.2399  0.2678 -0.1931
 2592TIP3    H129191   5.210   6.111  11.372  0.5876  2.0186 -1.6631
 2592TIP3    H229192   5.353   6.153  11.396  1.1054 -0.7932  0.8258
 2593TIP3   OH229193   1.255   5.615  15.915 -0.4913  0.1480 -0.1907
 2593TIP3    H129194   1.177   5.668  15.904 -1.4130 -1.0902  0.1352
 2593TIP3    H229195   1.312   5.667  15.971 -1.0907  1.0528 -0.4054
 2594TIP3   OH229196   0.161   6.044   3.190 -0.0336  0.0368 -0.0762
 2594TIP3    H129197   0.187   6.050   3.282  1.3686 -1.3539 -0.3430
 2594TIP3    H229198   0.143   5.951   3.176 -0.4258  0.2560 -1.1663
 2595TIP3   OH229199   3.728   2.460  12.260 -0.4119  0.1484  0.5252
 2595TIP3    H129200   3.639   2.448  12.227 -0.0123 -1.2946 -0.0720
 2595TIP3    H229201   3.721   2.448  12.354 -1.0717  1.5036  0.6863
 2596TIP3   OH229202   6.729   3.267   2.744  0.0878  0.1186 -0.0664
 2596TIP3    H129203   6.728   3.259   2.839 -0.8568 -1.2244 -0.1534
 2596TIP3    H229204   6.783   3.195   2.714  1.5060  1.3298 -0.5252
 2597TIP3   OH229205   3.180   2.889   0.225  0.3276  0.3151 -0.6117
 2597TIP3    H129206   3.208   2.915   0.138  1.7452  0.3242 -0.1807
 2597TIP3    H229207   3.255   2.840   0.260 -0.4959 -0.3031  0.3262
 2598TIP3   OH229208   6.624   0.671  17.181 -0.2695  0.0817  0.8316
 2598TIP3    H129209   6.607   0.738  17.248  0.8629  1.2514 -0.0007
 2598TIP3    H229210   6.539   0.630  17.166 -1.1519  1.7888  0.9178
 2599TIP3   OH229211   0.243   3.233   5.928 -0.5632 -0.3041  0.2602
 2599TIP3    H129212   0.274   3.272   6.009 -1.8812 -0.9137  1.1044
 2599TIP3    H229213   0.188   3.160   5.956 -0.9480 -0.6109 -1.1889
 2600TIP3   OH229214   0.693   4.933  11.123 -0.2511  0.0578 -0.6700
 2600TIP3    H129215   0.631   4.907  11.055 -0.5529  0.1337 -0.4262
 2600TIP3    H229216   0.735   5.012  11.088 -2.5883  1.9318  0.4881
 2601TIP3   OH229217   1.575   5.017   3.611 -0.5179 -0.1021  0.3101
 2601TIP3    H129218   1.609   5.097   3.651 -1.7254 -0.7573  2.8187
 2601TIP3    H229219   1.485   5.038   3.587 -0.3012 -0.2197 -0.6710
 2602TIP3   OH229220   6.165   4.176  15.660 -0.5261  0.5620  0.3744
 2602TIP3    H129221   6.171   4.271  15.653 -1.5031  0.7690  1.8282
 2602TIP3    H229222   6.216   4.154  15.738 -1.1475  0.0241  0.6491
 2603TIP3   OH229223   4.329   3.846   0.591  0.6870 -0.3019  0.2110
 2603TIP3    H129224   4.396   3.792   0.634  0.6248 -0.9688 -0.4983
 2603TIP3    H229225   4.378   3.900   0.529  0.8171  0.9191  1.3403
 2604TIP3   OH229226   3.487   4.733   3.383 -0.2535 -0.1747 -0.1587
 2604TIP3    H129227   3.499   4.666   3.450 -1.1700 -0.9187 -0.6941
 2604TIP3    H229228   3.400   4.769   3.401 -0.3666 -0.1466 -0.7331
 2605TIP3   OH229229   1.432   0.194  12.964 -0.4546 -0.3704  0.0956
 2605TIP3    H129230   1.510   0.226  13.009 -0.5585  0.7247 -0.4539
 2605TIP3    H229231   1.371   0.173  13.034 -0.2366  0.3099  0.5040
 2606TIP3   OH229232   3.602   1.016   0.430  0.1196 -0.0558  0.5273
 2606TIP3    H129233   3.682   0.965   0.420  0.5226  0.7875 -0.8742
 2606TIP3    H229234   3.619   1.073   0.506  1.8012  1.6994 -1.0539
 2607TIP3   OH229235   6.236   0.709  11.141 -0.0423 -0.6345  0.4256
 2607TIP3    H129236   6.311   0.764  11.160 -0.4591  0.2086 -0.2729
 2607TIP3    H229237   6.174   0.767  11.097 -0.4972 -1.6599 -0.3425
 2608TIP3   OH229238   1.968   0.284  17.090 -0.2654 -0.2635  0.3910
 2608TIP3    H129239   1.915   0.364  17.083  0.4153  0.2656  1.0374
 2608TIP3    H229240   1.956   0.256  17.180 -1.3071 -1.4945 -0.1051
 2609TIP3   OH229241   2.615   1.266  11.492  0.1604  0.8178  0.6365
 2609TIP3    H129242   2.698   1.232  11.527  0.4086  0.5274 -0.2044
 2609TIP3    H229243   2.585   1.328  11.559 -0.0390 -0.6367  1.9549
 2610TIP3   OH229244   6.530   2.318  15.283  0.3407  0.2001  0.0597
 2610TIP3    H129245   6.509   2.410  15.297  3.2225  0.8368  0.8134
 2610TIP3    H229246   6.562   2.315  15.192  1.0632  0.1236  0.3139
 2611TIP3   OH229247   3.277   0.156  10.516  0.4935 -0.7072  0.3881
 2611TIP3    H129248   3.229   0.189  10.591  0.8263  0.4692  0.0998
 2611TIP3    H229249   3.282   0.230  10.455  0.3893 -1.5702 -0.7162
 2612TIP3   OH229250   5.194   5.415   3.762 -0.8172 -0.1779  0.1726
 2612TIP3    H129251   5.103   5.400   3.740 -0.9785  0.7970  0.1322
 2612TIP3    H229252   5.192   5.465   3.844 -0.3873  1.2280 -0.6386
 2613TIP3   OH229253   1.846   4.713  14.429  0.5272 -0.0907 -0.3691
 2613TIP3    H129254   1.831   4.629  14.386 -0.0223 -0.8957  1.3204
 2613TIP3    H229255   1.772   4.768  14.402 -2.0619 -1.8520  2.5236
 2614TIP3   OH229256   1.711   5.731   0.811  0.0177 -0.0768  0.1773
 2614TIP3    H129257   1.749   5.670   0.748  0.4861 -0.9122  1.2334
 2614TIP3    H229258   1.714   5.816   0.767 -2.3765 -1.0252 -2.0803
 2615TIP3   OH229259   0.372   6.571  10.856  0.2332  0.7258  0.1960
 2615TIP3    H129260   0.351   6.661  10.831  1.1805  1.0351  0.4767
 2615TIP3    H229261   0.464   6.560  10.832 -0.8291 -1.5432 -3.8689
 2616TIP3   OH229262   2.500   4.544  11.478 -0.5357 -0.4226 -0.3976
 2616TIP3    H129263   2.596   4.535  11.475 -0.3847  0.8617 -0.0803
 2616TIP3    H229264   2.468   4.482  11.412  0.5978  0.1537 -1.5330
 2617TIP3   OH229265   3.255   2.439  15.023 -0.0862 -0.6547  0.5367
 2617TIP3    H129266   3.349   2.440  15.042  0.7607 -2.0578 -2.7524
 2617TIP3    H229267   3.231   2.347  15.025 -1.2727 -0.3595  0.7493
 2618TIP3   OH229268   0.869   6.676  17.205 -0.3760  0.2297  0.7299
 2618TIP3    H129269   0.848   6.656  17.114 -1.8675  1.4964  0.7611
 2618TIP3    H229270   0.937   6.744  17.199  0.7354 -0.8532  0.6058
 2619TIP3   OH229271   0.557   0.862   4.183  0.6159 -0.1122  0.1928
 2619TIP3    H129272   0.501   0.843   4.259 -0.8129  1.6991 -0.3303
 2619TIP3    H229273   0.521   0.809   4.112  0.7022 -0.3009  0.2890
 2620TIP3   OH229274   2.158   4.253   3.766  0.4003 -0.3014 -0.1101
 2620TIP3    H129275   2.157   4.287   3.856 -0.2878 -1.2459  0.2508
 2620TIP3    H229276   2.153   4.331   3.711 -1.9655  0.2063  0.6979
 2621TIP3   OH229277   3.320   2.591   3.308 -0.1048 -0.3777 -0.0285
 2621TIP3    H129278   3.392   2.654   3.305 -0.4968  0.1515  1.2220
 2621TIP3    H229279   3.318   2.553   3.220  2.5219 -1.3451  0.2344
 2622TIP3   OH229280   2.023   4.121  16.353 -0.0372 -0.5589  0.1911
 2622TIP3    H129281   2.066   4.065  16.419 -0.4062 -0.6620  0.3440
 2622TIP3    H229282   1.964   4.062  16.307  0.8258 -0.6775 -0.7944
 2623TIP3   OH229283   3.450   4.465  12.023  0.7563  0.4090 -0.8871
 2623TIP3    H129284   3.427   4.557  12.039 -1.8132 -0.4292  0.8699
 2623TIP3    H229285   3.401   4.442  11.944 -0.8973 -0.1109  0.2256
 2624TIP3   OH229286   4.815   0.377   2.673 -0.3057 -0.1698 -0.8001
 2624TIP3    H129287   4.754   0.437   2.632  0.0198  0.2476 -0.6765
 2624TIP3    H229288   4.790   0.291   2.639 -0.2256  0.1309 -1.6491
 2625TIP3   OH229289   1.292   3.601  16.595  0.2005 -0.2453  0.0451
 2625TIP3    H129290   1.203   3.571  16.617  0.4751 -1.0576  0.0790
 2625TIP3    H229291   1.280   3.655  16.518 -0.4503  0.4823  0.6417
 2626TIP3   OH229292   4.030   6.538   0.082 -0.6201 -0.2879  0.1446
 2626TIP3    H129293   4.098   6.568   0.022  0.4957 -0.8286  1.0981
 2626TIP3    H229294   3.963   6.498   0.026  0.1560 -0.3274 -0.7680
 2627TIP3   OH229295   0.565   6.089   3.116  0.5866 -0.0339  0.7280
 2627TIP3    H129296   0.660   6.086   3.114  0.6062 -3.0115  1.9869
 2627TIP3    H229297   0.544   6.177   3.148  2.8500  0.7619  0.1931
 2628TIP3   OH229298   0.361   1.108  10.335  0.1353  0.0867 -0.4519
 2628TIP3    H129299   0.309   1.066  10.266  0.4225 -2.7191  0.9038
 2628TIP3    H229300   0.341   1.057  10.414  3.2700  0.2700  0.5702
 2629TIP3   OH229301   3.511   5.903  12.086 -0.3790  0.1849 -0.2811
 2629TIP3    H129302   3.429   5.857  12.066 -0.5037 -0.0646  0.7626
 2629TIP3    H229303   3.484   5.978  12.138 -0.0352  0.6714 -0.7954
 2630TIP3   OH229304   2.955   1.551   2.722 -0.5286 -0.0084 -0.8084
 2630TIP3    H129305   2.951   1.480   2.659 -1.3787 -0.6194 -0.0938
 2630TIP3    H229306   3.049   1.567   2.734 -0.3265 -0.9469 -1.0547
 2631TIP3   OH229307   0.557   0.523   3.019  0.0310 -0.0859 -0.4875
 2631TIP3    H129308   0.592   0.450   2.968  0.8611 -0.2500  0.2906
 2631TIP3    H229309   0.620   0.594   3.005 -0.4690  0.3007 -0.7834
 2632TIP3   OH229310   2.600   4.524  14.160  0.3632 -0.0807  0.5081
 2632TIP3    H129311   2.695   4.512  14.155  0.3033 -0.9860  1.3583
 2632TIP3    H229312   2.576   4.497  14.248 -0.9504 -1.9437 -0.3401
 2633TIP3   OH229313   3.259   3.817   2.816 -0.2273  0.5867  0.3790
 2633TIP3    H129314   3.224   3.743   2.767 -1.6941  0.8985  0.8945
 2633TIP3    H229315   3.239   3.893   2.763 -0.0081  0.7471  0.5225
 2634TIP3   OH229316   6.599   4.698   1.662 -0.0285 -0.8786  0.5087
 2634TIP3    H129317   6.568   4.684   1.572  0.0700 -0.4972  0.4148
 2634TIP3    H229318   6.555   4.777   1.691  1.3925  0.1049  0.1014
 2635TIP3   OH229319   6.225   5.478   4.714 -0.1445  0.4003 -0.2062
 2635TIP3    H129320   6.211   5.478   4.620  0.6261  1.7647 -0.3554
 2635TIP3    H229321   6.310   5.522   4.726 -0.8416  1.4645  1.1731
 2636TIP3   OH229322   0.679   2.048  14.000  0.1378 -0.2286 -0.5306
 2636TIP3    H129323   0.773   2.057  14.014 -0.2830  1.5743  2.0479
 2636TIP3    H229324   0.660   2.105  13.926  1.0857 -0.7735 -1.2098
 2637TIP3   OH229325   3.521   1.893   3.471  0.3462  0.2356  0.6002
 2637TIP3    H129326   3.499   1.912   3.562 -0.7216 -1.5417  0.7624
 2637TIP3    H229327   3.467   1.954   3.420  1.1401  1.4102  1.1374
 2638TIP3   OH229328   4.216   5.928   5.117 -0.0633  0.3413 -0.3079
 2638TIP3    H129329   4.220   6.022   5.097 -0.0580  0.5459  0.5849
 2638TIP3    H229330   4.237   5.885   5.035 -2.1976  1.0758 -1.3255
 2639TIP3   OH229331   6.365   5.600  14.012 -0.5254 -0.4926 -0.6676
 2639TIP3    H129332   6.322   5.564  14.089  1.3309 -0.4220  0.4662
 2639TIP3    H229333   6.351   5.695  14.019 -0.1857 -0.4672 -0.2848
 2640TIP3   OH229334   5.349   2.000  13.516  0.6495 -0.4958 -0.9554
 2640TIP3    H129335   5.296   2.078  13.534 -0.2957 -1.4122  0.4375
 2640TIP3    H229336   5.439   2.030  13.524  0.2917  0.2848  0.4888
 2641TIP3   OH229337   4.728   0.077  13.538  0.4294  0.3067 -0.4323
 2641TIP3    H129338   4.821   0.052  13.538  0.3496  0.0017 -0.6319
 2641TIP3    H229339   4.692   0.032  13.615 -0.1818 -2.0301 -1.9623
 2642TIP3   OH229340   1.790   3.833   3.475 -0.2329 -0.0507 -0.0179
 2642TIP3    H129341   1.842   3.865   3.549 -0.9360  0.0086  0.4711
 2642TIP3    H229342   1.830   3.872   3.398  0.9449 -0.6756  0.2592
 2643TIP3   OH229343   1.845   0.052   2.718  0.5338  0.3757  0.3494
 2643TIP3    H129344   1.758   0.070   2.753 -0.2678 -1.7914 -0.3543
 2643TIP3    H229345   1.899   0.124   2.749 -1.6237  2.1017  0.3383
 2644TIP3   OH229346   6.149   6.639   5.148 -0.3021  0.2316  0.3409
 2644TIP3    H129347   6.202   6.581   5.202  0.1171  1.6502  1.5288
 2644TIP3    H229348   6.199   6.648   5.067  0.4225  0.1838  0.7717
 2645TIP3   OH229349   3.500   1.532  16.612 -0.0347  0.0849  0.2189
 2645TIP3    H129350   3.532   1.545  16.701 -0.6352 -1.7839  0.7499
 2645TIP3    H229351   3.406   1.520  16.622  0.2412 -3.4397 -0.1900
 2646TIP3   OH229352   1.304   0.620   0.425 -0.1356  0.3688  0.5063
 2646TIP3    H129353   1.348   0.548   0.379 -1.2344 -0.6624  1.0246
 2646TIP3    H229354   1.321   0.696   0.370 -2.2174 -0.9725 -2.2295
 2647TIP3   OH229355   2.193   1.488  11.474 -0.3572  0.3906 -0.1083
 2647TIP3    H129356   2.181   1.505  11.567 -0.2761  1.4217 -0.2768
 2647TIP3    H229357   2.172   1.571  11.431  1.2365  0.4424 -0.8798
 2648TIP3   OH229358   2.370   3.297  13.116 -0.0033 -0.2019 -0.6321
 2648TIP3    H129359   2.383   3.291  13.021 -2.7574 -0.0331 -1.1011
 2648TIP3    H229360   2.282   3.262  13.130  0.1965  0.1433  1.8234
 2649TIP3   OH229361   0.365   2.853   0.254  0.2742 -1.3039  0.4070
 2649TIP3    H129362   0.338   2.941   0.282  0.9623 -0.6636 -0.8680
 2649TIP3    H229363   0.442   2.833   0.307  1.3731 -0.2430 -0.7520
 2650TIP3   OH229364   0.824   3.663   1.764  0.3921  0.2348 -0.2803
 2650TIP3    H129365   0.895   3.600   1.754 -0.1121 -0.3742 -0.1158
 2650TIP3    H229366   0.823   3.712   1.682  1.5912  0.8875  0.0663
 2651TIP3   OH229367   4.896   3.281   5.166  0.2078 -0.2746 -0.1269
 2651TIP3    H129368   4.806   3.257   5.145 -0.4654  0.6444  1.5226
 2651TIP3    H229369   4.892   3.372   5.194  1.8768  0.1941 -1.1993
 2652TIP3   OH229370   4.304   6.382  15.262 -1.1545  0.4582 -0.0811
 2652TIP3    H129371   4.336   6.463  15.220  0.4391 -0.0155  0.1307
 2652TIP3    H229372   4.286   6.323  15.190 -1.6460  0.7593 -0.2097
 2653TIP3   OH229373   3.342   1.637   5.931 -0.0841 -0.1525  0.3539
 2653TIP3    H129374   3.298   1.603   6.009 -2.2173  0.5282 -0.4701
 2653TIP3    H229375   3.358   1.729   5.950  2.0169 -0.6161  1.0398
 2654TIP3   OH229376   3.649   2.343  15.864 -0.2938 -0.7600  0.1574
 2654TIP3    H129377   3.631   2.410  15.930 -2.7963  0.4684 -1.6385
 2654TIP3    H229378   3.589   2.271  15.886 -1.4772 -0.1566 -0.9518
 2655TIP3   OH229379   0.419   6.360  14.477  0.1612  0.6240 -0.0366
 2655TIP3    H129380   0.491   6.411  14.440 -0.9354  1.1947 -1.4816
 2655TIP3    H229381   0.379   6.418  14.541  1.7699 -0.1912  1.8012
 2656TIP3   OH229382   2.108   3.195  13.173 -0.8096 -0.5508 -0.5125
 2656TIP3    H129383   2.042   3.211  13.106 -0.6641 -2.4673 -1.1488
 2656TIP3    H229384   2.064   3.217  13.255 -1.8448 -0.6622 -1.0227
 2657TIP3   OH229385   0.800   6.477   3.071 -0.6399 -0.1966 -0.4327
 2657TIP3    H129386   0.856   6.525   3.132 -0.4453 -2.3162  1.1865
 2657TIP3    H229387   0.724   6.452   3.123  0.6106 -4.1389 -0.1554
 2658TIP3   OH229388   1.405   6.155  13.639 -0.1586 -0.2561 -0.2397
 2658TIP3    H129389   1.368   6.129  13.555  0.0874 -0.2065 -0.3616
 2658TIP3    H229390   1.463   6.228  13.619 -1.7149  1.1879  0.2327
 2659TIP3   OH229391   2.005   3.270  12.773  0.2298  0.2037  0.1513
 2659TIP3    H129392   2.092   3.297  12.802  0.8655  0.4616 -1.8478
 2659TIP3    H229393   2.020   3.228  12.688 -1.6144  0.2947 -0.2633
 2660TIP3   OH229394   3.633   4.207   1.339  0.3395 -0.7226  0.2330
 2660TIP3    H129395   3.609   4.251   1.421  0.3921 -1.4695  0.6563
 2660TIP3    H229396   3.552   4.165   1.310  0.6183 -1.5187  0.5771
 2661TIP3   OH229397   6.570   1.029   0.945 -0.1229 -0.5720 -0.1366
 2661TIP3    H129398   6.475   1.042   0.950  0.1852  1.5508  2.6663
 2661TIP3    H229399   6.592   1.053   0.855 -2.2122 -1.1482 -0.8718
 2662TIP3   OH229400   2.374   6.323  16.455  0.3975  0.2490  0.3638
 2662TIP3    H129401   2.402   6.240  16.494  0.9713  0.4403  0.3660
 2662TIP3    H229402   2.279   6.326  16.471  0.3324 -0.5064  0.1664
 2663TIP3   OH229403   4.415   0.611   2.859  0.4029  0.7155 -0.0816
 2663TIP3    H129404   4.423   0.706   2.848  1.1075  0.9662  2.1691
 2663TIP3    H229405   4.497   0.584   2.900  0.8627 -1.1517 -2.0662
 2664TIP3   OH229406   4.682   6.567  13.509 -0.0110  0.2097 -0.4412
 2664TIP3    H129407   4.594   6.555  13.474 -0.0164 -0.9333 -0.0829
 2664TIP3    H229408   4.740   6.527  13.444  0.2651  1.1323 -0.7704
 2665TIP3   OH229409   1.875   5.493  12.018 -0.1249  0.4046 -0.1844
 2665TIP3    H129410   1.820   5.461  12.089 -2.0263  0.4420 -1.5716
 2665TIP3    H229411   1.859   5.431  11.946  2.2283 -0.0003 -0.4303
 2666TIP3   OH229412   2.091   3.795   3.186  0.1145 -0.4282 -1.1660
 2666TIP3    H129413   2.049   3.742   3.119 -0.7681  0.9996 -1.7857
 2666TIP3    H229414   2.022   3.853   3.218  1.0498  0.3873 -0.5462
 2667TIP3   OH229415   2.080   0.288   4.308  0.2265  0.6118 -0.1994
 2667TIP3    H129416   2.151   0.306   4.371 -0.4454  0.2128  0.6893
 2667TIP3    H229417   2.040   0.208   4.340  0.4759 -0.1397 -1.7079
 2668TIP3   OH229418   6.198   5.480   4.435 -0.3601 -0.4096  0.2501
 2668TIP3    H129419   6.204   5.437   4.350  2.0773 -0.0821  0.2054
 2668TIP3    H229420   6.118   5.532   4.430 -0.2144 -0.3198 -1.8856
 2669TIP3   OH229421   1.633   0.939  11.689  0.0199 -0.7400  0.3072
 2669TIP3    H129422   1.600   1.021  11.652  0.1084 -1.1175 -0.6256
 2669TIP3    H229423   1.728   0.947  11.684  0.0419 -0.6534  0.7833
 2670TIP3   OH229424   3.638   2.690  14.920 -0.0509  0.0438 -0.0990
 2670TIP3    H129425   3.566   2.675  14.981 -0.4630 -0.8142 -0.7689
 2670TIP3    H229426   3.596   2.693  14.834  0.6759 -0.0951 -0.4646
 2671TIP3   OH229427   4.114   0.284  14.264 -0.3847 -0.4657 -0.3952
 2671TIP3    H129428   4.072   0.344  14.327 -0.8158 -0.1353 -0.9868
 2671TIP3    H229429   4.186   0.244  14.313 -0.9804 -0.5323  0.4326
 2672TIP3   OH229430   6.599   5.061  14.938  0.1275  0.3758 -0.2361
 2672TIP3    H129431   6.602   4.969  14.967 -2.5711  0.3503  0.2498
 2672TIP3    H229432   6.522   5.065  14.882  0.8460  2.1505 -1.1464
 2673TIP3   OH229433   4.545   1.483   3.772  0.1288 -0.6456  0.2333
 2673TIP3    H129434   4.568   1.571   3.801  0.2720 -0.1443 -1.3522
 2673TIP3    H229435   4.629   1.444   3.746 -0.3252  0.1740 -2.8002
 2674TIP3   OH229436   0.154   4.191   1.852  0.3060 -0.2497 -0.8307
 2674TIP3    H129437   0.098   4.127   1.808 -1.9356  0.7919  0.3392
 2674TIP3    H229438   0.143   4.271   1.802  1.4064 -0.2127 -1.0347
 2675TIP3   OH229439   5.804   0.103   1.913 -0.2948  1.0256 -0.3962
 2675TIP3    H129440   5.823   0.084   1.821 -0.9932 -0.4697 -0.2674
 2675TIP3    H229441   5.818   0.020   1.958 -2.9630  0.8785  0.3239
 2676TIP3   OH229442   1.196   3.783  16.292 -0.4521 -0.2587 -0.2726
 2676TIP3    H129443   1.257   3.777  16.218  1.5123 -0.0344  1.2633
 2676TIP3    H229444   1.231   3.853  16.347 -0.7306 -1.7191  1.8688
 2677TIP3   OH229445   1.084   3.659   4.343 -0.3490  0.0361 -0.1232
 2677TIP3    H129446   1.129   3.599   4.402 -0.4075  0.4493  0.3428
 2677TIP3    H229447   1.002   3.615   4.321 -0.3089 -0.1341  0.0722
 2678TIP3   OH229448   6.353   2.281  11.039  0.0329  0.1359 -0.2597
 2678TIP3    H129449   6.350   2.234  10.955 -0.6997  0.6760 -0.5430
 2678TIP3    H229450   6.428   2.340  11.031 -0.4143  0.6458 -0.7948
 2679TIP3   OH229451   6.566   2.984   0.020 -0.1415  0.3684  0.1229
 2679TIP3    H129452   6.628   3.038  -0.029  0.1936 -2.8291 -3.4146
 2679TIP3    H229453   6.487   3.039   0.026  1.1619  2.4120 -0.3721
 2680TIP3   OH229454   5.962   0.539  17.055  0.3016 -0.2363  0.1747
 2680TIP3    H129455   5.960   0.522  17.149  0.0518  1.4144  0.4897
 2680TIP3    H229456   6.032   0.603  17.044 -1.2095  1.3658 -0.4380
 2681TIP3   OH229457   1.395   2.957   3.497  0.5140  0.1512  0.4805
 2681TIP3    H129458   1.440   2.904   3.563 -0.8020 -0.8537  0.6145
 2681TIP3    H229459   1.442   2.937   3.415  0.0946 -1.1926  0.5454
 2682TIP3   OH229460   1.351   4.496   5.794 -0.0144 -0.2704 -0.5978
 2682TIP3    H129461   1.290   4.492   5.720  0.9575 -1.2185 -1.3881
 2682TIP3    H229462   1.438   4.498   5.753  0.5109  0.3286  0.5135
 2683TIP3   OH229463   4.607   1.739   3.854 -0.5742 -0.0096 -0.0694
 2683TIP3    H129464   4.636   1.809   3.796  3.8013 -0.5006  1.1434
 2683TIP3    H229465   4.603   1.779   3.941  3.4435 -1.2437  0.9109
 2684TIP3   OH229466   4.318   6.495  10.887 -1.3299  0.3512 -1.0686
 2684TIP3    H129467   4.253   6.565  10.889 -0.1430  1.4721  0.5233
 2684TIP3    H229468   4.386   6.523  10.947 -0.4567 -1.8635 -0.9161
 2685TIP3   OH229469   5.195   1.872  11.699 -0.5296  0.7550  0.2832
 2685TIP3    H129470   5.269   1.842  11.646  1.3039  0.5539  2.7545
 2685TIP3    H229471   5.118   1.845  11.650  0.9875 -3.4307 -0.2222
 2686TIP3   OH229472   0.573   2.505  12.143 -0.4071  0.0804  0.3729
 2686TIP3    H129473   0.487   2.493  12.183  0.1309  0.9651  1.8996
 2686TIP3    H229474   0.559   2.485  12.051 -2.5998  1.5368  0.2936
 2687TIP3   OH229475   1.901   3.172  14.316 -0.5566 -0.3779  0.0125
 2687TIP3    H129476   1.909   3.078  14.299  0.0346 -0.5092  0.9305
 2687TIP3    H229477   1.807   3.187  14.325 -0.6966 -0.7718 -0.6878
 2688TIP3   OH229478   1.420   2.997  16.066  0.2862 -0.1072  0.3519
 2688TIP3    H129479   1.441   3.073  16.011 -1.3161 -1.6069 -2.6008
 2688TIP3    H229480   1.505   2.959  16.088  1.0313  0.3423 -1.5340
 2689TIP3   OH229481   1.301   1.689   4.174  0.6385 -0.2236 -0.2022
 2689TIP3    H129482   1.316   1.594   4.176  0.9135 -0.2064 -0.9565
 2689TIP3    H229483   1.358   1.720   4.104  0.4773  0.4889 -0.0208
 2690TIP3   OH229484   3.475   2.671  14.711 -0.6401 -0.1425 -0.3673
 2690TIP3    H129485   3.383   2.687  14.731 -0.0089  1.7106  1.3862
 2690TIP3    H229486   3.478   2.579  14.683 -2.8831 -0.4874  0.3297
 2691TIP3   OH229487   2.679   1.831  12.925 -0.3827 -0.0614  0.3442
 2691TIP3    H129488   2.707   1.910  12.878 -0.2320 -1.0832 -1.3816
 2691TIP3    H229489   2.583   1.834  12.919 -0.4462  0.6834  1.5145
 2692TIP3   OH229490   1.080   5.196  12.256 -0.1433 -0.1286  0.1725
 2692TIP3    H129491   1.014   5.226  12.318 -1.4201  0.0571 -1.2273
 2692TIP3    H229492   1.113   5.115  12.293 -1.0884 -0.1740  0.9439
 2693TIP3   OH229493   3.745   6.234  15.671 -0.1517  0.5186  0.1389
 2693TIP3    H129494   3.676   6.176  15.638  1.5827 -0.7123 -1.5352
 2693TIP3    H229495   3.793   6.181  15.735  1.3223  0.0874 -1.2576
 2694TIP3   OH229496   1.432   2.085  12.985  0.4018  0.1040 -0.4066
 2694TIP3    H129497   1.376   2.026  12.934  1.2612 -0.9476 -0.1756
 2694TIP3    H229498   1.382   2.166  12.991  0.0639  0.1046 -2.5138
 2695TIP3   OH229499   5.648   6.355  14.763  0.3654 -0.2410  0.0511
 2695TIP3    H129500   5.583   6.341  14.695  0.9070  1.4194 -0.8830
 2695TIP3    H229501   5.731   6.362  14.715  0.6632  1.6850  0.7648
 2696TIP3   OH229502   2.811   0.981   5.513  0.1068 -0.2030  0.4612
 2696TIP3    H129503   2.827   0.909   5.573  4.1158 -0.3470 -0.4669
 2696TIP3    H229504   2.808   1.059   5.568  1.9728 -0.5174  1.0786
 2697TIP3   OH229505   5.171   4.639  11.619 -0.7025  0.3635  0.1260
 2697TIP3    H129506   5.117   4.693  11.562  1.1727 -0.5266 -2.6602
 2697TIP3    H229507   5.127   4.553  11.618 -0.9409  0.4812  0.4371
 2698TIP3   OH229508   4.512   1.416   0.316  0.0408  0.0119  0.0940
 2698TIP3    H129509   4.579   1.425   0.249  1.7490 -0.1481  1.6963
 2698TIP3    H229510   4.492   1.322   0.317  1.7088 -0.3824  1.2962
 2699TIP3   OH229511   1.124   4.458   0.707  0.1923 -0.4988 -0.2230
 2699TIP3    H129512   1.121   4.548   0.737  1.0271 -0.5732  0.1174
 2699TIP3    H229513   1.212   4.428   0.730 -0.2271 -1.5408  0.0915
 2700TIP3   OH229514   1.147   5.747  10.446 -0.4993 -0.0459 -0.1611
 2700TIP3    H129515   1.052   5.741  10.457 -0.4347 -2.9442 -0.3901
 2700TIP3    H229516   1.180   5.663  10.477  1.9203  0.4796 -1.0942
 2701TIP3   OH229517   1.549   2.042  14.831 -0.3888  0.5313  0.2044
 2701TIP3    H129518   1.546   1.947  14.837  1.0766  0.5251  1.9247
 2701TIP3    H229519   1.514   2.072  14.915  1.7131  1.3788  0.8390
 2702TIP3   OH229520   2.194   2.470   3.939 -0.4677  0.0910  0.3632
 2702TIP3    H129521   2.148   2.402   3.988 -0.1795 -0.0398  0.4501
 2702TIP3    H229522   2.134   2.492   3.867 -0.2696 -0.7434 -0.0730
 2703TIP3   OH229523   0.104   1.390   0.499  0.5683  0.0978 -0.0105
 2703TIP3    H129524   0.018   1.359   0.529 -0.1060 -0.0062 -1.9231
 2703TIP3    H229525   0.097   1.486   0.501 -0.3871  0.1388 -2.0714
 2704TIP3   OH229526   2.170   3.828  14.406  0.1230  0.0811 -0.1942
 2704TIP3    H129527   2.207   3.750  14.364 -1.1061 -0.8009  0.2842
 2704TIP3    H229528   2.107   3.861  14.343 -1.9377 -1.4138  0.9675
 2705TIP3   OH229529   5.916   2.474  13.802  0.6453 -0.3624 -0.6633
 2705TIP3    H129530   5.887   2.564  13.812  0.7643 -0.4380  0.4566
 2705TIP3    H229531   5.954   2.451  13.887  0.4530 -1.5210 -0.8726
 2706TIP3   OH229532   0.525   3.174  14.904 -0.5017 -0.1429 -0.1862
 2706TIP3    H129533   0.532   3.211  14.992 -0.0101  1.2935 -0.7831
 2706TIP3    H229534   0.610   3.194  14.864 -0.7313 -0.7591 -0.9896
 2707TIP3   OH229535   6.440   0.118  16.201  0.6000 -0.3218 -0.1061
 2707TIP3    H129536   6.394   0.063  16.139 -0.4840 -0.4059  0.7513
 2707TIP3    H229537   6.376   0.138  16.269  1.2954  1.0494  0.1971
 2708TIP3   OH229538   0.453   2.188   2.761 -0.0644  0.4817  0.6256
 2708TIP3    H129539   0.479   2.138   2.838  3.0009  0.9223  0.0058
 2708TIP3    H229540   0.463   2.127   2.688  1.2305  1.2360  0.1438
 2709TIP3   OH229541   0.430   5.857  16.844 -0.0334  0.2296 -0.7409
 2709TIP3    H129542   0.523   5.852  16.821  0.2548  0.7656  0.2902
 2709TIP3    H229543   0.391   5.780  16.801  1.2938 -1.3305  0.7208
 2710TIP3   OH229544   3.785   2.323  13.381 -0.1976  0.3319 -0.3734
 2710TIP3    H129545   3.808   2.310  13.473  1.2653  1.4278 -0.5520
 2710TIP3    H229546   3.859   2.288  13.332 -1.5259 -1.4604 -1.2322
 2711TIP3   OH229547   2.921   3.102  13.227 -0.3368  0.2061 -0.2602
 2711TIP3    H129548   2.856   3.074  13.163  0.5050  0.0133 -1.0548
 2711TIP3    H229549   2.978   3.162  13.179 -0.3615  0.9690  0.6284
 2712TIP3   OH229550   5.446   5.508  13.139 -0.3277 -0.0898  0.2689
 2712TIP3    H129551   5.456   5.418  13.106  0.5717 -0.2402  0.9343
 2712TIP3    H229552   5.458   5.501  13.233  3.7541  1.2437  0.0256
 2713TIP3   OH229553   4.106   2.549  14.211  0.0400 -0.3156  0.2891
 2713TIP3    H129554   4.094   2.613  14.280 -1.2341  2.0005 -1.9090
 2713TIP3    H229555   4.018   2.513  14.195  0.2832 -0.7144 -0.2010
 2714TIP3   OH229556   2.399   6.455  13.866  0.6285  0.2201 -0.9528
 2714TIP3    H129557   2.420   6.488  13.954  2.1098 -1.1787 -0.7405
 2714TIP3    H229558   2.396   6.533  13.812 -0.0274  1.0878  0.2802
 2715TIP3   OH229559   4.595   1.272   1.769 -0.2545 -0.1001 -0.1224
 2715TIP3    H129560   4.680   1.247   1.732 -0.0997  0.8235 -0.4122
 2715TIP3    H229561   4.612   1.286   1.862 -0.0887  0.0832 -0.1802
 2716TIP3   OH229562   0.842   2.869   5.977 -0.0969 -0.2396 -0.2237
 2716TIP3    H129563   0.862   2.776   5.975 -0.1139 -0.2688  0.6701
 2716TIP3    H229564   0.774   2.878   6.044  0.7404  0.5664  0.5539
 2717TIP3   OH229565   1.400   5.468  16.813 -0.4516  0.2739 -0.3912
 2717TIP3    H129566   1.397   5.399  16.878  0.0899  3.6831  3.7065
 2717TIP3    H229567   1.313   5.507  16.815 -0.5623  0.1910 -2.1384
 2718TIP3   OH229568   5.368   2.839  14.545 -0.2894  0.2664 -0.2256
 2718TIP3    H129569   5.292   2.897  14.536 -0.2585  0.2412 -0.6940
 2718TIP3    H229570   5.377   2.825  14.639  1.1994  2.9915  0.1210
 2719TIP3   OH229571   4.850   1.918   0.287  0.1692 -0.0393 -0.4266
 2719TIP3    H129572   4.830   1.981   0.217 -0.1157  1.9860  1.3919
 2719TIP3    H229573   4.779   1.854   0.282 -0.0430  0.2572 -1.7430
 2720TIP3   OH229574   3.551   0.272  15.245  0.0769  0.5317 -0.4827
 2720TIP3    H129575   3.569   0.179  15.261  0.5101  0.7367  0.2303
 2720TIP3    H229576   3.537   0.277  15.150 -0.9513 -0.4257 -0.4043
 2721TIP3   OH229577   5.287   4.663  16.083 -0.1145 -0.1092  0.2885
 2721TIP3    H129578   5.243   4.713  16.151 -0.9752  1.4964 -1.3577
 2721TIP3    H229579   5.227   4.665  16.009  0.9951 -1.3753 -0.7040
 2722TIP3   OH229580   3.090   2.914  12.102  0.3735 -0.1345 -0.4788
 2722TIP3    H129581   3.031   2.916  12.027  0.3653  1.1691 -0.4553
 2722TIP3    H229582   3.160   2.975  12.079  1.3274 -1.0763 -0.1786
 2723TIP3   OH229583   1.476   2.703   0.451  0.1308  0.0449 -0.1957
 2723TIP3    H129584   1.498   2.712   0.358 -0.6301 -2.4707 -0.7076
 2723TIP3    H229585   1.383   2.725   0.457  0.0731 -0.2143 -0.1175
 2724TIP3   OH229586   3.607   0.139   4.243 -0.0667  0.0218 -0.2693
 2724TIP3    H129587   3.611   0.043   4.237 -0.2007  0.0913 -2.0723
 2724TIP3    H229588   3.527   0.162   4.197 -0.3061  0.9932  0.6032
 2725TIP3   OH229589   0.150   6.177  11.683 -0.0063  0.0350 -1.0689
 2725TIP3    H129590   0.065   6.188  11.641 -0.8861  1.2699  0.8598
 2725TIP3    H229591   0.133   6.118  11.757  0.8292  0.2178 -0.7184
 2726TIP3   OH229592   4.896   0.192   3.244 -0.1744  0.1741 -0.1064
 2726TIP3    H129593   4.882   0.098   3.249  2.3121 -0.3082 -0.9881
 2726TIP3    H229594   4.928   0.207   3.155  0.4596  1.6881  0.3493
 2727TIP3   OH229595   0.159   4.037   1.391  0.6828  0.0854  0.1092
 2727TIP3    H129596   0.217   4.047   1.467  0.2803  0.9052  0.3236
 2727TIP3    H229597   0.182   4.110   1.334  1.4288 -0.8915 -0.8780
 2728TIP3   OH229598   5.392   4.736   1.799 -0.1512 -0.4747  0.5846
 2728TIP3    H129599   5.358   4.714   1.713 -1.4962 -1.5277  1.3575
 2728TIP3    H229600   5.355   4.822   1.818  0.1054 -0.2631  0.1570
 2729TIP3   OH229601   6.209   5.874   1.498 -0.1290  0.2154 -0.2010
 2729TIP3    H129602   6.124   5.840   1.528 -0.6226  1.0506 -0.6111
 2729TIP3    H229603   6.191   5.965   1.477  1.1757  0.7485  0.9236
 2730TIP3   OH229604   1.937   2.976   6.144  0.1667 -0.3994 -0.0283
 2730TIP3    H129605   1.990   2.942   6.071  0.5797 -0.4311  0.2812
 2730TIP3    H229606   1.942   3.071   6.135  1.1289 -0.3799  0.5924
 2731TIP3   OH229607   5.024   0.066   5.964 -0.6242  0.2370 -0.5671
 2731TIP3    H129608   4.974   0.023   6.033 -0.1646 -0.9065 -0.9098
 2731TIP3    H229609   5.026   0.158   5.989  0.0145 -0.2258  1.2661
 2732TIP3   OH229610   0.533   4.632   0.145 -0.2459 -0.2894 -0.0283
 2732TIP3    H129611   0.530   4.551   0.094 -1.7349  2.0241 -4.0939
 2732TIP3    H229612   0.473   4.616   0.218 -2.3831 -2.1687 -2.0082
 2733TIP3   OH229613   0.425   0.127  12.942  0.0542 -0.6592 -0.2352
 2733TIP3    H129614   0.428   0.042  12.899  1.3381 -0.4445 -0.6000
 2733TIP3    H229615   0.390   0.187  12.875  0.0575 -0.7159 -0.2874
 2734TIP3   OH229616   4.726   4.902  15.032  0.1911  0.4731 -0.1186
 2734TIP3    H129617   4.747   4.847  14.957 -0.1341 -0.0605  0.1684
 2734TIP3    H229618   4.673   4.845  15.089  0.8523  0.7033  0.7462
 2735TIP3   OH229619   1.203   5.767  12.215  0.0527 -0.1067 -0.4465
 2735TIP3    H129620   1.159   5.691  12.253  1.1193 -0.0465  0.9410
 2735TIP3    H229621   1.246   5.733  12.136  1.8378 -1.3408  0.9943
 2736TIP3   OH229622   1.034   0.604  13.783 -0.0075  0.2607  0.5189
 2736TIP3    H129623   0.972   0.650  13.839  1.4060  1.0478  1.5103
 2736TIP3    H229624   0.986   0.527  13.751 -0.8648 -0.2923  2.9143
 2737TIP3   OH229625   0.775   1.429  12.072  0.0996  0.5620  0.1807
 2737TIP3    H129626   0.777   1.424  11.977 -2.7381  1.4420 -0.0004
 2737TIP3    H229627   0.863   1.457  12.096  0.6981  0.9523 -2.2090
 2738TIP3   OH229628   6.633   4.020   1.408 -0.7125 -0.3382 -0.3789
 2738TIP3    H129629   6.706   4.000   1.349  0.3907 -1.0436  1.1574
 2738TIP3    H229630   6.665   4.092   1.463 -1.4146 -0.2419 -0.0808
 2739TIP3   OH229631   4.320   2.477  14.481 -0.1716  0.6415  0.5191
 2739TIP3    H129632   4.301   2.385  14.464 -0.3181  1.0268 -1.6893
 2739TIP3    H229633   4.236   2.521  14.467  0.2042  1.2568  0.1734
 2740TIP3   OH229634   2.703   1.763  14.917  0.3384  0.3706  0.0440
 2740TIP3    H129635   2.632   1.824  14.935  1.3301  1.2257  1.2339
 2740TIP3    H229636   2.686   1.731  14.828 -2.8298 -1.3026  1.1195
 2741TIP3   OH229637   5.723   3.325  13.331 -0.2734  0.6008 -0.0230
 2741TIP3    H129638   5.700   3.418  13.327 -0.4434  0.5156 -1.8772
 2741TIP3    H229639   5.641   3.279  13.315 -0.2390  0.1075  1.1411
 2742TIP3   OH229640   4.290   5.000   4.759  0.4765 -0.0134 -0.0840
 2742TIP3    H129641   4.351   5.072   4.742 -0.0881  0.5938  0.4193
 2742TIP3    H229642   4.207   5.030   4.721  0.1408 -0.2318  0.4743
 2743TIP3   OH229643   2.627   4.950   2.464  0.2032 -0.4137  0.5205
 2743TIP3    H129644   2.623   5.024   2.404 -0.9354 -0.7342  0.1790
 2743TIP3    H229645   2.565   4.971   2.533 -1.3601 -1.7508 -0.4171
 2744TIP3   OH229646   6.136   3.592  12.687  0.2871  0.0716  0.1679
 2744TIP3    H129647   6.182   3.624  12.610  0.4416 -0.7074 -0.0724
 2744TIP3    H229648   6.205   3.576  12.752  0.0552  1.8233  0.8911
 2745TIP3   OH229649   3.429   4.664   1.945  0.8464 -0.6820  0.1951
 2745TIP3    H129650   3.342   4.703   1.940 -0.0150 -2.0720  2.7064
 2745TIP3    H229651   3.455   4.651   1.853 -2.0138 -1.1194 -0.6394
 2746TIP3   OH229652   0.551   5.820  15.681 -0.3673 -0.4516  0.2120
 2746TIP3    H129653   0.588   5.766  15.750  0.5889  1.1745  1.0169
 2746TIP3    H229654   0.601   5.797  15.603  0.0508 -0.6958  0.5546
 2747TIP3   OH229655   4.916   0.388   1.595  0.0930  0.0092 -0.3027
 2747TIP3    H129656   4.868   0.305   1.601 -1.0216  0.6075 -0.7337
 2747TIP3    H229657   4.853   0.450   1.559  0.7403  1.1884  0.5225
 2748TIP3   OH229658   5.078   6.554  15.778 -0.0212 -0.2411 -0.1449
 2748TIP3    H129659   5.086   6.587  15.867  0.9953 -0.4762 -0.1343
 2748TIP3    H229660   5.020   6.478  15.785 -0.5989  0.2223  0.1794
 2749TIP3   OH229661   2.489   5.280  13.838 -0.0323 -0.4311 -0.0013
 2749TIP3    H129662   2.442   5.275  13.921 -1.4323 -0.7822 -0.7952
 2749TIP3    H229663   2.558   5.345  13.855 -2.7342  2.6691  0.3266
 2750TIP3   OH229664   6.077   3.347   4.710  0.4626 -0.1625 -0.0359
 2750TIP3    H129665   6.111   3.432   4.682  0.6093  0.1335  1.0221
 2750TIP3    H229666   6.029   3.365   4.790  0.0026 -0.9909 -0.1133
 2751TIP3   OH229667   2.482   3.853  15.731 -0.1247 -0.0460  0.2459
 2751TIP3    H129668   2.483   3.838  15.826 -0.8594  1.7850  0.5939
 2751TIP3    H229669   2.542   3.926  15.718 -1.2016  0.7521 -0.4515
 2752TIP3   OH229670   6.078   0.670  16.479  0.5831 -0.3148 -0.2555
 2752TIP3    H129671   6.145   0.737  16.492 -0.5370  1.0580 -1.2158
 2752TIP3    H229672   6.071   0.627  16.565  0.7681  1.3627  0.6449
 2753TIP3   OH229673   2.973   2.495  12.926 -0.2624  0.3370 -0.3839
 2753TIP3    H129674   2.980   2.552  12.850  2.3018  0.3424 -0.2083
 2753TIP3    H229675   2.936   2.413  12.892  1.8519 -0.0539 -1.9100
 2754TIP3   OH229676   4.158   3.258   6.049  0.3578 -0.7907 -0.2573
 2754TIP3    H129677   4.163   3.212   6.133  0.4000 -0.9974 -0.3729
 2754TIP3    H229678   4.074   3.304   6.052  0.6055 -0.3534  0.1260
 2755TIP3   OH229679   6.117   5.035  16.607  0.1478  0.5663  0.1137
 2755TIP3    H129680   6.039   4.987  16.633  1.1656 -0.9722  0.4234
 2755TIP3    H229681   6.121   5.109  16.668 -1.3633  1.0218 -0.2927
 2756TIP3   OH229682   5.503   6.328  11.403  0.5842 -0.4150  0.0828
 2756TIP3    H129683   5.584   6.277  11.414  0.0477 -1.2385  0.3434
 2756TIP3    H229684   5.480   6.357  11.491 -0.4137 -1.8075  0.3164
 2757TIP3   OH229685   0.919   0.166   3.730 -0.0667 -0.6008  0.2013
 2757TIP3    H129686   0.856   0.237   3.715  0.3874 -0.5747 -1.9011
 2757TIP3    H229687   0.864   0.090   3.751 -0.7147 -0.2552 -0.2096
 2758TIP3   OH229688   4.342   2.900  13.254  0.6613  0.2301  0.3008
 2758TIP3    H129689   4.285   2.856  13.318 -0.4396 -0.7206 -1.2460
 2758TIP3    H229690   4.424   2.852  13.258  0.5975  0.1700  0.9897
 2759TIP3   OH229691   6.412   5.964  16.589  0.1840  0.1467 -0.1221
 2759TIP3    H129692   6.479   5.897  16.578  2.6172  2.5864 -1.3369
 2759TIP3    H229693   6.343   5.921  16.639  2.6567 -2.4936  1.2936
 2760TIP3   OH229694   1.492   5.714   5.894 -0.1782  0.1019  0.1636
 2760TIP3    H129695   1.478   5.645   5.829 -1.1537  0.2003  0.2624
 2760TIP3    H229696   1.587   5.730   5.890 -0.2511  0.3295 -1.4572
 2761TIP3   OH229697   4.452   2.438  10.869  0.1198  0.9003 -0.0028
 2761TIP3    H129698   4.520   2.371  10.861 -0.8256  0.0874 -2.0970
 2761TIP3    H229699   4.371   2.388  10.880 -0.2247  1.8463  2.2444
 2762TIP3   OH229700   0.171   2.104   3.066 -0.3391  0.5523  0.0264
 2762TIP3    H129701   0.157   2.049   3.143  1.8562 -3.2928 -2.0152
 2762TIP3    H229702   0.086   2.103   3.021 -0.4599 -1.0151  0.2245
 2763TIP3   OH229703   1.883   1.155  13.924 -0.2462  0.0715  0.5254
 2763TIP3    H129704   1.874   1.116  14.011 -2.2754  1.0215  0.8027
 2763TIP3    H229705   1.974   1.184  13.920 -0.0187 -0.3178  2.1974
 2764TIP3   OH229706   3.923   0.392   1.855 -0.4813  0.1342 -0.0485
 2764TIP3    H129707   3.897   0.469   1.803 -0.5559  0.7417  0.8616
 2764TIP3    H229708   3.868   0.397   1.933 -1.9273 -1.9524 -0.8411
 2765TIP3   OH229709   2.685   2.220  16.630  0.0770  0.4273  0.0028
 2765TIP3    H129710   2.667   2.224  16.724 -1.1104 -0.0307 -0.1827
 2765TIP3    H229711   2.777   2.197  16.624 -0.0412 -0.3777  1.0606
 2766TIP3   OH229712   2.585   0.490   6.236  0.4893  0.1873  1.0354
 2766TIP3    H129713   2.673   0.490   6.275  0.5527  0.6764  0.8999
 2766TIP3    H229714   2.540   0.417   6.280  1.4270 -1.0424  0.0410
 2767TIP3   OH229715   0.267   3.096  16.022 -0.5377 -0.0722 -0.0195
 2767TIP3    H129716   0.239   3.005  16.034 -0.8814 -0.1018 -0.9955
 2767TIP3    H229717   0.192   3.139  15.980 -0.1037  0.4865 -0.2300
 2768TIP3   OH229718   1.012   6.029   0.011  0.1276 -0.4899  0.7647
 2768TIP3    H129719   0.927   6.067  -0.009  0.0829 -0.7574  0.4364
 2768TIP3    H229720   1.061   6.101   0.051 -0.4209 -0.4821  1.4360
 2769TIP3   OH229721   2.781   3.356  16.771  0.0120  0.8142  0.1353
 2769TIP3    H129722   2.809   3.447  16.778 -0.5998  1.0427 -0.3555
 2769TIP3    H229723   2.721   3.343  16.844  1.7173  0.1772  1.5034
 2770TIP3   OH229724   1.108   0.560   5.761  0.1670  0.0804  0.6751
 2770TIP3    H129725   1.073   0.481   5.802 -0.3724  0.9366  1.9306
 2770TIP3    H229726   1.058   0.632   5.800 -0.1402  0.9892 -1.2552
 2771TIP3   OH229727   6.594   0.100   6.089  0.9935  0.0592 -0.3628
 2771TIP3    H129728   6.547   0.169   6.135 -0.7717 -1.3800  0.0832
 2771TIP3    H229729   6.544   0.086   6.008  1.1310 -0.8947 -0.3019
 2772TIP3   OH229730   1.738   4.763   5.417 -0.0484  0.1080  0.2396
 2772TIP3    H129731   1.701   4.793   5.334  0.2288 -3.0893 -1.1980
 2772TIP3    H229732   1.831   4.747   5.397  0.5710  1.3713  1.8437
 2773TIP3   OH229733   0.537   6.607   2.309  0.3019  0.5466 -0.0974
 2773TIP3    H129734   0.532   6.546   2.382  0.2082 -0.9188 -1.2754
 2773TIP3    H229735   0.627   6.640   2.312  0.4480  0.1166  0.3641
 2774TIP3   OH229736   4.034   0.886   3.198 -0.2278  0.6271 -0.5675
 2774TIP3    H129737   4.021   0.979   3.178 -1.4093  0.6255  0.1314
 2774TIP3    H229738   4.121   0.867   3.164 -0.5756  1.6039 -2.1086
 2775TIP3   OH229739   5.566   3.677   5.225  0.1130 -0.1908 -0.0410
 2775TIP3    H129740   5.518   3.607   5.268  1.9798 -1.2390  0.4490
 2775TIP3    H229741   5.611   3.723   5.296  0.6955  0.0667 -0.5662
 2776TIP3   OH229742   1.588   3.137  12.161  0.1913 -0.3923 -0.2114
 2776TIP3    H129743   1.648   3.131  12.235  0.6203 -0.0548 -0.5263
 2776TIP3    H229744   1.517   3.077  12.183  0.4784 -0.5450  0.3195
 2777TIP3   OH229745   4.513   3.717  16.223 -0.2330  0.7234 -0.2536
 2777TIP3    H129746   4.487   3.746  16.136 -1.1819  0.7912  0.0389
 2777TIP3    H229747   4.497   3.623  16.223 -0.7133  0.8052  0.0104
 2778TIP3   OH229748   1.352   5.389  13.685  0.5345 -0.0502 -0.3379
 2778TIP3    H129749   1.284   5.325  13.705  1.1082 -0.4193  0.4812
 2778TIP3    H229750   1.347   5.452  13.756 -1.1875  1.8441 -2.0221
 2779TIP3   OH229751   1.486   6.708   2.306 -0.5896  0.2160 -0.1267
 2779TIP3    H129752   1.474   6.775   2.373 -0.4739  1.0525 -0.9295
 2779TIP3    H229753   1.404   6.659   2.307 -1.0068  0.9034 -0.1111
 2780TIP3   OH229754   0.089   2.973   2.884  0.4803 -0.4029 -0.3866
 2780TIP3    H129755   0.080   2.976   2.980  1.2144  0.3430 -0.3303
 2780TIP3    H229756   0.060   2.885   2.860  0.1719 -0.5601  0.5086
 2781TIP3   OH229757   1.835   3.074  13.599 -0.1147 -0.4163  0.2501
 2781TIP3    H129758   1.892   3.004  13.567  1.2708  1.2158 -1.0663
 2781TIP3    H229759   1.843   3.070  13.694 -0.8396 -2.6273  0.2593
 2782TIP3   OH229760   4.144   5.654   1.820 -0.3176 -0.0862 -0.5165
 2782TIP3    H129761   4.049   5.647   1.827 -0.2398  0.5584  2.5134
 2782TIP3    H229762   4.158   5.703   1.738 -2.6165  0.4454 -0.6694
 2783TIP3   OH229763   0.713   4.121  15.455  0.0240 -0.1742 -0.0500
 2783TIP3    H129764   0.714   4.196  15.395  0.2762 -0.0690  0.0855
 2783TIP3    H229765   0.788   4.068  15.428  0.6773  0.3239  0.7392
 2784TIP3   OH229766   1.841   5.542   0.660 -0.3894 -0.0415 -0.2084
 2784TIP3    H129767   1.913   5.508   0.607 -0.1321 -0.5475  0.4486
 2784TIP3    H229768   1.767   5.486   0.639 -0.2565 -0.3169  0.0480
 2785TIP3   OH229769   1.414   2.614   2.295  0.3142 -0.2230  0.4822
 2785TIP3    H129770   1.502   2.599   2.331 -0.5379 -2.6173  1.8168
 2785TIP3    H229771   1.392   2.532   2.252 -1.2131  0.4044  0.0290
 2786TIP3   OH229772   1.743   6.444  12.917  0.6929 -0.0986 -0.0206
 2786TIP3    H129773   1.825   6.468  12.960  0.4232 -2.1372  1.8150
 2786TIP3    H229774   1.769   6.382  12.848  0.7137 -0.8722  0.6678
 2787TIP3   OH229775   2.357   3.085   2.191  0.2479 -0.4652  0.0340
 2787TIP3    H129776   2.363   3.111   2.283  0.2518 -2.5338  0.6615
 2787TIP3    H229777   2.286   3.138   2.156  0.1220  0.2284  1.2702
 2788TIP3   OH229778   3.083   2.744   5.425  0.0947  0.4221  0.2743
 2788TIP3    H129779   3.088   2.649   5.429 -1.4054  0.2169 -1.4416
 2788TIP3    H229780   3.053   2.770   5.512  0.2770 -0.6936  0.6836
 2789TIP3   OH229781   2.367   0.813  13.570 -0.2872 -0.2914  0.0178
 2789TIP3    H129782   2.334   0.739  13.519 -0.4800  1.1340 -2.0771
 2789TIP3    H229783   2.439   0.848  13.518  0.9225 -0.0210  1.8129
 2790TIP3   OH229784   5.677   3.931   4.080  0.3768 -0.1217 -0.3631
 2790TIP3    H129785   5.629   4.007   4.047 -2.3064 -0.4517  2.3549
 2790TIP3    H229786   5.659   3.862   4.016 -0.3341  0.5622 -0.9182
 2791TIP3   OH229787   3.484   0.867   2.051  0.1388  0.5172 -0.2929
 2791TIP3    H129788   3.477   0.938   1.986 -1.9558  0.7980  0.1854
 2791TIP3    H229789   3.396   0.831   2.057  0.4284  0.0588  1.9225
 2792TIP3   OH229790   1.369   4.310   3.513  0.1291  0.3510 -0.5711
 2792TIP3    H129791   1.370   4.380   3.577  1.3384  0.8246 -1.0707
 2792TIP3    H229792   1.306   4.247   3.546  0.3994  0.8000  0.8346
 2793TIP3   OH229793   1.168   2.392  12.597 -0.0961 -0.1971 -0.1633
 2793TIP3    H129794   1.238   2.354  12.649  0.4074  0.6431 -0.2087
 2793TIP3    H229795   1.161   2.336  12.520  0.7515 -0.0953 -0.3179
 2794TIP3   OH229796   5.189   4.347   2.597  0.6079  0.1835 -0.4220
 2794TIP3    H129797   5.149   4.430   2.569 -2.2715 -0.5798  1.0420
 2794TIP3    H229798   5.207   4.360   2.690  0.6765 -0.6473 -0.3167
 2795TIP3   OH229799   1.654   1.433   0.408  0.1055  0.7177  0.0296
 2795TIP3    H129800   1.569   1.416   0.448  0.0471  0.6044 -0.1388
 2795TIP3    H229801   1.717   1.425   0.480  0.1619 -0.9074 -0.1438
 2796TIP3   OH229802   3.330   4.068   6.000  0.6208 -0.4525 -0.4107
 2796TIP3    H129803   3.407   4.050   6.055  0.0239 -1.2731  0.1909
 2796TIP3    H229804   3.331   3.999   5.934  0.6318 -0.2245 -0.6476
 2797TIP3   OH229805   0.989   5.238  13.929  0.1846 -0.1146  0.5194
 2797TIP3    H129806   0.907   5.254  13.882 -0.1580  1.6143  1.6248
 2797TIP3    H229807   1.045   5.194  13.864 -0.9835  0.2818 -0.8196
 2798TIP3   OH229808   2.190   0.970  14.997 -1.0000  0.2922  0.1729
 2798TIP3    H129809   2.196   1.050  15.048  0.8205 -0.4776  1.2699
 2798TIP3    H229810   2.204   0.900  15.060 -2.5971 -0.9280 -0.7481
 2799TIP3   OH229811   4.419   3.054  14.769  0.2616  0.6151  0.4290
 2799TIP3    H129812   4.421   3.086  14.859 -0.5636  3.3829 -0.4280
 2799TIP3    H229813   4.441   3.130  14.716 -0.3609 -0.6386 -1.7806
 2800TIP3   OH229814   6.363   5.012  13.793 -0.1928 -0.3572 -0.1010
 2800TIP3    H129815   6.304   5.025  13.867  0.2536  1.0754  0.0360
 2800TIP3    H229816   6.306   5.014  13.716 -0.3930  0.4576  0.0657
 2801TIP3   OH229817   2.306   3.616  14.768  0.2081 -0.9201 -0.4460
 2801TIP3    H129818   2.308   3.520  14.778 -1.4988 -0.9933 -0.5010
 2801TIP3    H229819   2.393   3.644  14.795 -0.3773 -2.1775  3.4637
 2802TIP3   OH229820   0.448   2.846  10.874  0.0404 -0.0495  0.2819
 2802TIP3    H129821   0.408   2.777  10.821 -2.1300  0.3967  1.2144
 2802TIP3    H229822   0.421   2.928  10.832  0.5044  0.2612  0.5850
 2803TIP3   OH229823   4.329   4.046  14.234 -0.1336 -0.0058 -0.0314
 2803TIP3    H129824   4.392   4.054  14.162 -0.3471  0.8989 -0.1322
 2803TIP3    H229825   4.247   4.023  14.191  0.3617 -2.5157  0.2109
 2804TIP3   OH229826   6.640   4.901   4.604 -0.8261  0.0322  0.0881
 2804TIP3    H129827   6.715   4.850   4.634 -0.8100 -0.0790 -0.1397
 2804TIP3    H229828   6.642   4.981   4.657  0.4498  0.8030 -1.0707
 2805TIP3   OH229829   5.471   3.246   0.649 -0.3592 -0.0522  0.0284
 2805TIP3    H129830   5.507   3.158   0.639 -0.8502 -0.4878  1.7129
 2805TIP3    H229831   5.392   3.234   0.702 -0.9686  1.3021 -0.5031
 2806TIP3   OH229832   0.556   5.039   0.760  0.6138 -0.3361  0.2746
 2806TIP3    H129833   0.546   5.116   0.704 -0.0381  0.3006  1.2388
 2806TIP3    H229834   0.630   5.061   0.817  0.4259 -0.4272  0.5518
 2807TIP3   OH229835   5.687   2.136   0.533  0.0515  0.3464 -0.5497
 2807TIP3    H129836   5.642   2.204   0.484 -0.6829  0.5302  0.3725
 2807TIP3    H229837   5.664   2.055   0.488 -1.8788  0.3456  0.3767
 2808TIP3   OH229838   0.422   2.401  15.112 -0.4589 -0.2960 -0.5021
 2808TIP3    H129839   0.347   2.356  15.152  0.8292 -2.1288 -0.0342
 2808TIP3    H229840   0.402   2.402  15.018 -0.5279 -1.9086 -0.5286
 2809TIP3   OH229841   1.371   0.304  14.942  0.4020 -0.1359 -0.3277
 2809TIP3    H129842   1.454   0.326  14.899  0.2042 -0.1516 -0.7230
 2809TIP3    H229843   1.350   0.217  14.910  0.4568 -0.3172  0.1239
 2810TIP3   OH229844   1.346   4.162   6.327 -0.2075 -0.0313  0.5495
 2810TIP3    H129845   1.310   4.081   6.363  1.3569 -0.7549  0.5477
 2810TIP3    H229846   1.389   4.204   6.401  1.2166 -0.5070  0.0330
 2811TIP3   OH229847   6.168   4.962  17.069  0.3451  0.0714 -0.4856
 2811TIP3    H129848   6.172   4.874  17.106 -1.3495  0.1448 -0.0199
 2811TIP3    H229849   6.243   5.007  17.107  1.9389 -1.4728 -1.6675
 2812TIP3   OH229850   0.819   3.683  12.479  0.7089  0.4418 -0.2438
 2812TIP3    H129851   0.811   3.703  12.386 -0.9078  0.5922 -0.0985
 2812TIP3    H229852   0.800   3.589  12.485 -0.1561  0.6253  0.0282
 2813TIP3   OH229853   2.835   5.949   3.838  0.4402  0.4349  0.0373
 2813TIP3    H129854   2.745   5.964   3.810 -0.1192  2.9063  2.7045
 2813TIP3    H229855   2.840   5.855   3.853 -1.4139  0.1282 -0.9669
 2814TIP3   OH229856   2.334   1.416  16.908 -0.4730 -0.2630  0.0588
 2814TIP3    H129857   2.407   1.429  16.848 -0.0371 -4.4338 -0.6240
 2814TIP3    H229858   2.356   1.469  16.985  0.7404  2.3721 -1.9581
 2815TIP3   OH229859   1.183   2.120   0.309 -0.2375 -0.0633 -0.5709
 2815TIP3    H129860   1.233   2.201   0.314 -1.3214  0.5857  0.1770
 2815TIP3    H229861   1.100   2.145   0.269 -0.9238 -0.6249  0.4593
 2816TIP3   OH229862   2.185   0.180   4.944  0.4181 -0.6370 -0.6966
 2816TIP3    H129863   2.129   0.104   4.961  0.6313 -0.4800  0.8450
 2816TIP3    H229864   2.134   0.235   4.884 -0.8448 -0.7733  0.2144
 2817TIP3   OH229865   6.138   3.403  15.419  0.2623  0.5949  0.6228
 2817TIP3    H129866   6.174   3.385  15.505 -1.0165 -0.2316  0.9989
 2817TIP3    H229867   6.148   3.321  15.370  1.0959  1.0915 -0.0755
 2818TIP3   OH229868   0.397   3.011   1.207 -0.5347  0.4322 -0.1230
 2818TIP3    H129869   0.322   2.965   1.169 -0.7029  1.7012 -1.4094
 2818TIP3    H229870   0.361   3.094   1.240  0.0482  0.4125  0.6024
 2819TIP3   OH229871   5.108   2.743   6.080 -0.2444 -0.0275  0.4061
 2819TIP3    H129872   5.105   2.686   6.157 -0.2720  2.0309  2.0283
 2819TIP3    H229873   5.019   2.777   6.072 -0.2332 -0.2038 -0.5489
 2820TIP3   OH229874   4.831   4.709   4.213  0.4316  0.0437 -0.4427
 2820TIP3    H129875   4.907   4.709   4.155 -0.0847  1.6823 -1.1892
 2820TIP3    H229876   4.758   4.735   4.157 -0.8055 -1.9149  0.1602
 2821TIP3   OH229877   1.627   2.156  13.395  0.5079 -0.8524 -0.3895
 2821TIP3    H129878   1.542   2.152  13.352  0.6103 -0.5761 -0.6269
 2821TIP3    H229879   1.610   2.135  13.487  0.1199 -0.3996 -0.3526
 2822TIP3   OH229880   4.246   1.830   5.134 -0.6663 -0.4718  0.0281
 2822TIP3    H129881   4.288   1.747   5.113  1.2245  0.5235 -0.2685
 2822TIP3    H229882   4.155   1.806   5.154  0.2896 -2.9071  2.0743
 2823TIP3   OH229883   3.853   4.085   5.954  0.5910 -0.1797 -0.2902
 2823TIP3    H129884   3.909   4.101   6.030 -0.8040  0.4327  0.6700
 2823TIP3    H229885   3.858   3.991   5.939  0.7653 -0.3328  0.6739
 2824TIP3   OH229886   2.863   2.853   3.485  0.1127 -0.4171  0.1935
 2824TIP3    H129887   2.824   2.788   3.427  0.3653 -0.7154  0.3532
 2824TIP3    H229888   2.869   2.809   3.570 -0.7135  0.1796  0.5728
 2825TIP3   OH229889   2.013   4.411  15.510  0.3506 -0.2832  0.9081
 2825TIP3    H129890   2.070   4.421  15.586  1.0845  0.7105  0.2509
 2825TIP3    H229891   2.073   4.408  15.435 -0.4501  2.3645  0.0535
 2826TIP3   OH229892   0.486   0.802  14.949 -0.0105  0.3006 -0.2206
 2826TIP3    H129893   0.406   0.854  14.950 -0.2504 -0.0382 -1.1310
 2826TIP3    H229894   0.553   0.861  14.985 -0.9049  0.1414  1.8042
 2827TIP3   OH229895   4.094   1.869  16.173  0.4814 -0.8395  0.1626
 2827TIP3    H129896   4.149   1.828  16.106 -0.8041 -0.3042 -1.2706
 2827TIP3    H229897   4.153   1.931  16.217  0.7887  0.7105 -2.2406
 2828TIP3   OH229898   0.227   4.090  14.243  0.6529 -0.1014 -0.3356
 2828TIP3    H129899   0.191   4.091  14.332 -0.4058 -1.0257 -0.7426
 2828TIP3    H229900   0.320   4.108  14.256  0.2248  1.5733  0.8028
 2829TIP3   OH229901   6.157   4.104  12.375 -0.1788 -0.0588  1.0132
 2829TIP3    H129902   6.141   4.185  12.327 -2.1295  0.0700  1.7710
 2829TIP3    H229903   6.244   4.114  12.412  0.6291  0.5885 -0.9796
 2830TIP3   OH229904   1.487   0.800   4.514  0.2202 -0.2741  0.2966
 2830TIP3    H129905   1.557   0.762   4.461 -0.1896  0.7667 -1.0722
 2830TIP3    H229906   1.509   0.893   4.520 -0.9971  0.0619 -0.1171
 2831TIP3   OH229907   5.363   6.427  13.414 -0.2129  0.5041 -0.2112
 2831TIP3    H129908   5.277   6.389  13.434 -0.8191  1.4084 -0.9874
 2831TIP3    H229909   5.424   6.381  13.471 -1.3207  0.3315  0.8718
 2832TIP3   OH229910   5.545   6.037   1.758  0.6561 -0.0856 -0.4182
 2832TIP3    H129911   5.512   6.011   1.672  1.7106 -0.7292 -0.6345
 2832TIP3    H229912   5.640   6.030   1.751  0.9383  2.5424 -0.0537
 2833TIP3   OH229913   6.063   2.186  14.703 -0.0186  0.6148  0.4993
 2833TIP3    H129914   6.019   2.158  14.783  1.0671 -0.6213  0.7018
 2833TIP3    H229915   6.147   2.222  14.734  1.2366 -1.5598 -0.1247
 2834TIP3   OH229916   1.150   6.382  10.973  0.5917  0.3682  0.3592
 2834TIP3    H129917   1.245   6.390  10.958  0.5886 -1.3618 -0.8875
 2834TIP3    H229918   1.112   6.379  10.886 -0.6104  0.6826  0.8475
 2835TIP3   OH229919   5.828   6.224  12.448 -0.5195  0.0381  0.1867
 2835TIP3    H129920   5.855   6.231  12.540  0.9220  2.0186 -0.3129
 2835TIP3    H229921   5.764   6.295  12.437 -0.1631  0.2544 -0.5074
 2836TIP3   OH229922   0.096   6.654  14.360  0.0972  0.4943 -0.4573
 2836TIP3    H129923   0.018   6.600  14.347  0.6467 -0.2132 -0.8845
 2836TIP3    H229924   0.110   6.653  14.455 -0.6493  0.9723 -0.3326
 2837TIP3   OH229925   1.704   4.413  11.922  0.1073 -0.0812  0.3539
 2837TIP3    H129926   1.627   4.356  11.921  0.1136 -0.1056  0.9669
 2837TIP3    H229927   1.731   4.415  12.014  0.2869  0.6733  0.2858
 2838TIP3   OH229928   6.201   3.889   3.369 -0.2770  0.1259 -0.4736
 2838TIP3    H129929   6.134   3.849   3.425  0.7033  0.1579  0.7492
 2838TIP3    H229930   6.284   3.855   3.403  0.3757  0.6034 -1.5482
 2839TIP3   OH229931   5.136   0.990   0.358 -0.3786 -0.1569  0.4787
 2839TIP3    H129932   5.173   0.917   0.408 -0.0234 -0.3639 -0.0776
 2839TIP3    H229933   5.212   1.043   0.333 -0.5628 -0.0078  0.2269
 2840TIP3   OH229934   0.601   0.528   4.297  0.6380  0.1786 -0.0520
 2840TIP3    H129935   0.570   0.441   4.320 -1.3670  0.1691 -2.3722
 2840TIP3    H229936   0.548   0.588   4.349  0.9322  0.0765  0.3764
 2841TIP3   OH229937   5.970   2.273   0.550 -0.3454 -0.0867 -0.3279
 2841TIP3    H129938   5.881   2.306   0.539 -0.9004 -1.0353  1.0463
 2841TIP3    H229939   5.973   2.196   0.493 -0.2230  0.2426 -0.7732
 2842TIP3   OH229940   2.338   1.469  17.217  0.6402 -0.1598  0.1446
 2842TIP3    H129941   2.249   1.502  17.205  0.6381  0.1048  0.8173
 2842TIP3    H229942   2.329   1.374  17.214  0.2596 -0.1436  0.6757
 2843TIP3   OH229943   2.754   5.032  12.784  0.0456 -0.2127 -0.3795
 2843TIP3    H129944   2.804   5.096  12.733 -0.4154  0.3167 -0.1666
 2843TIP3    H229945   2.820   4.968  12.812  0.6537  0.5675  0.0359
 2844TIP3   OH229946   4.286   3.289  15.710 -0.2080 -0.1928 -0.8167
 2844TIP3    H129947   4.274   3.203  15.671  1.0448 -0.5484 -0.4398
 2844TIP3    H229948   4.283   3.349  15.636  0.7127 -0.7327 -1.3121
 2845TIP3   OH229949   2.328   3.068   0.302 -0.0153 -0.2560 -0.2704
 2845TIP3    H129950   2.310   3.011   0.377 -0.7045  0.1424 -0.1166
 2845TIP3    H229951   2.350   3.153   0.342 -0.8386  0.0854 -0.5132
 2846TIP3   OH229952   3.386   3.329   4.466  0.4744  0.1877  0.4643
 2846TIP3    H129953   3.355   3.392   4.531  1.6221  0.0417  1.1869
 2846TIP3    H229954   3.327   3.341   4.391 -1.0840  0.1236  1.6335
 2847TIP3   OH229955   0.657   1.977   0.287 -0.0127  0.2126 -0.2260
 2847TIP3    H129956   0.617   1.988   0.373  0.5864  1.7577 -0.1091
 2847TIP3    H229957   0.590   2.007   0.225  0.0302  0.3370 -0.2117
 2848TIP3   OH229958   5.511   2.661   2.793 -0.7614 -0.1611 -0.0068
 2848TIP3    H129959   5.468   2.644   2.877 -2.2205  1.2036 -0.4381
 2848TIP3    H229960   5.570   2.734   2.811  0.3554 -1.0797  0.2298
 2849TIP3   OH229961   3.405   6.680  12.095  0.1963 -0.3602 -0.1559
 2849TIP3    H129962   3.350   6.601  12.093  1.3107 -1.1492 -1.9623
 2849TIP3    H229963   3.362   6.741  12.035  1.1781 -0.9472 -1.5051
 2850TIP3   OH229964   4.450   4.728  16.095  0.1838  0.1715 -0.0533
 2850TIP3    H129965   4.362   4.727  16.058 -0.6499 -2.2289  1.7643
 2850TIP3    H229966   4.440   4.770  16.180  0.4929 -1.2779  0.7281
 2851TIP3   OH229967   0.737   4.391  14.894  0.3040 -0.5148  0.0037
 2851TIP3    H129968   0.674   4.421  14.960 -0.9099 -0.7420 -1.0168
 2851TIP3    H229969   0.795   4.466  14.881  0.4318 -0.3906  1.1419
 2852TIP3   OH229970   2.544   0.286  12.781  0.6963 -0.2332 -0.3746
 2852TIP3    H129971   2.639   0.287  12.765  0.7276  0.3406 -0.2084
 2852TIP3    H229972   2.505   0.278  12.695  0.9023 -1.5260 -0.3645
 2853TIP3   OH229973   0.949   2.899   2.298 -0.0215  0.2217  0.2087
 2853TIP3    H129974   0.997   2.962   2.243 -0.3697  1.5062  1.3232
 2853TIP3    H229975   1.017   2.848   2.341  0.2858  0.2457 -0.2404
 2854TIP3   OH229976   6.441   6.445  11.601 -0.6234  0.3446 -0.0708
 2854TIP3    H129977   6.425   6.352  11.618  3.1732 -0.9043 -2.1156
 2854TIP3    H229978   6.406   6.459  11.513  0.6702  0.2316 -0.6173
 2855TIP3   OH229979   1.388   1.512  16.239 -0.6260 -0.1203  0.2402
 2855TIP3    H129980   1.455   1.576  16.264  0.3134 -0.6747 -0.7653
 2855TIP3    H229981   1.320   1.564  16.197 -2.7741  1.0143  4.5828
 2856TIP3   OH229982   6.498   6.172  11.177 -0.1800  0.6939  0.0962
 2856TIP3    H129983   6.516   6.162  11.083  0.8684 -0.9372  0.4291
 2856TIP3    H229984   6.402   6.175  11.182 -0.4155 -1.8792 -0.8932
 2857TIP3   OH229985   5.517   5.387   0.559  0.3957 -0.1858 -0.7512
 2857TIP3    H129986   5.508   5.397   0.464  1.1526 -0.0140 -0.8062
 2857TIP3    H229987   5.456   5.317   0.582  0.5424 -0.5395 -1.4267
 2858TIP3   OH229988   0.826   6.507  15.014 -0.2016  0.1949 -0.3203
 2858TIP3    H129989   0.752   6.447  15.021  0.1648 -0.5071 -1.8768
 2858TIP3    H229990   0.812   6.553  14.931  2.2239 -1.6602 -1.9130
 2859TIP3   OH229991   5.721   2.518   0.556  1.0114  0.3669  0.3992
 2859TIP3    H129992   5.642   2.467   0.576  1.1933  0.1122  0.4649
 2859TIP3    H229993   5.719   2.529   0.461  2.1818 -1.7401  0.0968
 2860TIP3   OH229994   5.611   5.561   1.503 -0.0147 -0.6362  0.0954
 2860TIP3    H129995   5.570   5.631   1.452 -0.4327 -2.1401 -1.7709
 2860TIP3    H229996   5.541   5.496   1.515  0.3683 -0.7978  1.7512
 2861TIP3   OH229997   0.072   2.747   6.597  0.2485  0.1891  0.1496
 2861TIP3    H129998   0.122   2.780   6.672 -0.9279 -0.8920  1.4339
 2861TIP3    H229999   0.002   2.812   6.585  0.9708  0.8551 -0.6448
 2862TIP3   OH230000   1.806   3.406  16.214  0.1943  0.1566 -0.4488
 2862TIP3    H130001   1.826   3.341  16.146  0.8692  1.1031 -1.1832
 2862TIP3    H230002   1.849   3.486  16.184  0.7607  0.5278  1.2406
 2863TIP3   OH230003   0.640   1.760   3.619  0.3267  0.1067 -0.4087
 2863TIP3    H130004   0.653   1.807   3.701  1.3582 -2.9982  1.3714
 2863TIP3    H230005   0.729   1.736   3.591 -0.0735  0.3410 -1.9502
 2864TIP3   OH230006   2.850   5.612  15.310 -0.0224 -0.3486 -0.0183
 2864TIP3    H130007   2.815   5.523  15.305 -0.0423 -0.2978 -0.8550
 2864TIP3    H230008   2.916   5.616  15.241  0.7727 -0.0594  0.7399
 2865TIP3   OH230009   6.303   3.202  16.009  0.1944 -0.3458  0.1826
 2865TIP3    H130010   6.236   3.216  16.077 -0.1719 -0.7911 -0.0858
 2865TIP3    H230011   6.378   3.168  16.057 -0.4897 -1.8904  0.2133
 2866TIP3   OH230012   6.110   2.273   0.910 -0.0521  0.5357  0.6781
 2866TIP3    H130013   6.125   2.272   1.004 -0.1961 -0.9401  0.7026
 2866TIP3    H230014   6.105   2.181   0.885  3.7572  0.6814 -1.3591
 2867TIP3   OH230015   6.404   1.447  16.512  0.5082  0.6243  0.3636
 2867TIP3    H130016   6.415   1.353  16.495 -1.1944 -0.2023  3.1322
 2867TIP3    H230017   6.445   1.490  16.437 -1.2144 -2.3462 -2.5619
 2868TIP3   OH230018   2.295   3.292  12.849  0.0101  0.1799  0.5456
 2868TIP3    H130019   2.285   3.384  12.823  0.3743 -0.2679 -1.2718
 2868TIP3    H230020   2.378   3.265  12.810 -0.3331 -1.0750  0.6550
 2869TIP3   OH230021   0.245   4.774  12.940  0.5232  0.4231  0.0700
 2869TIP3    H130022   0.322   4.771  12.883  0.2778 -2.2803 -0.2849
 2869TIP3    H230023   0.176   4.811  12.886  0.4588 -1.5083 -1.2636
 2870TIP3   OH230024   2.236   6.559  14.685  0.5124 -0.1662 -0.3630
 2870TIP3    H130025   2.294   6.620  14.730 -0.5581  0.6853 -0.0986
 2870TIP3    H230026   2.200   6.610  14.612  1.3041 -1.1668 -1.4873
 2871TIP3   OH230027   1.980   1.309   3.244  0.3513 -0.0511  0.2816
 2871TIP3    H130028   2.051   1.343   3.297 -0.8067  0.8937  1.2950
 2871TIP3    H230029   1.946   1.235   3.293 -0.3210  0.4412  0.5803
 2872TIP3   OH230030   0.788   1.624  14.136 -0.6561 -0.0023  0.4921
 2872TIP3    H130031   0.868   1.639  14.086 -1.0087 -1.0709 -0.4547
 2872TIP3    H230032   0.729   1.694  14.108 -0.5581 -0.0940  0.0422
 2873TIP3   OH230033   1.911   4.137  15.490  0.3283 -0.0808 -0.2999
 2873TIP3    H130034   1.934   4.227  15.509 -1.4990  0.5839 -1.0303
 2873TIP3    H230035   1.845   4.143  15.421 -1.5921 -1.8115  1.2271
 2874TIP3   OH230036   1.702   4.184   0.347 -0.3913  0.3595  0.2045
 2874TIP3    H130037   1.677   4.150   0.261 -0.1030 -1.1412  0.6713
 2874TIP3    H230038   1.748   4.110   0.388 -2.9026  0.0545  2.7063
 2875TIP3   OH230039   3.225   1.778   0.514 -0.4711 -0.1953 -0.1865
 2875TIP3    H130040   3.152   1.736   0.560 -1.3099  0.1016 -1.1962
 2875TIP3    H230041   3.291   1.793   0.581 -1.1603 -0.8864  0.6639
 2876TIP3   OH230042   3.876   2.776   5.873  0.0743  0.3278  0.8694
 2876TIP3    H130043   3.910   2.828   5.800 -2.0447  1.9106  0.9011
 2876TIP3    H230044   3.903   2.823   5.951 -1.2185  1.0398  0.9209
 2877TIP3   OH230045   3.030   1.381   0.240  0.1541 -0.5975 -0.5896
 2877TIP3    H130046   3.092   1.436   0.286  2.2051 -1.5898 -1.9967
 2877TIP3    H230047   3.056   1.291   0.262 -1.9028 -1.0690  0.1439
 2878TIP3   OH230048   4.311   5.985  15.684 -0.1465  0.2681  0.2823
 2878TIP3    H130049   4.289   6.044  15.756  4.4619  0.6583  1.7025
 2878TIP3    H230050   4.375   6.033  15.632 -0.4059 -1.4846 -1.7933
 2879TIP3   OH230051   5.199   1.105   5.067 -0.2259 -0.0279 -0.1189
 2879TIP3    H130052   5.128   1.166   5.046 -1.3155 -0.1553  2.8074
 2879TIP3    H230053   5.266   1.159   5.107 -0.4907 -0.4799  0.9677
 2880TIP3   OH230054   1.080   1.934  16.567 -0.3825  0.4955 -0.3363
 2880TIP3    H130055   1.084   2.004  16.501 -0.8317  1.6653  0.8289
 2880TIP3    H230056   1.172   1.914  16.585 -0.2435 -0.3388 -1.7826
 2881TIP3   OH230057   6.775   0.887  14.847 -0.0577 -0.3163 -0.2563
 2881TIP3    H130058   6.700   0.946  14.843  0.2040 -0.0049 -0.6751
 2881TIP3    H230059   6.851   0.945  14.858  0.0933 -0.6471  0.5121
 2882TIP3   OH230060   3.906   1.867   1.731  0.2511 -0.1026  0.3685
 2882TIP3    H130061   3.846   1.833   1.797  0.3180 -0.8594  0.0436
 2882TIP3    H230062   3.874   1.832   1.648 -0.1199  1.2259 -0.0816
 2883TIP3   OH230063   2.829   5.652   2.444  0.3645 -0.5701  0.0295
 2883TIP3    H130064   2.839   5.736   2.399  1.4647  0.3211  1.8177
 2883TIP3    H230065   2.740   5.655   2.481  1.0110  0.6829  1.6316
 2884TIP3   OH230066   6.452   0.431  15.175 -0.4385  0.2983  0.3202
 2884TIP3    H130067   6.464   0.417  15.082 -0.1949  0.4958  0.3216
 2884TIP3    H230068   6.387   0.366  15.201  0.3430 -0.5235  0.2442
 2885TIP3   OH230069   3.316   0.774  13.212  0.0115 -0.1760  0.1010
 2885TIP3    H130070   3.229   0.801  13.243  0.0967 -0.6999  0.8329
 2885TIP3    H230071   3.373   0.846  13.237 -0.1755  0.0620 -0.1613
 2886TIP3   OH230072   6.668   1.747  11.690 -0.0724  0.5594 -0.3914
 2886TIP3    H130073   6.618   1.797  11.755 -0.1528 -0.7728  0.6114
 2886TIP3    H230074   6.692   1.666  11.735  2.7172  0.9816 -0.9552
 2887TIP3   OH230075   0.857   0.648  11.511  0.2264 -0.3924  0.5199
 2887TIP3    H130076   0.799   0.577  11.482 -1.5181  1.0454  0.3255
 2887TIP3    H230077   0.942   0.627  11.473  0.0543 -2.9273  1.3451
 2888TIP3   OH230078   0.535   4.402   3.372  0.1655  0.1277  0.6298
 2888TIP3    H130079   0.571   4.353   3.446 -0.0080 -0.4378  0.3420
 2888TIP3    H230080   0.611   4.421   3.317  0.3351  0.7787  1.0780
 2889TIP3   OH230081   5.533   1.401  12.739  0.1284  0.4503 -0.9131
 2889TIP3    H130082   5.620   1.373  12.710  0.7404  0.8703  0.4146
 2889TIP3    H230083   5.477   1.325  12.724  0.9280 -0.1446 -0.9689
 2890TIP3   OH230084   4.882   5.896   2.548  0.1638  0.7806 -0.0914
 2890TIP3    H130085   4.812   5.927   2.490  0.0095 -0.6923 -0.7405
 2890TIP3    H230086   4.859   5.929   2.634 -0.4786  1.6512 -0.5875
 2891TIP3   OH230087   0.002   4.312  13.624 -0.4794  0.1053  0.3515
 2891TIP3    H130088   0.027   4.396  13.662  1.2280 -1.1018  2.0512
 2891TIP3    H230089   0.077   4.255  13.638 -1.3805 -1.5949 -1.2261
 2892TIP3   OH230090   1.371   6.027  15.916  0.1736 -0.1465 -0.2437
 2892TIP3    H130091   1.357   5.975  15.836  1.2019 -0.3635 -0.2988
 2892TIP3    H230092   1.429   6.098  15.888  1.1066 -0.6175  0.4432
 2893TIP3   OH230093   1.877   4.948  14.919  0.1081  0.0442  0.2786
 2893TIP3    H130094   1.855   4.944  15.012  1.2937 -1.8997  0.5153
 2893TIP3    H230095   1.972   4.948  14.916  0.0928 -0.6816 -0.9474
 2894TIP3   OH230096   1.727   6.725   1.012 -0.0959 -0.6746 -0.7257
 2894TIP3    H130097   1.802   6.783   1.025 -0.3237 -0.1415 -1.6436
 2894TIP3    H230098   1.708   6.689   1.098  1.2550 -0.8703 -0.4949
 2895TIP3   OH230099   6.253   1.770   1.405 -0.4704  0.0879 -0.5248
 2895TIP3    H130100   6.240   1.749   1.497  0.1862 -0.4952 -0.5563
 2895TIP3    H230101   6.330   1.828   1.404 -1.1823  1.0485 -0.6047
 2896TIP3   OH230102   4.220   0.879   4.318 -0.0214  0.5980 -0.3751
 2896TIP3    H130103   4.226   0.818   4.391 -0.3772 -1.4667 -1.9580
 2896TIP3    H230104   4.152   0.941   4.344 -0.2973 -0.2182  0.9378
 2897TIP3   OH230105   4.504   2.099   5.850 -0.0572  0.4915  0.3606
 2897TIP3    H130106   4.599   2.100   5.856  0.1756  0.0273 -2.2818
 2897TIP3    H230107   4.476   2.047   5.925  1.9254 -1.4653 -0.1628
 2898TIP3   OH230108   4.515   6.047  12.277  0.1536  0.3718 -0.3030
 2898TIP3    H130109   4.470   6.131  12.280  0.1048  0.3948 -1.4396
 2898TIP3    H230110   4.458   5.991  12.225  0.0634 -0.4527  0.6663
 2899TIP3   OH230111   3.592   0.782   0.139 -0.2738 -0.4105  0.1803
 2899TIP3    H130112   3.576   0.747   0.052 -0.5654 -1.5522  0.6764
 2899TIP3    H230113   3.529   0.738   0.195  0.7194 -0.6130  1.1780
 2900TIP3   OH230114   3.080   0.758  14.277 -0.1387 -0.1171 -0.0379
 2900TIP3    H130115   3.148   0.693  14.261  0.4947  0.3893  0.5456
 2900TIP3    H230116   3.095   0.787  14.367  0.6771  2.0867 -0.8305
 2901TIP3   OH230117   4.939   2.389   2.917 -0.4582 -0.1143  0.5625
 2901TIP3    H130118   4.896   2.439   2.987  1.6854  1.0564  1.1130
 2901TIP3    H230119   4.995   2.327   2.963  0.9797  0.6657 -0.0850
 2902TIP3   OH230120   1.628   6.616   1.391 -0.3302 -0.4318 -0.3103
 2902TIP3    H130121   1.606   6.525   1.411 -1.4298 -0.1778 -0.2646
 2902TIP3    H230122   1.543   6.661   1.392 -0.0629  0.2130 -2.3310
 2903TIP3   OH230123   3.912   3.386   6.023 -0.3994 -0.0523 -0.1178
 2903TIP3    H130124   3.882   3.431   5.944 -2.2160 -2.2273 -0.7802
 2903TIP3    H230125   3.872   3.434   6.095 -0.1424  0.9222 -0.6061
 2904TIP3   OH230126   1.747   4.668  11.525 -0.2857 -0.6074 -0.4291
 2904TIP3    H130127   1.765   4.762  11.530 -5.0246  0.5863 -0.4861
 2904TIP3    H230128   1.759   4.637  11.614 -1.7953  0.9151  0.3746
 2905TIP3   OH230129   1.200   6.228   0.089 -0.3620  0.5222  0.1854
 2905TIP3    H130130   1.250   6.229   0.170  1.1919  0.3547 -0.7431
 2905TIP3    H230131   1.212   6.315   0.051  1.7759 -0.4321 -1.5082
 2906TIP3   OH230132   6.002   3.263   0.803 -0.4290  0.3378  0.2457
 2906TIP3    H130133   6.018   3.341   0.857  1.0197 -0.3708  0.8896
 2906TIP3    H230134   5.908   3.265   0.787 -0.7500  1.1674  1.9006
 2907TIP3   OH230135   3.678   5.019  13.841  0.5171 -0.6454 -0.9227
 2907TIP3    H130136   3.586   5.001  13.823  0.7146 -2.0734 -0.5962
 2907TIP3    H230137   3.679   5.108  13.875 -1.0311 -1.3963  1.2494
 2908TIP3   OH230138   0.516   5.970   0.730 -0.2080 -0.1438 -0.1432
 2908TIP3    H130139   0.498   6.061   0.755 -0.3969  0.2584 -1.6347
 2908TIP3    H230140   0.569   5.935   0.801 -2.2297  0.3535  1.7037
 2909TIP3   OH230141   6.175   2.992   5.054 -0.3973 -0.2245  0.3958
 2909TIP3    H130142   6.167   3.004   5.149 -2.4255  0.7747  0.1508
 2909TIP3    H230143   6.124   2.912   5.036 -2.9582  1.4208 -0.1832
 2910TIP3   OH230144   6.717   3.490  13.297  0.1251  0.3360  0.6526
 2910TIP3    H130145   6.679   3.576  13.315 -0.5468  0.7054 -2.2056
 2910TIP3    H230146   6.784   3.507  13.231 -1.7285 -1.5875 -1.8541
 2911TIP3   OH230147   3.876   6.297   3.197  0.3442 -0.0914 -0.7914
 2911TIP3    H130148   3.835   6.212   3.184  1.7777 -1.1720  1.0867
 2911TIP3    H230149   3.900   6.326   3.109 -1.7484 -0.7598 -1.6343
 2912TIP3   OH230150   6.141   2.359  15.348  0.0511 -0.3122 -0.2804
 2912TIP3    H130151   6.165   2.355  15.255 -1.7064  1.7059 -0.9004
 2912TIP3    H230152   6.222   2.386  15.392  0.8524 -1.0538 -1.2369
 2913TIP3   OH230153   2.598   6.785   5.610 -0.2439 -0.0232  0.0533
 2913TIP3    H130154   2.641   6.830   5.537 -1.1126  0.1852 -0.3365
 2913TIP3    H230155   2.544   6.852   5.651  1.4388  0.2828  1.8890
 2914TIP3   OH230156   2.403   3.052   6.746 -0.3761 -0.2587  0.1708
 2914TIP3    H130157   2.354   2.978   6.781 -0.7339 -0.8334 -1.4452
 2914TIP3    H230158   2.338   3.102   6.696  0.3734 -0.2343 -0.8119
 2915TIP3   OH230159   1.922   6.334   1.715 -0.7411 -0.8005 -0.2902
 2915TIP3    H130160   1.868   6.398   1.763 -0.6436 -0.9513  0.0241
 2915TIP3    H230161   1.970   6.288   1.784 -0.9469 -1.3373 -0.5079
 2916TIP3   OH230162   4.071   6.475  12.672  0.3997  0.2312 -0.4731
 2916TIP3    H130163   3.985   6.438  12.694  1.2700 -2.0040 -0.5207
 2916TIP3    H230164   4.133   6.417  12.716  1.8953  1.9100 -0.2970
 2917TIP3   OH230165   3.808   0.423   2.098 -0.6234 -0.3596 -0.0583
 2917TIP3    H130166   3.784   0.427   2.191 -0.8767 -1.9521 -0.0199
 2917TIP3    H230167   3.872   0.493   2.087 -0.6711 -0.0669  1.2908
 2918TIP3   OH230168   0.655   2.705  16.500 -0.3069  0.0752 -0.3291
 2918TIP3    H130169   0.599   2.641  16.456 -3.2558  1.6204  0.8742
 2918TIP3    H230170   0.647   2.784  16.447  0.7357  0.3427 -0.0987
 2919TIP3   OH230171   4.742   1.847  13.316  0.1545 -0.3968  0.1879
 2919TIP3    H130172   4.689   1.926  13.329 -1.5199 -1.4282 -0.0979
 2919TIP3    H230173   4.820   1.862  13.370 -0.2854  1.2829  0.4275
 2920TIP3   OH230174   1.516   3.271   1.085 -0.1973 -0.3780  0.1763
 2920TIP3    H130175   1.495   3.246   0.995 -0.9431 -3.0217  0.9740
 2920TIP3    H230176   1.564   3.353   1.077 -3.0335  1.2613 -2.4024
 2921TIP3   OH230177   1.334   0.288  12.217 -0.0155 -0.3965 -0.5134
 2921TIP3    H130178   1.339   0.286  12.313  2.4773  0.2178 -0.5637
 2921TIP3    H230179   1.412   0.242  12.188 -1.7332 -2.3566 -2.3478
 2922TIP3   OH230180   0.869   6.072   4.468  0.2886 -0.4773 -0.5128
 2922TIP3    H130181   0.778   6.050   4.445 -1.1427  1.9988  2.1254
 2922TIP3    H230182   0.895   6.136   4.401 -0.5978  0.1496 -0.2739
 2923TIP3   OH230183   1.083   0.248  15.338 -0.0911  0.2670  0.0238
 2923TIP3    H130184   1.112   0.252  15.429 -0.0429  1.2303 -0.0260
 2923TIP3    H230185   1.164   0.250  15.287 -0.0836 -0.9732 -0.0361
 2924TIP3   OH230186   2.110   1.245   2.346 -0.5444  0.1817  0.2201
 2924TIP3    H130187   2.120   1.196   2.264 -0.6082 -1.1098  0.9591
 2924TIP3    H230188   2.125   1.336   2.321  0.3427 -0.2829 -1.0553
 2925TIP3   OH230189   5.594   3.045  15.820 -0.0825  0.1269  0.7080
 2925TIP3    H130190   5.579   2.986  15.746 -0.4295 -0.6768  1.4068
 2925TIP3    H230191   5.610   3.131  15.780  0.2772 -0.4076 -0.3143
 2926TIP3   OH230192   0.715   0.611   2.628  0.0470 -0.0986 -0.3119
 2926TIP3    H130193   0.649   0.557   2.585 -1.7774 -0.4527  2.6557
 2926TIP3    H230194   0.745   0.671   2.560 -3.1521 -0.1321 -1.9425
 2927TIP3   OH230195   6.058   3.662   3.264 -0.2570 -0.5311  0.0022
 2927TIP3    H130196   5.995   3.623   3.325 -0.5543 -0.1756 -0.0777
 2927TIP3    H230197   6.092   3.738   3.311  0.1329 -0.7379  0.0554
 2928TIP3   OH230198   5.462   5.781   1.357 -0.6581  0.4910 -0.3775
 2928TIP3    H130199   5.506   5.733   1.286  0.7067  0.9185  0.1303
 2928TIP3    H230200   5.482   5.873   1.339 -1.2422  0.6826 -0.0487
 2929TIP3   OH230201   1.028   5.802   4.885 -0.1800  0.6098 -0.4342
 2929TIP3    H130202   1.044   5.755   4.966 -0.6993 -0.5009 -0.9608
 2929TIP3    H230203   0.972   5.744   4.833  1.5893  0.4582 -2.3301
 2930TIP3   OH230204   0.698   3.805   4.499 -0.1378  0.0905 -0.5207
 2930TIP3    H130205   0.737   3.743   4.561  1.0081  1.1493 -0.1452
 2930TIP3    H230206   0.613   3.827   4.539  0.1693  0.0277  0.1906
 2931TIP3   OH230207   4.141   1.968  13.273 -0.7035 -0.2408 -0.2376
 2931TIP3    H130208   4.236   1.954  13.271 -0.5698  0.4555  0.7611
 2931TIP3    H230209   4.129   2.041  13.334 -2.0185 -1.3625  0.8801
 2932TIP3   OH230210   4.234   6.689  14.789 -0.0591  0.3234 -0.0960
 2932TIP3    H130211   4.142   6.667  14.804  0.0027 -0.4002 -0.7582
 2932TIP3    H230212   4.244   6.691  14.694  0.7059 -0.0275 -0.0331
 2933TIP3   OH230213   1.649   4.164   3.482  0.5541 -0.5249  0.3448
 2933TIP3    H130214   1.562   4.199   3.499 -0.1833  0.5549 -4.2820
 2933TIP3    H230215   1.637   4.069   3.480 -0.9952 -0.3565 -1.7177
 2934TIP3   OH230216   6.705   0.224  12.095  0.0109 -0.1260 -0.1036
 2934TIP3    H130217   6.633   0.287  12.087  0.5689  0.6069  0.5346
 2934TIP3    H230218   6.717   0.212  12.189  0.4512 -0.5703 -0.2073
 2935TIP3   OH230219   6.283   2.198  13.886 -0.8094 -1.1046 -0.2316
 2935TIP3    H130220   6.287   2.257  13.811  3.4830  0.4024  0.8948
 2935TIP3    H230221   6.266   2.256  13.961 -0.6071 -1.8784  0.4304
 2936TIP3   OH230222   4.696   1.824   2.107  0.1280 -0.1210  0.0461
 2936TIP3    H130223   4.719   1.789   2.194 -1.6642  0.0576  0.6277
 2936TIP3    H230224   4.724   1.915   2.111  2.0639 -0.6312 -0.4043
 2937TIP3   OH230225   1.128   2.128  13.462 -0.2087  0.0829  0.1895
 2937TIP3    H130226   1.202   2.159  13.513 -0.8844 -0.3243  1.4829
 2937TIP3    H230227   1.167   2.083  13.387  0.8305  0.2985  0.5838
 2938TIP3   OH230228   0.203   1.113   3.332 -0.4573  0.5929  0.6395
 2938TIP3    H130229   0.173   1.195   3.372 -2.1959  0.5114 -0.4211
 2938TIP3    H230230   0.136   1.049   3.355  1.5830 -0.9954  2.7102
 2939TIP3   OH230231   2.102   3.737   5.748  0.1525 -0.0008  0.3521
 2939TIP3    H130232   2.116   3.831   5.755 -0.3522  0.1341 -0.3513
 2939TIP3    H230233   2.139   3.701   5.829  0.6047  0.7659  0.4960
 2940TIP3   OH230234   3.066   2.423  15.520 -0.0160  0.1082  0.3144
 2940TIP3    H130235   3.123   2.384  15.453 -1.1642 -2.8412  0.8860
 2940TIP3    H230236   2.985   2.442  15.474  0.1848  0.8844  0.2693
 2941TIP3   OH230237   4.837   2.151  16.397  0.2143  0.0448 -0.7792
 2941TIP3    H130238   4.853   2.149  16.491  0.1381  0.1110 -0.7651
 2941TIP3    H230239   4.748   2.185  16.388 -0.3688 -1.4065 -0.8018
 2942TIP3   OH230240   1.992   1.786  15.844  0.0979  0.4026 -0.2186
 2942TIP3    H130241   2.077   1.804  15.803  0.2774  1.9648  0.7478
 2942TIP3    H230242   2.013   1.727  15.916  0.2183  0.0057 -0.5777
 2943TIP3   OH230243   3.723   3.184  11.355  0.1188 -0.4024 -0.8579
 2943TIP3    H130244   3.756   3.226  11.275  2.8110  1.3532  1.0280
 2943TIP3    H230245   3.772   3.103  11.362 -0.8155 -1.0379 -1.4276
 2944TIP3   OH230246   0.368   2.981   4.163 -0.1255 -0.1996  1.2147
 2944TIP3    H130247   0.298   3.043   4.185 -0.1071  0.3544 -0.1566
 2944TIP3    H230248   0.329   2.923   4.098  0.5289 -0.1890  0.7997
 2945TIP3   OH230249   1.803   3.774   1.128  0.9972 -0.1788  0.7095
 2945TIP3    H130250   1.718   3.817   1.119  1.2755  0.8069  2.2937
 2945TIP3    H230251   1.854   3.806   1.053  0.2920  0.0064  0.2999
 2946TIP3   OH230252   5.550   4.687   1.141 -0.2455  0.1911  0.0621
 2946TIP3    H130253   5.617   4.619   1.133  1.1214  1.6795 -2.2566
 2946TIP3    H230254   5.529   4.690   1.235  0.8729 -2.2225  0.4398
 2947TIP3   OH230255   5.871   5.169  16.395  0.4177 -0.2026  0.5498
 2947TIP3    H130256   5.809   5.117  16.446 -0.2665  0.5886  0.5268
 2947TIP3    H230257   5.948   5.112  16.388  0.3971 -0.4902  2.1379
 2948TIP3   OH230258   5.120   4.127  11.581 -0.0647  0.0809 -0.3599
 2948TIP3    H130259   5.051   4.064  11.604  1.4761 -1.3598  0.5062
 2948TIP3    H230260   5.086   4.173  11.504 -2.7236  0.6460  1.0324
 2949TIP3   OH230261   3.894   5.191   0.330 -0.4843  0.3219 -0.4874
 2949TIP3    H130262   3.972   5.184   0.385 -0.8730  1.1055  0.1977
 2949TIP3    H230263   3.821   5.187   0.392 -0.9703 -0.0107 -1.0804
 2950TIP3   OH230264   0.563   6.181  10.854 -0.2836 -0.0667 -0.1496
 2950TIP3    H130265   0.625   6.204  10.785  0.1076  2.3176  0.8961
 2950TIP3    H230266   0.483   6.158  10.807  0.0141  1.3362 -1.4291
 2951TIP3   OH230267   0.874   5.300  12.382 -0.0358 -0.1450  0.6066
 2951TIP3    H130268   0.845   5.303  12.473  0.7546  2.8092  0.8449
 2951TIP3    H230269   0.830   5.374  12.341  0.1990 -0.9968 -1.2738
 2952TIP3   OH230270   2.147   3.832  17.115 -0.0761  0.0587 -0.2220
 2952TIP3    H130271   2.088   3.894  17.156  0.5110 -0.1539  0.9711
 2952TIP3    H230272   2.135   3.846  17.021 -1.3631  0.6201  0.0087
 2953TIP3   OH230273   2.023   6.127  16.929 -0.5172 -0.1382 -0.1398
 2953TIP3    H130274   1.955   6.151  16.865 -1.7409 -0.9653  0.8115
 2953TIP3    H230275   2.094   6.090  16.875 -1.4433 -0.6559 -1.0396
 2954TIP3   OH230276   0.274   5.223  11.553 -0.0785 -0.1737  0.3495
 2954TIP3    H130277   0.350   5.248  11.500 -0.3255 -0.2321 -0.0345
 2954TIP3    H230278   0.309   5.213  11.642  0.2866  0.1774  0.2461
 2955TIP3   OH230279   6.015   3.133  12.703  0.1197 -0.3218 -0.1611
 2955TIP3    H130280   6.005   3.075  12.778 -1.1544 -0.0155 -0.0673
 2955TIP3    H230281   6.082   3.196  12.730 -0.2284 -0.2962  0.6708
 2956TIP3   OH230282   4.053   2.427   4.416 -0.5707  0.4815  0.4303
 2956TIP3    H130283   4.032   2.387   4.332  0.3090  0.9104 -0.0046
 2956TIP3    H230284   4.020   2.516   4.410 -0.7468  0.4321  0.6420
 2957TIP3   OH230285   4.714   0.070  10.894  0.0428  0.1854 -0.4176
 2957TIP3    H130286   4.651   0.140  10.879  0.8962  0.7012 -1.8122
 2957TIP3    H230287   4.799   0.113  10.892  0.4741 -0.4593  1.6589
 2958TIP3   OH230288   1.103   0.895   2.524  0.3165  0.2024  0.2071
 2958TIP3    H130289   1.125   0.907   2.616  1.0509  1.8459 -0.1432
 2958TIP3    H230290   1.128   0.804   2.505  0.3247 -0.1018  1.5604
 2959TIP3   OH230291   0.089   0.995   0.925  0.2211 -0.2885 -0.3781
 2959TIP3    H130292   0.003   0.954   0.915 -0.4733  0.6027  1.4131
 2959TIP3    H230293   0.121   0.960   1.009  0.5415  1.1813  0.1331
 2960TIP3   OH230294   0.674   0.974  15.888  0.6089 -0.2099  0.2780
 2960TIP3    H130295   0.757   1.021  15.880 -0.0296  0.8371 -0.3659
 2960TIP3    H230296   0.611   1.041  15.913 -0.4981 -0.5111 -1.5264
 2961TIP3   OH230297   5.111   3.900   5.208  0.5592  0.3248 -0.1569
 2961TIP3    H130298   5.110   3.807   5.230  0.1030  0.6185  1.1416
 2961TIP3    H230299   5.203   3.920   5.191  0.6725 -0.3346 -0.3369
 2962TIP3   OH230300   4.620   0.602  12.123  0.6859  0.0640 -0.0287
 2962TIP3    H130301   4.610   0.697  12.125  2.5954  0.4272 -2.3710
 2962TIP3    H230302   4.702   0.585  12.169 -0.2746 -0.6360  1.4966
 2963TIP3   OH230303   0.445   1.725   4.763 -0.1563 -0.2433  0.5229
 2963TIP3    H130304   0.525   1.733   4.815 -0.7893 -2.0366  1.9068
 2963TIP3    H230305   0.465   1.657   4.698 -0.6304 -0.9970  1.1360
 2964TIP3   OH230306   2.028   0.180  16.845  0.2004  0.1713 -0.7530
 2964TIP3    H130307   1.993   0.233  16.916  1.0071  1.6276 -1.3866
 2964TIP3    H230308   2.120   0.167  16.868  0.3712  0.3180 -1.3376
 2965TIP3   OH230309   2.823   5.311   6.088 -0.3398  0.3419  0.5639
 2965TIP3    H130310   2.842   5.263   6.008 -0.0811  0.5545  0.4970
 2965TIP3    H230311   2.898   5.369   6.100  0.2852 -0.6338  1.6765
 2966TIP3   OH230312   4.019   4.395  12.495 -0.4416  0.2372 -0.4354
 2966TIP3    H130313   4.101   4.359  12.530 -1.4425 -0.8170  0.9229
 2966TIP3    H230314   4.003   4.346  12.415  0.5287  0.8550 -1.0319
 2967TIP3   OH230315   5.503   3.983   5.955 -0.1440  0.4131  0.2907
 2967TIP3    H130316   5.422   4.033   5.968 -1.4670 -0.8911 -2.1710
 2967TIP3    H230317   5.510   3.928   6.032 -1.8291  0.2870  0.3975
 2968TIP3   OH230318   2.129   5.161   0.456 -0.6604 -0.0682  0.2100
 2968TIP3    H130319   2.198   5.192   0.397 -0.2939  0.2759  0.8161
 2968TIP3    H230320   2.174   5.101   0.515 -1.3635 -1.8665 -0.9830
 2969TIP3   OH230321   0.665   6.152  11.775 -0.0710 -0.0744  0.3130
 2969TIP3    H130322   0.702   6.230  11.815  0.5825  0.1857 -0.7421
 2969TIP3    H230323   0.740   6.094  11.763 -0.3586 -0.3906  0.0279
 2970TIP3   OH230324   4.529   4.895  14.748 -0.5403  0.2169  0.2469
 2970TIP3    H130325   4.600   4.958  14.765  0.6382 -1.0402  0.1361
 2970TIP3    H230326   4.475   4.898  14.827 -2.7958  4.1385 -1.1572
 2971TIP3   OH230327   4.305   2.063   4.038 -0.2504  0.3634  0.1571
 2971TIP3    H130328   4.294   2.078   3.944  1.7601  0.2091 -0.1475
 2971TIP3    H230329   4.264   2.139   4.079  0.3448  1.2900 -0.9121
 2972TIP3   OH230330   6.563   6.743   2.337  0.3086 -0.4912 -0.2332
 2972TIP3    H130331   6.542   6.781   2.251 -0.1892  1.5081  0.7292
 2972TIP3    H230332   6.656   6.762   2.350  0.7835 -2.1131 -0.9189
 2973TIP3   OH230333   1.304   4.077   2.226  0.1849 -0.0106  0.2190
 2973TIP3    H130334   1.341   4.090   2.139  1.4033 -1.0923  0.5354
 2973TIP3    H230335   1.231   4.139   2.231  1.4624  1.6635 -0.7416
 2974TIP3   OH230336   1.332   3.393  14.288  0.6151 -0.0861  0.0463
 2974TIP3    H130337   1.301   3.303  14.296  0.8559 -0.2282 -0.5228
 2974TIP3    H230338   1.253   3.445  14.279  0.4569 -0.1910  0.7982
 2975TIP3   OH230339   2.117   3.471  11.035  0.0676 -0.5029 -0.0092
 2975TIP3    H130340   2.187   3.447  11.096 -0.0200 -1.6206 -0.3180
 2975TIP3    H230341   2.160   3.474  10.949 -0.4019 -2.0250 -0.3221
 2976TIP3   OH230342   0.732   2.703   0.364  0.3623 -0.1592  0.0512
 2976TIP3    H130343   0.808   2.754   0.391  0.1582 -0.6891  1.7127
 2976TIP3    H230344   0.710   2.650   0.440 -0.8556 -1.0167 -0.8569
 2977TIP3   OH230345   5.717   1.533   1.352  0.2042  0.1332  0.2595
 2977TIP3    H130346   5.655   1.535   1.279  2.0479 -0.3446 -1.4181
 2977TIP3    H230347   5.714   1.443   1.384  1.3722 -0.4309 -1.1066
 2978TIP3   OH230348   1.032   6.161   3.461  0.0431 -0.5167 -0.2807
 2978TIP3    H130349   1.073   6.228   3.406 -0.3648 -0.9232 -1.1026
 2978TIP3    H230350   1.100   6.137   3.524  1.0331 -1.0216 -1.4841
 2979TIP3   OH230351   0.601   2.759   5.632  0.2989 -0.2667  0.2084
 2979TIP3    H130352   0.573   2.845   5.664 -2.4826 -0.1549 -2.1303
 2979TIP3    H230353   0.687   2.776   5.592 -0.3467  1.5411 -0.5209
 2980TIP3   OH230354   3.504   3.344  13.149  0.2044 -0.5634 -0.2730
 2980TIP3    H130355   3.592   3.340  13.188  0.7206 -0.3288 -1.3831
 2980TIP3    H230356   3.458   3.410  13.201  0.4290 -1.2029  0.7810
 2981TIP3   OH230357   5.970   4.135  17.041 -0.1757 -0.3207  0.6547
 2981TIP3    H130358   6.009   4.063  16.992 -0.5777 -0.2349  0.2022
 2981TIP3    H230359   6.023   4.211  17.019 -0.2247 -0.3250  0.5227
 2982TIP3   OH230360   4.669   0.965  14.067  0.3131 -0.8003  0.6162
 2982TIP3    H130361   4.731   0.994  13.999  0.3952  0.8510  1.3676
 2982TIP3    H230362   4.724   0.949  14.144  0.1282 -1.9796  0.5169
 2983TIP3   OH230363   6.785   4.031  13.205 -0.4325  0.3564 -0.1783
 2983TIP3    H130364   6.874   4.014  13.236 -0.7281 -0.9545 -0.0088
 2983TIP3    H230365   6.757   3.949  13.164 -1.9190  0.4318  0.6256
 2984TIP3   OH230366   5.499   2.173   2.460  0.5993 -0.5524 -0.1646
 2984TIP3    H130367   5.435   2.234   2.495 -0.9665 -2.0516 -0.2831
 2984TIP3    H230368   5.565   2.228   2.419  0.9666  1.1575  2.5039
 2985TIP3   OH230369   3.957   3.211  15.753  0.2928  0.9884 -0.0999
 2985TIP3    H130370   4.050   3.192  15.738  0.3111 -0.8391  1.9580
 2985TIP3    H230371   3.911   3.134  15.721 -0.2900  0.7891  1.1677
 2986TIP3   OH230372   2.413   6.253  14.356 -0.4984  1.1120  0.2365
 2986TIP3    H130373   2.490   6.304  14.333  1.8287 -0.8297  3.0663
 2986TIP3    H230374   2.386   6.288  14.442 -1.7570  0.6460  0.0507
 2987TIP3   OH230375   4.579   5.695  12.078  0.0969 -0.3063 -0.2924
 2987TIP3    H130376   4.587   5.653  11.993 -1.0472  1.1279 -1.1734
 2987TIP3    H230377   4.668   5.697  12.113  0.4260 -1.8259 -0.9728
 2988TIP3   OH230378   3.448   4.820   2.289  0.2813 -0.1831  1.0277
 2988TIP3    H130379   3.429   4.912   2.273 -0.5811  0.0851  3.2595
 2988TIP3    H230380   3.532   4.805   2.246 -0.7305  0.9443 -1.4927
 2989TIP3   OH230381   6.093   2.434   2.204  0.0123 -0.6415 -0.3239
 2989TIP3    H130382   6.182   2.403   2.214  0.2149 -0.0372 -0.1819
 2989TIP3    H230383   6.103   2.523   2.168 -0.5482 -0.8662 -1.0716
 2990TIP3   OH230384   2.286   0.285   4.606  0.1836 -0.3226  0.3700
 2990TIP3    H130385   2.222   0.289   4.677  0.5000 -1.1278  0.7010
 2990TIP3    H230386   2.284   0.373   4.568  0.2583  0.2233  1.5802
 2991TIP3   OH230387   3.536   4.270   5.877 -0.0498 -0.2550 -0.5410
 2991TIP3    H130388   3.505   4.193   5.829 -0.3740  0.9113 -2.2624
 2991TIP3    H230389   3.630   4.271   5.863  0.1523 -1.0669  0.6201
 2992TIP3   OH230390   0.481   3.349   0.747  0.3290  0.0163 -0.5619
 2992TIP3    H130391   0.520   3.436   0.736 -3.3682  2.1704  1.1802
 2992TIP3    H230392   0.396   3.355   0.702  0.4926 -3.2539 -1.5812
 2993TIP3   OH230393   3.904   4.905   1.012  0.1969 -0.5282  0.4560
 2993TIP3    H130394   3.992   4.935   0.990  0.1416 -0.2161  0.6561
 2993TIP3    H230395   3.850   4.984   1.006  0.0720 -0.5632  1.0939
 2994TIP3   OH230396   2.698   5.146  14.624  0.3690 -0.1733  0.0986
 2994TIP3    H130397   2.652   5.172  14.704 -0.3751 -0.5469 -0.2014
 2994TIP3    H230398   2.629   5.133  14.559  1.0255  1.0684 -0.9010
 2995TIP3   OH230399   2.179   5.972   0.500 -0.2471 -0.4375  0.0411
 2995TIP3    H130400   2.156   6.062   0.521  0.2993 -0.4171  0.5911
 2995TIP3    H230401   2.149   5.921   0.575 -1.2857 -0.8367 -0.6238
 2996TIP3   OH230402   1.579   0.948   6.405  0.1318  0.4812 -0.0458
 2996TIP3    H130403   1.511   0.895   6.447  0.3902 -0.6214 -0.9853
 2996TIP3    H230404   1.659   0.897   6.417  0.5163  1.0176 -0.3234
 2997TIP3   OH230405   1.335   6.448   2.643 -0.2822  0.4382  0.5423
 2997TIP3    H130406   1.426   6.454   2.613 -0.3891  0.8228  0.2959
 2997TIP3    H230407   1.329   6.361   2.682 -0.4775 -0.6110 -1.6830
 2998TIP3   OH230408   6.217   2.028  17.114 -0.4515  0.3662  0.0563
 2998TIP3    H130409   6.190   1.993  17.199 -1.7770  1.1669  0.0013
 2998TIP3    H230410   6.302   2.067  17.129  0.0836 -0.9565  0.6161
 2999TIP3   OH230411   5.696   4.655  11.225 -0.2729 -0.2641  0.0473
 2999TIP3    H130412   5.684   4.610  11.142 -1.0939  0.2397 -0.1219
 2999TIP3    H230413   5.787   4.686  11.223  0.1953 -1.5692  0.0177
 3000TIP3   OH230414   2.395   4.629   5.086 -0.2530 -0.3617 -0.5304
 3000TIP3    H130415   2.309   4.669   5.072  0.3572  0.9054 -0.7974
 3000TIP3    H230416   2.449   4.700   5.121  0.6115 -1.2186 -0.0909
 3001TIP3   OH230417   4.761   1.889   1.274 -0.6579  0.4441 -0.7715
 3001TIP3    H130418   4.732   1.832   1.203 -1.3419  1.3182 -1.2006
 3001TIP3    H230419   4.680   1.915   1.318 -0.2208 -0.5514  0.7190
 3002TIP3   OH230420   3.196   5.359   3.120  0.2854  0.0412 -0.3166
 3002TIP3    H130421   3.110   5.357   3.161 -0.2716 -1.1884 -1.4434
 3002TIP3    H230422   3.190   5.294   3.050  2.8608 -1.8951  1.0757
 3003TIP3   OH230423   0.903   6.572   0.973  0.0781 -0.0899  0.0462
 3003TIP3    H130424   0.851   6.650   0.985 -0.2242 -0.3499  0.4612
 3003TIP3    H230425   0.840   6.500   0.970  0.1411 -0.1291 -2.7035
 3004TIP3   OH230426   4.621   3.006   2.052 -0.5151 -0.6478 -0.0788
 3004TIP3    H130427   4.596   2.936   1.991 -0.5235 -0.9105  0.2218
 3004TIP3    H230428   4.683   3.060   2.003 -0.4499 -0.9093 -0.2883
 3005TIP3   OH230429   0.196   1.811   1.995 -0.0845 -0.1162 -0.1778
 3005TIP3    H130430   0.101   1.824   1.988 -0.0365  0.6288  0.4236
 3005TIP3    H230431   0.212   1.808   2.090  0.5352  0.0692 -0.2745
 3006TIP3   OH230432   5.446   3.894  13.031 -0.4190 -0.1441  0.0874
 3006TIP3    H130433   5.534   3.914  13.065 -0.3115 -2.1791  1.2036
 3006TIP3    H230434   5.462   3.859  12.943 -0.0530 -0.8198  0.4112
 3007TIP3   OH230435   0.978   5.605  15.670 -0.5750 -0.0402 -0.0771
 3007TIP3    H130436   1.004   5.664  15.740 -1.7304 -1.2452  1.4704
 3007TIP3    H230437   1.059   5.560  15.645  0.0537  1.1963 -0.3045
 3008TIP3   OH230438   6.782   4.113  15.795  0.2009 -0.0386 -0.3170
 3008TIP3    H130439   6.797   4.051  15.724 -1.8911 -0.3785 -0.5031
 3008TIP3    H230440   6.792   4.061  15.875 -0.6974 -0.4320 -0.4539
 3009TIP3   OH230441   5.951   4.797   5.118  0.3196  1.0165  0.3142
 3009TIP3    H130442   5.951   4.829   5.209 -0.3098  0.8048  0.3924
 3009TIP3    H230443   5.863   4.760   5.106  0.4585  0.8972 -0.3309
 3010TIP3   OH230444   3.985   4.439   1.790 -0.4312 -0.2143 -0.0420
 3010TIP3    H130445   3.933   4.499   1.737 -1.0387 -0.3309  0.4147
 3010TIP3    H230446   4.059   4.417   1.735  1.4589  3.2714  0.7807
 3011TIP3   OH230447   4.859   5.896   2.887  0.3957  0.1166  0.2473
 3011TIP3    H130448   4.797   5.823   2.883  1.9098 -1.1871 -0.6689
 3011TIP3    H230449   4.813   5.964   2.937 -1.6732 -0.8503 -0.2220
 3012TIP3   OH230450   1.651   3.625  15.854 -0.1618 -0.5813 -0.3473
 3012TIP3    H130451   1.720   3.686  15.828 -0.6897  0.3854  0.4252
 3012TIP3    H230452   1.575   3.681  15.870 -0.5277 -1.3845  0.8858
 3013TIP3   OH230453   6.282   4.841   3.281 -0.2362 -0.2702 -0.4530
 3013TIP3    H130454   6.288   4.810   3.190 -3.1078  0.9180 -1.1523
 3013TIP3    H230455   6.297   4.935   3.276  1.8315 -0.4722  0.7106
 3014TIP3   OH230456   1.037   5.726  10.807 -0.2265  0.0281 -0.0038
 3014TIP3    H130457   1.109   5.779  10.770  0.8403  0.2877  2.2698
 3014TIP3    H230458   1.082   5.658  10.857 -1.6031 -0.9860 -0.1234
 3015TIP3   OH230459   3.982   5.618   4.409 -0.0282 -0.0886 -0.0553
 3015TIP3    H130460   3.887   5.617   4.419 -0.3036 -1.9932 -1.8812
 3015TIP3    H230461   4.001   5.700   4.363 -0.4666  1.3491  2.2229
 3016TIP3   OH230462   4.132   0.731   3.690 -0.3054 -0.7405  0.4043
 3016TIP3    H130463   4.110   0.812   3.737  0.8186  0.2904 -0.7535
 3016TIP3    H230464   4.198   0.689   3.745 -0.3850 -0.5026  0.6853
 3017TIP3   OH230465   3.607   0.819   1.684  0.7386 -0.4235 -0.0747
 3017TIP3    H130466   3.682   0.864   1.645  0.0530 -0.1945 -1.1690
 3017TIP3    H230467   3.580   0.875   1.756  1.3519 -0.2989  0.0639
 3018TIP3   OH230468   2.354   0.795  14.089  0.3681  0.3145  0.4922
 3018TIP3    H130469   2.446   0.811  14.070  0.1409  1.2369  0.1242
 3018TIP3    H230470   2.309   0.807  14.006  0.1052 -1.8818  0.2766
 3019TIP3   OH230471   6.381   3.920  16.607 -0.0690 -0.0275  0.1420
 3019TIP3    H130472   6.355   3.982  16.538 -0.6167  0.6807  0.9740
 3019TIP3    H230473   6.341   3.838  16.581  0.7523 -0.0879 -1.0343
 3020TIP3   OH230474   3.826   5.002   0.723  0.0550 -0.0965 -0.3370
 3020TIP3    H130475   3.861   4.930   0.670  1.2450  0.5789 -0.4997
 3020TIP3    H230476   3.744   4.968   0.759  1.0431 -1.8593  0.3485
 3021TIP3   OH230477   4.164   4.727   1.211  0.3753  0.1788 -0.6802
 3021TIP3    H130478   4.174   4.822   1.212 -0.2147  0.2705 -1.4489
 3021TIP3    H230479   4.250   4.692   1.231  0.6469  0.8804 -0.6220
 3022TIP3   OH230480   5.253   1.229   6.320 -0.0979  0.3300 -0.5321
 3022TIP3    H130481   5.202   1.201   6.396  2.1315 -0.5770  0.7219
 3022TIP3    H230482   5.226   1.319   6.305 -1.0059  0.3414  0.9822
 3023TIP3   OH230483   6.173   2.349   1.460  0.1949 -0.2604  0.5063
 3023TIP3    H130484   6.138   2.381   1.544  2.3238 -0.8344  1.6956
 3023TIP3    H230485   6.232   2.419   1.431  0.4445 -0.6226  0.1434
 3024TIP3   OH230486   3.777   4.103   0.725  0.3018  0.0980 -0.3539
 3024TIP3    H130487   3.848   4.144   0.775  0.4863 -0.5134 -0.0951
 3024TIP3    H230488   3.791   4.131   0.635 -0.2372  1.4978 -0.0213
 3025TIP3   OH230489   2.902   0.809  10.601  0.1977 -0.3208 -0.2411
 3025TIP3    H130490   2.933   0.744  10.539  1.0214  0.1457 -0.3317
 3025TIP3    H230491   2.842   0.761  10.659  2.7052 -1.8190  1.3154
 3026TIP3   OH230492   1.004   4.464  10.966 -0.0342 -0.1111  1.0042
 3026TIP3    H130493   1.036   4.436  11.052 -0.1922 -0.8994  0.8113
 3026TIP3    H230494   1.073   4.440  10.905 -0.3755 -0.5325  0.7747
 3027TIP3   OH230495   0.780   5.825  11.727 -0.4413  0.6141 -0.1345
 3027TIP3    H130496   0.779   5.764  11.800 -1.2061 -0.4355 -0.9845
 3027TIP3    H230497   0.712   5.793  11.667  1.2805  0.4103 -2.1164
 3028TIP3   OH230498   5.220   0.220   1.394  0.0054 -0.1600  0.0067
 3028TIP3    H130499   5.179   0.293   1.441  0.3595  0.2940 -0.3701
 3028TIP3    H230500   5.147   0.172   1.356 -0.1780  0.9043 -1.0503
 3029TIP3   OH230501   2.191   2.096   0.840 -0.0597 -0.2332  0.2997
 3029TIP3    H130502   2.277   2.132   0.864 -1.4017  3.6867 -0.1046
 3029TIP3    H230503   2.210   2.037   0.767  2.3281  0.1205  0.5331
 3030TIP3   OH230504   6.529   5.129   1.263 -0.6391 -0.4153  0.3323
 3030TIP3    H130505   6.547   5.061   1.328 -2.3944 -0.3239  0.9490
 3030TIP3    H230506   6.572   5.207   1.299 -0.9404 -0.5494  0.9999
 3031TIP3   OH230507   0.616   3.739   2.584 -0.3008 -0.5692  0.1385
 3031TIP3    H130508   0.615   3.682   2.661  1.3935 -0.3481  0.3575
 3031TIP3    H230509   0.527   3.731   2.548 -0.3546 -2.7579  0.5896
 3032TIP3   OH230510   6.636   0.939  12.851  0.6338  0.3357 -0.2856
 3032TIP3    H130511   6.645   0.900  12.938  0.3693  0.0034 -0.4054
 3032TIP3    H230512   6.664   1.030  12.862  1.0993  0.1594  0.0354
 3033TIP3   OH230513   3.635   0.036  14.293  0.0774 -0.1017  0.1569
 3033TIP3    H130514   3.642   0.070  14.203  2.4530  0.1815  0.3790
 3033TIP3    H230515   3.596   0.108  14.343  0.3834  0.4120 -0.3257
 3034TIP3   OH230516   6.757   0.010   4.407 -0.0836  0.1318 -0.3433
 3034TIP3    H130517   6.740  -0.009   4.499  1.8176  0.4574  0.1161
 3034TIP3    H230518   6.847  -0.021   4.392  0.4207  1.9674 -1.5018
 3035TIP3   OH230519   2.475   1.641  14.183 -0.6104  0.0601  0.1416
 3035TIP3    H130520   2.393   1.617  14.141 -0.6257  0.3979 -0.0203
 3035TIP3    H230521   2.486   1.734  14.165 -0.5461  0.1799  0.7684
 3036TIP3   OH230522   3.283   4.663  12.130  0.0674  0.2599  0.1044
 3036TIP3    H130523   3.224   4.609  12.078  1.4445 -1.1429 -0.0608
 3036TIP3    H230524   3.275   4.750  12.090  0.7341 -0.6574 -2.2153
 3037TIP3   OH230525   4.265   4.564   3.107 -0.4680 -0.2498  0.2874
 3037TIP3    H130526   4.220   4.643   3.139 -1.6916 -0.5023 -0.7536
 3037TIP3    H230527   4.277   4.580   3.014 -2.8243 -2.2421 -0.4294
 3038TIP3   OH230528   5.405   3.133  14.575  0.1803  0.0760 -0.2446
 3038TIP3    H130529   5.443   3.136  14.663  0.9466 -0.9035 -0.5277
 3038TIP3    H230530   5.460   3.192  14.523 -1.1338  1.8038  0.2094
 3039TIP3   OH230531   2.561   1.901  13.694 -0.1418 -0.1547 -0.1988
 3039TIP3    H130532   2.547   1.957  13.618  1.0700  0.1359 -0.2279
 3039TIP3    H230533   2.546   1.812  13.661  1.5112 -0.1327 -1.0977
 3040TIP3   OH230534   1.697   3.560  15.542  0.3378 -1.3992 -0.1397
 3040TIP3    H130535   1.748   3.586  15.618  1.4931  0.4601 -1.4879
 3040TIP3    H230536   1.609   3.543  15.577  0.9988 -1.2477  1.6862
 3041TIP3   OH230537   1.422   3.650   4.657 -0.6433 -0.3953 -0.1661
 3041TIP3    H130538   1.500   3.703   4.643 -1.1542  0.0240 -1.4847
 3041TIP3    H230539   1.410   3.651   4.752  1.8789 -1.8320  0.2618
 3042TIP3   OH230540   0.974   3.667   0.590  0.1999  0.4930  0.2760
 3042TIP3    H130541   0.917   3.672   0.667 -1.2655 -2.2267 -0.5181
 3042TIP3    H230542   0.970   3.755   0.552 -0.0760  1.5353  2.5546
 3043TIP3   OH230543   0.151   3.101   2.656 -0.5926 -0.3463 -0.1588
 3043TIP3    H130544   0.234   3.072   2.617 -0.2704 -0.4236  0.5675
 3043TIP3    H230545   0.150   3.061   2.743 -0.9403  0.4350  0.2061
 3044TIP3   OH230546   2.775   3.795  16.472 -0.4074 -0.2502  0.6364
 3044TIP3    H130547   2.766   3.725  16.407 -0.2572 -0.1559  0.5119
 3044TIP3    H230548   2.735   3.872  16.430  1.9321  0.4857 -0.4189
 3045TIP3   OH230549   4.398   2.568   0.011  0.1068 -0.0585 -0.1516
 3045TIP3    H130550   4.371   2.618   0.088  0.1997  0.6685 -0.5871
 3045TIP3    H230551   4.417   2.480   0.045 -1.8859 -0.3553  0.3275
 3046TIP3   OH230552   0.845   0.521   0.716 -0.9021 -0.0182  0.2008
 3046TIP3    H130553   0.908   0.531   0.788 -1.4596 -1.3142  0.9069
 3046TIP3    H230554   0.765   0.564   0.748 -0.2999  1.9982 -0.8634
 3047TIP3   OH230555   0.811   1.580   1.898 -0.0753  0.2674  0.0184
 3047TIP3    H130556   0.787   1.660   1.944  0.7996 -0.3171  1.5416
 3047TIP3    H230557   0.904   1.567   1.917 -0.3814 -1.5279  0.4874
 3048TIP3   OH230558   2.953   6.312  11.719  0.8119  0.6404  0.5085
 3048TIP3    H130559   2.897   6.284  11.646  1.9132  3.4758 -1.5995
 3048TIP3    H230560   2.893   6.355  11.780  0.0225 -0.8990  0.8839
 3049TIP3   OH230561   3.656   6.465  16.770 -0.2512  0.4645  0.3640
 3049TIP3    H130562   3.686   6.401  16.834 -1.3875  1.4281  1.9087
 3049TIP3    H230563   3.706   6.444  16.691 -0.1528 -1.9223  0.9911
 3050TIP3   OH230564   3.819   3.749  12.656 -0.1044 -0.1057 -0.1184
 3050TIP3    H130565   3.864   3.704  12.727  0.1251  0.2489 -0.0360
 3050TIP3    H230566   3.830   3.842  12.676 -0.5041 -0.0105 -0.3286
 3051TIP3   OH230567   5.306   3.282   3.589  0.2826  0.0652  0.1126
 3051TIP3    H130568   5.368   3.247   3.525  0.8780  0.0138  0.7003
 3051TIP3    H230569   5.262   3.354   3.544  1.8696  1.1085  0.1736
 3052TIP3   OH230570   5.951   1.210   0.147  0.4427  0.0737  0.0296
 3052TIP3    H130571   5.900   1.256   0.213  0.9339 -0.7549  1.0163
 3052TIP3    H230572   5.961   1.273   0.076  0.3466  1.1661  0.9567
 3053TIP3   OH230573   0.064   6.248   5.290  0.0004 -0.1486  0.2990
 3053TIP3    H130574   0.124   6.175   5.298  1.1241  0.4315 -2.0372
 3053TIP3    H230575  -0.020   6.214   5.320  0.6430 -2.1946 -0.1053
 3054TIP3   OH230576   3.682   2.931  17.094 -0.0851 -0.1747  0.0433
 3054TIP3    H130577   3.731   3.005  17.130  1.3696 -1.0076 -0.1422
 3054TIP3    H230578   3.745   2.859  17.092 -0.3822 -0.4799 -3.0984
 3055TIP3   OH230579   5.512   2.797   5.062  0.1530  0.0701 -1.2078
 3055TIP3    H130580   5.425   2.829   5.088 -1.1066 -1.2076 -3.5335
 3055TIP3    H230581   5.558   2.784   5.145 -1.9579  0.5171  0.1205
 3056TIP3   OH230582   4.767   2.760   2.154  0.1422 -0.6525 -0.1285
 3056TIP3    H130583   4.753   2.839   2.207  1.1677  0.4011 -1.3683
 3056TIP3    H230584   4.685   2.749   2.105 -0.1859 -0.6612  0.4109
 3057TIP3   OH230585   1.086   1.175  11.728  0.2266 -0.3174 -0.2993
 3057TIP3    H130586   1.040   1.175  11.812 -1.4363 -1.6555 -1.1259
 3057TIP3    H230587   1.161   1.117  11.741  1.5932  1.6090  0.9752
 3058TIP3   OH230588   3.525   1.756   1.694 -0.4796 -0.6235 -0.2006
 3058TIP3    H130589   3.480   1.814   1.632  2.0565  2.5895  0.6750
 3058TIP3    H230590   3.582   1.701   1.639  1.3756  1.8490 -0.9404
 3059TIP3   OH230591   0.920   3.098   6.811  0.5371  0.2200 -0.2161
 3059TIP3    H130592   0.829   3.072   6.827  0.5418 -0.6091 -1.3667
 3059TIP3    H230593   0.930   3.182   6.855 -0.3785 -0.3501  1.1156
 3060TIP3   OH230594   5.346   6.313   4.955  0.7645 -0.2618  0.4870
 3060TIP3    H130595   5.262   6.284   4.991 -0.4537  1.2291 -0.9671
 3060TIP3    H230596   5.322   6.368   4.880  3.0745 -0.7848 -0.7442
 3061TIP3   OH230597   3.575   5.284   3.498 -0.1949 -0.1764 -0.2419
 3061TIP3    H130598   3.530   5.277   3.415 -0.8589 -0.0905  0.1061
 3061TIP3    H230599   3.505   5.294   3.563  0.3714  1.7111  0.1252
 3062TIP3   OH230600   1.867   4.680  10.675  0.0697  0.9099 -0.8891
 3062TIP3    H130601   1.855   4.586  10.660  0.0316  0.9867 -1.3596
 3062TIP3    H230602   1.957   4.697  10.646 -0.3296  1.2458 -1.9996
 3063TIP3   OH230603   2.611   0.318   3.829  0.4608 -0.0848 -0.1422
 3063TIP3    H130604   2.654   0.323   3.743 -0.5140 -3.9389 -1.0446
 3063TIP3    H230605   2.518   0.312   3.809  0.2400 -1.3692  1.1246
 3064TIP3   OH230606   2.923   2.420  12.319  0.0867  0.3764 -0.0245
 3064TIP3    H130607   2.926   2.514  12.338  0.0389  0.0014  2.2158
 3064TIP3    H230608   2.939   2.413  12.225  1.4004  2.5496 -0.0236
 3065TIP3   OH230609   2.047   1.943  11.480  0.1486 -0.4656 -0.6340
 3065TIP3    H130610   1.962   1.903  11.501  0.1844  0.2800  1.1632
 3065TIP3    H230611   2.096   1.873  11.437 -0.4562 -1.7943  0.7046
 3066TIP3   OH230612   1.651   2.717  11.106  0.2041  0.1936 -0.0990
 3066TIP3    H130613   1.686   2.799  11.074  1.1802 -0.3931 -0.5762
 3066TIP3    H230614   1.573   2.701  11.053  1.0006 -0.0539 -1.2156
 3067TIP3   OH230615   2.352   1.414   5.652  0.9431  0.8915  0.1994
 3067TIP3    H130616   2.396   1.381   5.574 -2.4443  0.0857 -1.5886
 3067TIP3    H230617   2.306   1.493   5.622  0.5071  1.2479  1.7064
 3068TIP3   OH230618   3.528   6.259  14.563 -0.3030  0.1523 -1.1799
 3068TIP3    H130619   3.496   6.216  14.484 -0.5826  0.7666 -1.4093
 3068TIP3    H230620   3.488   6.210  14.635 -2.7676  1.5812 -1.4543
 3069TIP3   OH230621   2.214   2.874  10.521  0.0036  0.2258  0.1398
 3069TIP3    H130622   2.149   2.928  10.476 -1.7017 -0.0635  2.0885
 3069TIP3    H230623   2.283   2.935  10.547 -1.5592  1.4214  1.7066
 3070TIP3   OH230624   6.189   6.315  13.111 -0.3548  0.2838 -0.2347
 3070TIP3    H130625   6.116   6.361  13.070  0.3639  0.1272 -1.7251
 3070TIP3    H230626   6.267   6.354  13.074  0.3801  0.7464  1.6714
 3071TIP3   OH230627   5.478   1.496   5.326  0.6774 -0.1035 -0.5168
 3071TIP3    H130628   5.447   1.475   5.414 -0.4259 -1.2485 -1.1426
 3071TIP3    H230629   5.421   1.567   5.296 -0.1501 -0.9379 -0.9640
 3072TIP3   OH230630   3.416   0.578  15.166  1.0227 -0.1626 -0.3449
 3072TIP3    H130631   3.336   0.630  15.165  1.2489  0.2134  0.2735
 3072TIP3    H230632   3.389   0.490  15.139  0.7102  0.3700 -1.8151
 3073TIP3   OH230633   1.790   4.279   2.837  0.0079 -0.2347 -0.5291
 3073TIP3    H130634   1.767   4.365   2.873  0.1466 -0.2965 -0.2946
 3073TIP3    H230635   1.884   4.270   2.853 -0.4425 -1.5203  1.7584
 3074TIP3   OH230636   2.040   1.449   3.917 -0.0587 -0.4973  1.3318
 3074TIP3    H130637   1.962   1.479   3.870  0.8184 -0.1181  0.0590
 3074TIP3    H230638   2.037   1.496   4.000 -0.2848  0.8543  0.5871
 3075TIP3   OH230639   3.977   3.642  12.867 -0.3828  0.1491 -0.1855
 3075TIP3    H130640   4.060   3.609  12.903 -0.6157  1.7562  2.0747
 3075TIP3    H230641   3.918   3.567  12.870  0.2604 -0.3455  0.7979
 3076TIP3   OH230642   5.364   0.500  15.376  0.0844 -0.0401 -0.0383
 3076TIP3    H130643   5.375   0.594  15.365 -0.9903 -0.0347 -1.2953
 3076TIP3    H230644   5.369   0.465  15.287 -1.2892 -0.9585  0.2175
 3077TIP3   OH230645   5.493   1.293  11.990 -0.0886 -0.2954 -0.1105
 3077TIP3    H130646   5.399   1.313  11.980 -0.1931 -0.9626 -0.5275
 3077TIP3    H230647   5.533   1.377  12.010 -0.8389 -0.0749  0.4998
 3078TIP3   OH230648   5.277   1.635   3.778  0.0283  0.3487  0.5303
 3078TIP3    H130649   5.367   1.663   3.796  0.5290 -0.7865 -0.0590
 3078TIP3    H230650   5.286   1.573   3.706 -1.0433 -1.0214  1.5307
 3079TIP3   OH230651   3.759   5.372   4.925  0.3427  0.3525 -0.1254
 3079TIP3    H130652   3.665   5.358   4.929  0.6214 -2.5671 -1.3525
 3079TIP3    H230653   3.791   5.343   5.011  0.1765  1.2506  0.2546
 3080TIP3   OH230654   2.925   6.018  15.608  0.1446  0.0370 -0.1968
 3080TIP3    H130655   2.887   5.960  15.542 -1.0501  0.6217 -0.0490
 3080TIP3    H230656   2.855   6.029  15.673 -0.2415  2.8358 -0.9766
 3081TIP3   OH230657   3.849   5.502   0.211 -0.4504  0.5428 -0.4493
 3081TIP3    H130658   3.824   5.574   0.269 -0.6641  0.3771 -0.3346
 3081TIP3    H230659   3.847   5.424   0.267 -0.9264  0.3415 -0.7350
 3082TIP3   OH230660   2.121   0.422   0.175  0.2097  0.0837  0.1385
 3082TIP3    H130661   2.133   0.517   0.171  2.0909 -0.0954  0.7838
 3082TIP3    H230662   2.115   0.402   0.269 -1.8952 -0.2873 -0.0181
 3083TIP3   OH230663   1.988   5.356  16.446  0.4113  0.7585 -0.0797
 3083TIP3    H130664   2.048   5.282  16.452 -1.3694 -0.5997  2.6413
 3083TIP3    H230665   2.030   5.415  16.383  3.5164 -1.0245  0.1133
 3084TIP3   OH230666   3.235   0.126   1.491  0.5060  0.2796  0.2172
 3084TIP3    H130667   3.189   0.128   1.407  2.3454  0.2966 -0.8432
 3084TIP3    H230668   3.279   0.211   1.497 -0.1744  0.5687  1.5607
 3085TIP3   OH230669   2.107   2.181  12.131 -0.3565  0.2985  0.3416
 3085TIP3    H130670   2.162   2.109  12.160 -0.5002  0.3974  0.8747
 3085TIP3    H230671   2.021   2.142  12.115  0.3437 -0.2854 -2.5735
 3086TIP3   OH230672   1.013   4.796  12.069 -0.0572 -0.0913 -0.0931
 3086TIP3    H130673   1.005   4.773  12.161  0.4218 -1.9108 -0.4561
 3086TIP3    H230674   1.086   4.743  12.037 -0.8590 -0.3013 -1.7253
 3087TIP3   OH230675   3.157   3.091   3.898 -0.0510 -0.4433 -0.3228
 3087TIP3    H130676   3.082   3.097   3.838 -1.1154  0.4896  1.0268
 3087TIP3    H230677   3.140   3.013   3.950 -0.6994  0.3582  0.7159
 3088TIP3   OH230678   5.737   1.364  11.739  0.2450 -0.0071  0.0651
 3088TIP3    H130679   5.832   1.375  11.750  0.4205  0.2179 -1.5254
 3088TIP3    H230680   5.699   1.415  11.811  1.3252 -0.4120  0.9564
 3089TIP3   OH230681   0.159   6.741  12.060  0.3584 -0.2490  0.6618
 3089TIP3    H130682   0.065   6.728  12.067  0.3675 -0.0184  1.2031
 3089TIP3    H230683   0.187   6.767  12.148  0.8067  0.4313  0.3311
 3090TIP3   OH230684   3.002   2.997  13.738  0.1966  0.2164  0.3347
 3090TIP3    H130685   3.067   2.929  13.722 -0.5044 -0.7345  1.3346
 3090TIP3    H230686   2.932   2.978  13.675 -0.2358 -0.3240  0.9713
 3091TIP3   OH230687   1.894   0.407  16.195 -0.3162  0.4354 -0.0489
 3091TIP3    H130688   1.958   0.448  16.252 -0.7773  1.2571 -0.1079
 3091TIP3    H230689   1.911   0.313  16.203  0.5220  0.6159  0.3610
 3092TIP3   OH230690   0.959   3.867  14.964  0.4797  0.2423 -0.1633
 3092TIP3    H130691   0.875   3.853  14.921  0.6538 -2.6798  0.2329
 3092TIP3    H230692   1.022   3.817  14.912  1.6309  0.8108  0.6140
 3093TIP3   OH230693   6.055   5.062  14.427  0.0039 -0.3740  0.5086
 3093TIP3    H130694   5.983   5.034  14.484 -1.7893  1.1744 -0.8714
 3093TIP3    H230695   6.039   5.155  14.412  1.7850 -0.2093 -0.6218
 3094TIP3   OH230696   5.907   4.377  12.424  0.3185  0.1314 -0.3204
 3094TIP3    H130697   5.917   4.310  12.492 -0.1189  2.0477  1.7264
 3094TIP3    H230698   5.841   4.437  12.458 -0.1235  1.0595 -2.5771
 3095TIP3   OH230699   1.225   3.403  16.278 -0.2082  0.1935  0.3768
 3095TIP3    H130700   1.198   3.448  16.359  1.1193  1.0011  0.3992
 3095TIP3    H230701   1.320   3.393  16.287  0.0643  0.9422 -1.3899
 3096TIP3   OH230702   3.360   1.516   4.371  0.3922  0.3303 -0.1771
 3096TIP3    H130703   3.294   1.449   4.355 -0.9503  1.3392  0.8162
 3096TIP3    H230704   3.373   1.514   4.466  3.1638 -1.0377 -0.5023
 3097TIP3   OH230705   2.949   3.437   1.221 -0.0165 -0.4118 -0.0909
 3097TIP3    H130706   3.031   3.442   1.271  0.0140 -0.1540 -0.1634
 3097TIP3    H230707   2.954   3.511   1.160 -1.1837  0.8352  1.2490
 3098TIP3   OH230708   5.713   3.461  11.114 -0.1919  0.4700  0.3493
 3098TIP3    H130709   5.796   3.418  11.135  0.8955  2.0160 -0.5570
 3098TIP3    H230710   5.733   3.554  11.115 -1.4006  0.8228 -1.8556
 3099TIP3   OH230711   4.768   4.712  12.920  0.6883  0.1355 -0.0015
 3099TIP3    H130712   4.707   4.758  12.862  1.9947 -0.7714 -2.1758
 3099TIP3    H230713   4.748   4.747  13.007 -0.1088  2.9037 -1.1980
 3100TIP3   OH230714   2.936   2.516   3.217 -0.0398  0.1830  0.3070
 3100TIP3    H130715   2.954   2.569   3.139 -2.1844 -0.4280 -0.6954
 3100TIP3    H230716   2.969   2.428   3.195 -0.7902 -0.0287 -0.0006
 3101TIP3   OH230717   3.116   1.168   3.057  0.2049  0.1545 -0.2032
 3101TIP3    H130718   3.106   1.262   3.040  0.4945  0.1433 -0.4249
 3101TIP3    H230719   3.097   1.159   3.150  2.2518  0.7412  0.3201
 3102TIP3   OH230720   0.427   0.406  13.298 -0.2276 -0.1486 -0.5516
 3102TIP3    H130721   0.396   0.496  13.313 -0.0811  0.0358 -1.2956
 3102TIP3    H230722   0.377   0.353  13.360 -0.1448  0.4740  0.0652
 3103TIP3   OH230723   1.453   4.246  10.712 -0.0129  0.6944  0.1785
 3103TIP3    H130724   1.455   4.324  10.657  0.9629  0.2477 -0.4459
 3103TIP3    H230725   1.534   4.250  10.764  0.3133 -0.1526 -0.2354
 3104TIP3   OH230726   4.144   2.617  10.954 -0.2882 -0.3850 -0.7122
 3104TIP3    H130727   4.191   2.629  10.872  0.0506 -1.3877 -0.6800
 3104TIP3    H230728   4.061   2.576  10.929 -0.0228 -1.0513 -0.5364
 3105TIP3   OH230729   0.531   0.406   0.387 -0.1760  0.2409 -0.1838
 3105TIP3    H130730   0.445   0.366   0.370 -0.1553 -0.0228  0.2992
 3105TIP3    H230731   0.516   0.500   0.378 -0.4424  0.1754 -0.4217
 3106TIP3   OH230732   3.572   5.550   3.744 -0.1904 -0.0814 -0.1109
 3106TIP3    H130733   3.632   5.497   3.795 -1.0516  0.1978  1.2320
 3106TIP3    H230734   3.488   5.542   3.790 -0.4844  1.9164 -0.2502
 3107TIP3   OH230735   3.777   0.157   1.767 -0.1561  0.1784  0.1292
 3107TIP3    H130736   3.835   0.229   1.789 -0.7470  1.3015 -1.7177
 3107TIP3    H230737   3.790   0.093   1.837  0.9788  1.7148  1.4005
 3108TIP3   OH230738   6.220   5.366   2.212 -0.2740 -0.1808  0.2874
 3108TIP3    H130739   6.273   5.302   2.165 -1.3748  0.3979 -1.8519
 3108TIP3    H230740   6.189   5.427   2.145 -1.8946  0.7290  1.7591
 3109TIP3   OH230741   5.424   1.865   5.114  0.1630 -0.1593 -0.1250
 3109TIP3    H130742   5.496   1.919   5.145  0.2241 -0.4017  0.1590
 3109TIP3    H230743   5.465   1.783   5.086  0.2462  0.4134 -1.7999
 3110TIP3   OH230744   3.451   1.459   3.982 -0.4167 -0.3820 -0.2350
 3110TIP3    H130745   3.497   1.435   3.902  3.2328  1.0516  1.1963
 3110TIP3    H230746   3.447   1.378   4.033  2.3674 -0.2958  0.3094
 3111TIP3   OH230747   2.116   6.449   5.174 -0.6361 -0.1985 -0.3142
 3111TIP3    H130748   2.086   6.540   5.165  0.9729  0.8407  3.1291
 3111TIP3    H230749   2.154   6.428   5.089 -2.9803  1.5098 -1.9249
 3112TIP3   OH230750   0.385   5.540   4.972  0.1682 -0.3737  0.0654
 3112TIP3    H130751   0.292   5.552   4.992  0.5704  0.7037  1.4930
 3112TIP3    H230752   0.392   5.563   4.879 -0.8950  0.1205  0.0856
 3113TIP3   OH230753   5.149   2.141  16.527  0.0030  0.3124  0.0266
 3113TIP3    H130754   5.192   2.056  16.521  0.3950  0.4890  0.3021
 3113TIP3    H230755   5.172   2.185  16.445 -0.6325 -0.0391 -0.3516
 3114TIP3   OH230756   2.690   4.792  13.857 -0.1189 -0.1626 -0.0669
 3114TIP3    H130757   2.654   4.881  13.852  0.4068  0.0429 -0.2283
 3114TIP3    H230758   2.631   4.740  13.802  0.7444  0.4833 -1.6839
 3115TIP3   OH230759   4.763   1.133   5.119 -0.3653  0.7291 -0.2426
 3115TIP3    H130760   4.750   1.109   5.210  0.4639 -0.2520 -0.3631
 3115TIP3    H230761   4.762   1.050   5.072 -0.3157  1.1811 -1.0660
 3116TIP3   OH230762   5.203   6.499  16.650 -0.2789 -0.1451 -0.2283
 3116TIP3    H130763   5.178   6.577  16.700 -0.9986  0.8351 -2.0202
 3116TIP3    H230764   5.295   6.513  16.626 -0.0890 -0.3705  0.3546
 3117TIP3   OH230765   3.740   0.415  16.721  0.0384  0.6221 -0.1915
 3117TIP3    H130766   3.705   0.327  16.707 -1.7085  1.3642 -0.7705
 3117TIP3    H230767   3.692   0.449  16.796  0.0211  1.4162 -0.5507
 3118TIP3   OH230768   0.063   3.269  13.366  0.0751 -0.2199 -0.0157
 3118TIP3    H130769   0.022   3.353  13.389  1.8348 -0.1563  3.7332
 3118TIP3    H230770   0.141   3.293  13.316 -0.1818  0.2595 -0.1997
 3119TIP3   OH230771   6.786   0.212   0.603 -0.2896 -0.5662 -0.7301
 3119TIP3    H130772   6.708   0.183   0.557 -0.5059  1.8920 -2.1329
 3119TIP3    H230773   6.821   0.282   0.548  1.0745  0.6075  1.4658
 3120TIP3   OH230774   0.998   2.510  11.958  0.8830  0.1571  0.3203
 3120TIP3    H130775   1.056   2.482  12.029  0.1285 -1.3912  0.3684
 3120TIP3    H230776   0.940   2.575  11.998 -0.1480 -1.3683  1.4157
 3121TIP3   OH230777   4.478   1.721  13.397 -0.2242 -0.2422 -0.5124
 3121TIP3    H130778   4.560   1.753  13.359 -0.7975  0.6909 -1.0052
 3121TIP3    H230779   4.456   1.786  13.464 -0.2295 -0.8415  0.0821
 3122TIP3   OH230780   4.403   1.290   6.001 -0.3620 -0.1786 -0.1380
 3122TIP3    H130781   4.332   1.228   5.986  0.5252 -0.7123 -2.4990
 3122TIP3    H230782   4.474   1.236   6.036  0.0005 -0.2844 -1.0234
 3123TIP3   OH230783   1.958   6.096  14.452 -0.0683 -0.1527  0.6761
 3123TIP3    H130784   1.952   6.055  14.365 -1.1817 -1.0035  1.1287
 3123TIP3    H230785   1.940   6.024  14.513 -0.9931  0.7927  1.5482
 3124TIP3   OH230786   6.189   2.703   4.809  0.1963  0.0865  0.2737
 3124TIP3    H130787   6.121   2.662   4.756 -1.1376  0.3348  1.7095
 3124TIP3    H230788   6.270   2.662   4.780 -0.6287 -0.6824 -1.0571
 3125TIP3   OH230789   5.780   2.304   4.346  0.0295 -0.5759 -0.4256
 3125TIP3    H130790   5.799   2.240   4.414 -1.6917 -0.5592  0.1339
 3125TIP3    H230791   5.694   2.340   4.370 -0.1291  0.2227 -2.0109
 3126TIP3   OH230792   2.349   3.653   2.277 -0.2132  0.0478 -0.5987
 3126TIP3    H130793   2.297   3.726   2.310 -0.5895  0.2675 -1.6381
 3126TIP3    H230794   2.427   3.695   2.239  0.1472 -0.1863 -0.1177
 3127TIP3   OH230795   1.309   4.881   3.349 -0.0607  0.4213  0.0867
 3127TIP3    H130796   1.387   4.877   3.293 -0.4452  0.8574 -0.4998
 3127TIP3    H230797   1.328   4.823   3.422  0.4746 -0.1443 -0.4916
 3128TIP3   OH230798   6.549   5.815  15.377 -0.1178 -0.0390  0.3131
 3128TIP3    H130799   6.592   5.817  15.462 -0.7475  0.0614  0.6406
 3128TIP3    H230800   6.464   5.774  15.394 -0.2135 -0.1033 -0.2824
 3129TIP3   OH230801   1.367   5.088   1.136  0.1118 -0.2003 -0.2176
 3129TIP3    H130802   1.384   4.995   1.117  0.9268 -0.0418 -0.3334
 3129TIP3    H230803   1.433   5.110   1.202 -0.0184  0.3183 -0.2616
 3130TIP3   OH230804   0.405   6.075   1.869  0.5459  0.0687 -0.2847
 3130TIP3    H130805   0.414   6.134   1.794 -0.1623  0.1034 -0.3427
 3130TIP3    H230806   0.395   6.134   1.944 -0.7025  0.0283 -0.4089
 3131TIP3   OH230807   1.345   1.607   5.084  0.7607 -0.1001  0.2657
 3131TIP3    H130808   1.295   1.550   5.143  1.1677 -1.1522 -0.3819
 3131TIP3    H230809   1.308   1.694   5.098 -2.7164 -1.0905 -1.6899
 3132TIP3   OH230810   3.670   0.563  16.507 -0.4440 -0.5717  0.0524
 3132TIP3    H130811   3.754   0.552  16.463  0.9057  1.1103  2.0200
 3132TIP3    H230812   3.684   0.527  16.595 -2.5149 -2.2508 -0.2094
 3133TIP3   OH230813   4.817   3.802  13.524 -0.1248  0.1822  0.0603
 3133TIP3    H130814   4.889   3.794  13.461 -0.1112 -1.0303  0.2080
 3133TIP3    H230815   4.815   3.718  13.570 -0.9263  0.6004  0.8335
 3134TIP3   OH230816   5.259   1.399  13.616  0.1850  0.8069  0.7565
 3134TIP3    H130817   5.211   1.344  13.554  0.8983  0.2545  0.6754
 3134TIP3    H230818   5.235   1.365  13.702 -0.1113  0.9882  0.7460
 3135TIP3   OH230819   4.138   6.239   4.203 -0.1549 -0.4600  0.0085
 3135TIP3    H130820   4.147   6.273   4.292  1.8391 -0.5028 -0.1392
 3135TIP3    H230821   4.224   6.251   4.163 -1.2932  0.6151 -2.3339
 3136TIP3   OH230822   5.611   5.882  10.784 -0.0152 -0.3102  0.2061
 3136TIP3    H130823   5.589   5.819  10.715 -2.1948 -1.2929  1.6744
 3136TIP3    H230824   5.542   5.871  10.850  2.0712  0.3765  2.7006
 3137TIP3   OH230825   6.706   0.322  11.556 -0.6529 -0.1793 -0.5721
 3137TIP3    H130826   6.681   0.269  11.481 -0.7340  1.0173 -1.4081
 3137TIP3    H230827   6.794   0.290  11.579 -0.2038  0.1011 -1.8086
 3138TIP3   OH230828   3.186   6.532  14.190  0.0136 -0.2149  0.1122
 3138TIP3    H130829   3.241   6.456  14.171 -0.1132 -0.5615  1.0669
 3138TIP3    H230830   3.245   6.596  14.231 -0.2724 -0.6006  1.1695
 3139TIP3   OH230831   0.454   6.022   2.191  0.0678 -0.4448  0.3236
 3139TIP3    H130832   0.546   6.045   2.202  0.2008 -0.6043 -0.4166
 3139TIP3    H230833   0.448   5.931   2.220  0.1017 -0.3717  0.5621
 3140TIP3   OH230834   1.895   3.130  11.506  0.0728  0.5075 -0.3991
 3140TIP3    H130835   1.819   3.086  11.544 -1.3740  0.9027 -2.6291
 3140TIP3    H230836   1.876   3.223  11.518  0.6514  0.5989 -0.1808
 3141TIP3   OH230837   5.979   5.703   3.462 -0.2910 -0.0675  0.0926
 3141TIP3    H130838   5.941   5.627   3.506 -0.4082  0.4705  0.9720
 3141TIP3    H230839   5.989   5.768   3.532 -0.4393  0.8157 -0.6818
 3142TIP3   OH230840   0.978   5.656  13.229  0.3872  0.2120 -0.0508
 3142TIP3    H130841   1.049   5.627  13.286 -0.8961 -0.1119  1.4382
 3142TIP3    H230842   0.908   5.592  13.242 -1.3594  2.1955  0.9388
 3143TIP3   OH230843   0.302   1.372   1.851  0.0110 -0.3094  0.2695
 3143TIP3    H130844   0.384   1.357   1.898  0.0342 -0.6293  0.1267
 3143TIP3    H230845   0.234   1.370   1.919  0.0593 -0.6293  0.3069
 3144TIP3   OH230846   3.735   1.675  11.300  0.1334  0.9585  0.8254
 3144TIP3    H130847   3.828   1.686  11.319  0.6409 -0.4364 -0.5813
 3144TIP3    H230848   3.731   1.665  11.205 -1.6387  2.4145  0.6968
 3145TIP3   OH230849   5.132   0.319  14.014  0.4693  0.5628  0.2281
 3145TIP3    H130850   5.115   0.405  14.051  0.2580 -0.3127  2.2629
 3145TIP3    H230851   5.077   0.315  13.936 -0.0380  1.9873  0.4927
 3146TIP3   OH230852   1.756   2.774   0.416  0.5703  0.6798 -0.5810
 3146TIP3    H130853   1.792   2.839   0.356  0.2671  0.7948 -0.6399
 3146TIP3    H230854   1.662   2.777   0.401  0.2406  2.1732  1.3280
 3147TIP3   OH230855   2.637   2.875   1.155  0.4155  0.3193  0.2629
 3147TIP3    H130856   2.592   2.938   1.100 -0.0973  0.0311  0.3443
 3147TIP3    H230857   2.686   2.927   1.218 -0.5392  0.6298  0.7582
 3148TIP3   OH230858   2.532   3.702  16.885 -0.4670 -0.2841  0.2207
 3148TIP3    H130859   2.456   3.754  16.857  0.0611  0.1070 -0.5247
 3148TIP3    H230860   2.607   3.754  16.857  0.0715 -1.1931 -0.0425
 3149TIP3   OH230861   1.021   3.648   3.317  0.2028 -0.4719 -0.3658
 3149TIP3    H130862   1.025   3.579   3.251 -2.4380  1.3227 -2.5739
 3149TIP3    H230863   1.019   3.600   3.401  2.8663 -2.8371 -1.4451
 3150TIP3   OH230864   2.526   0.980  13.429 -0.2976  0.3236 -0.8641
 3150TIP3    H130865   2.535   1.070  13.459 -0.3156 -0.0013  0.1306
 3150TIP3    H230866   2.503   0.988  13.336 -2.3206  1.3744 -0.3094
 3151TIP3   OH230867   1.336   3.192  15.164  0.3655  0.0417 -0.4507
 3151TIP3    H130868   1.271   3.144  15.113 -0.5775 -0.0284  0.7480
 3151TIP3    H230869   1.289   3.216  15.245  1.6981  0.3964  0.2465
 3152TIP3   OH230870   6.280   0.863   5.462 -0.2335 -0.1975  0.1301
 3152TIP3    H130871   6.192   0.833   5.485 -0.5421 -0.9451 -1.8367
 3152TIP3    H230872   6.267   0.951   5.427  0.1388  0.6322  1.9516
 3153TIP3   OH230873   3.201   0.795   5.882 -0.1753 -0.2821  0.0260
 3153TIP3    H130874   3.195   0.810   5.977 -1.2801  1.0302 -0.2135
 3153TIP3    H230875   3.140   0.724   5.864  2.0356 -2.4682  0.6170
 3154TIP3   OH230876   4.443   2.290  14.913  0.1703 -0.3343 -0.0031
 3154TIP3    H130877   4.452   2.379  14.947  1.6794  0.2424 -1.7183
 3154TIP3    H230878   4.516   2.241  14.952  0.1280 -0.4547 -0.0742
 3155TIP3   OH230879   3.786   1.772  15.300  0.0864  0.3013 -0.1712
 3155TIP3    H130880   3.729   1.720  15.243 -0.1401 -1.3933  1.5072
 3155TIP3    H230881   3.728   1.838  15.338 -0.3469 -0.2212  0.0863
 3156TIP3   OH230882   4.656   2.901  13.171 -0.1416 -0.2714 -0.8252
 3156TIP3    H130883   4.627   2.904  13.262 -1.7403 -2.1387 -1.2158
 3156TIP3    H230884   4.657   2.808  13.149  1.8303  0.0325 -2.2512
 3157TIP3   OH230885   2.018   4.377  14.312  0.5980  1.0355 -0.0629
 3157TIP3    H130886   1.956   4.418  14.252 -2.3686  0.6056  2.4505
 3157TIP3    H230887   1.995   4.284  14.310  1.1626  0.8602  0.9163
 3158TIP3   OH230888   1.893   5.837  14.922  0.0966 -0.0640 -0.0649
 3158TIP3    H130889   1.813   5.822  14.972  0.1853 -0.4597 -0.0395
 3158TIP3    H230890   1.963   5.807  14.979  0.2778  0.3948 -0.0384
 3159TIP3   OH230891   0.915   1.435  14.280  0.2996 -0.7627  0.3792
 3159TIP3    H130892   0.883   1.441  14.190  2.4643 -1.4386 -0.5182
 3159TIP3    H230893   0.927   1.526  14.307 -4.1202 -0.3307  1.5825
 3160TIP3   OH230894   5.651   6.198  10.732 -0.0059 -0.2804 -0.5589
 3160TIP3    H130895   5.574   6.247  10.704 -0.9240 -1.1193  0.4225
 3160TIP3    H230896   5.633   6.108  10.707  1.0045 -0.3730 -1.0008
 3161TIP3   OH230897   1.989   5.821   1.485 -0.4001  0.4066 -0.3144
 3161TIP3    H130898   2.017   5.909   1.510 -0.2659 -0.4231  2.9003
 3161TIP3    H230899   1.985   5.772   1.568 -0.5707 -2.6090 -1.9506
 3162TIP3   OH230900   2.242   5.331   2.725  0.2949 -0.3374  0.5529
 3162TIP3    H130901   2.200   5.258   2.770 -0.4105  0.2345  0.8359
 3162TIP3    H230902   2.333   5.329   2.757 -0.2647  0.2593  2.2997
 3163TIP3   OH230903   5.610   4.949  15.937 -0.5579 -0.6319  0.1444
 3163TIP3    H130904   5.597   5.043  15.929  2.7193 -0.1550 -1.6039
 3163TIP3    H230905   5.541   4.910  15.884 -0.1463  0.9767 -1.6687
 3164TIP3   OH230906   0.562   5.223   6.585 -0.2411 -0.7940  0.2843
 3164TIP3    H130907   0.476   5.226   6.626 -0.1466 -0.7024  0.4755
 3164TIP3    H230908   0.594   5.313   6.591  0.0726 -0.9282  0.6454
 3165TIP3   OH230909   1.370   0.402  16.698 -0.1891 -0.8604 -0.2196
 3165TIP3    H130910   1.431   0.351  16.751  0.4769 -0.3552 -0.4906
 3165TIP3    H230911   1.426   0.458  16.644 -0.9002 -0.2022 -0.2828
 3166TIP3   OH230912   2.532   2.931  15.367 -0.0699  0.1624 -0.3520
 3166TIP3    H130913   2.615   2.903  15.326  0.1805  1.8628 -1.0989
 3166TIP3    H230914   2.542   3.025  15.378 -1.5887  0.2637  0.3393
 3167TIP3   OH230915   3.743   3.360   1.922 -0.2316  0.2273 -0.1733
 3167TIP3    H130916   3.649   3.368   1.936 -0.0810  1.3010  0.3891
 3167TIP3    H230917   3.779   3.442   1.957  1.0463 -0.7561  0.9492
 3168TIP3   OH230918   2.780   0.468  15.391 -0.0423 -0.4701  0.3398
 3168TIP3    H130919   2.871   0.445  15.407  0.1386  0.5378  0.8572
 3168TIP3    H230920   2.730   0.391  15.420  0.6021 -0.7648  0.6887
 3169TIP3   OH230921   4.271   1.105  14.577 -0.8347  0.3157  0.1281
 3169TIP3    H130922   4.218   1.079  14.652 -1.0899 -0.3203 -0.2621
 3169TIP3    H230923   4.278   1.025  14.524  0.1635  0.4998 -0.0373
 3170TIP3   OH230924   5.890   3.862  14.533 -0.1804  0.2683  0.1343
 3170TIP3    H130925   5.896   3.777  14.490  1.5134 -0.2723  1.3166
 3170TIP3    H230926   5.974   3.905  14.514 -0.9750  1.6605 -0.3724
 3171TIP3   OH230927   5.930   5.846  13.198  0.2211 -0.3442 -0.2987
 3171TIP3    H130928   5.846   5.834  13.153 -0.9198  0.2634  1.5515
 3171TIP3    H230929   5.929   5.780  13.268 -0.0894  1.5625  1.5834
 3172TIP3   OH230930   0.655   6.166  12.495 -0.0960 -0.3904 -0.4722
 3172TIP3    H130931   0.582   6.228  12.489  0.7335  0.5533 -1.1289
 3172TIP3    H230932   0.730   6.219  12.521  0.5673 -1.1695 -0.7398
 3173TIP3   OH230933   2.371   4.288   3.504  0.1972 -0.1753  0.1621
 3173TIP3    H130934   2.295   4.231   3.511  0.2622 -0.2486  0.2709
 3173TIP3    H230935   2.372   4.316   3.413 -0.3314  0.3356  0.3040
 3174TIP3   OH230936   1.952   3.025  15.317  0.3002  0.3570 -0.6016
 3174TIP3    H130937   1.929   3.001  15.406  0.7524  0.4447 -0.4568
 3174TIP3    H230938   1.980   3.117  15.323 -1.5770  1.0101 -1.1757
 3175TIP3   OH230939   4.803   6.648   0.146 -0.5347  0.0455 -0.2976
 3175TIP3    H130940   4.829   6.674   0.234 -1.0539  0.0689 -0.1464
 3175TIP3    H230941   4.809   6.552   0.147 -0.1990  0.0642 -0.3495
 3176TIP3   OH230942   2.041   2.128  15.975 -0.2635  0.0899 -0.5605
 3176TIP3    H130943   2.070   2.057  16.033  0.3622  1.1849  0.5130
 3176TIP3    H230944   2.008   2.195  16.035 -0.5712  0.8328 -1.5424
 3177TIP3   OH230945   2.738   4.632   2.267  0.9483  0.0381 -0.4715
 3177TIP3    H130946   2.738   4.618   2.173  1.6925  2.9320 -0.9968
 3177TIP3    H230947   2.648   4.612   2.294  0.7291 -0.8301 -1.7546
 3178TIP3   OH230948   2.395   3.548   3.040  0.5149  0.0377  0.2363
 3178TIP3    H130949   2.487   3.572   3.027  0.4008  1.4302  1.7099
 3178TIP3    H230950   2.385   3.545   3.135 -1.1888  0.7999  0.1057
 3179TIP3   OH230951   1.402   1.866  12.515 -0.1597  0.5592  0.0660
 3179TIP3    H130952   1.492   1.892  12.497  0.3633 -0.8806  0.4925
 3179TIP3    H230953   1.398   1.856  12.610 -0.8059  0.7635  0.0624
 3180TIP3   OH230954   5.879   0.255  16.980 -0.4736  0.2501 -0.1696
 3180TIP3    H130955   5.877   0.324  17.046  1.1470  0.1464  0.0419
 3180TIP3    H230956   5.965   0.264  16.939 -0.3906 -1.3812 -0.4144
 3181TIP3   OH230957   6.332   2.567   1.425  0.3067 -0.0221  0.0606
 3181TIP3    H130958   6.290   2.636   1.373 -0.2855  0.0756  0.6555
 3181TIP3    H230959   6.350   2.608   1.509 -0.9663 -0.8457  0.7798
 3182TIP3   OH230960   0.833   0.134   2.780 -0.7179  0.8310 -0.1178
 3182TIP3    H130961   0.783   0.135   2.699 -2.1878  1.0544  0.7682
 3182TIP3    H230962   0.838   0.041   2.804 -0.2917  0.7658 -0.4391
 3183TIP3   OH230963   5.374   3.430  13.970 -0.2323 -0.3063  0.0827
 3183TIP3    H130964   5.461   3.392  13.985 -0.0606 -0.8110 -1.9403
 3183TIP3    H230965   5.331   3.368  13.912 -1.8886  0.0655  0.8478
 3184TIP3   OH230966   0.261   2.454   3.089 -0.4166 -0.0701  0.1478
 3184TIP3    H130967   0.187   2.471   3.031  0.5246  1.1764 -0.7414
 3184TIP3    H230968   0.257   2.522   3.155  0.0571  0.1586 -0.0488
 3185TIP3   OH230969   4.026   6.038  16.494  0.3734  0.0389  0.3226
 3185TIP3    H130970   4.013   6.083  16.577 -0.8365 -2.6098  1.7078
 3185TIP3    H230971   4.092   5.971  16.512 -0.8438 -1.4391 -0.4255
 3186TIP3   OH230972   5.022   4.680   1.395  0.0325  0.5022  0.5101
 3186TIP3    H130973   4.975   4.637   1.323  0.0896  1.8105 -0.3405
 3186TIP3    H230974   5.110   4.644   1.391  0.1091  0.7543 -0.2573
 3187TIP3   OH230975   0.804   5.374   3.798 -0.1253  0.3117 -0.2192
 3187TIP3    H130976   0.746   5.323   3.855  3.2698 -0.5991  2.8544
 3187TIP3    H230977   0.891   5.339   3.817  2.0498  4.7884 -0.6851
 3188TIP3   OH230978   4.914   0.253   5.605  0.0961  0.1430 -0.3163
 3188TIP3    H130979   4.851   0.325   5.610  0.3891  0.3391  1.4067
 3188TIP3    H230980   4.993   0.288   5.647  1.1369 -0.3340 -1.8023
 3189TIP3   OH230981   1.633   3.842  17.138  0.2435  0.0983  0.0566
 3189TIP3    H130982   1.702   3.788  17.174 -1.3701 -1.4896  0.9239
 3189TIP3    H230983   1.678   3.915  17.096  2.3706 -0.4956  1.2159
 3190TIP3   OH230984   2.289   3.592   5.023  0.5427 -0.1490 -0.0881
 3190TIP3    H130985   2.257   3.678   5.049 -1.3160 -0.3059 -1.6803
 3190TIP3    H230986   2.347   3.609   4.949  0.9315 -0.2173  0.1934
 3191TIP3   OH230987   1.777   0.235   4.880  0.1459  0.1976  0.4929
 3191TIP3    H130988   1.814   0.310   4.926 -0.8604  2.1611 -1.7058
 3191TIP3    H230989   1.714   0.198   4.943  0.1978  1.5843  1.4098
 3192TIP3   OH230990   5.226   2.687  11.782  0.2864 -0.4774  0.1577
 3192TIP3    H130991   5.272   2.759  11.739  0.3435 -0.2774  0.5483
 3192TIP3    H230992   5.289   2.653  11.846  0.4436 -1.1980 -0.3623
 3193TIP3   OH230993   3.471   5.360  16.731 -0.5474  0.1875 -0.0279
 3193TIP3    H130994   3.434   5.320  16.652 -2.8785  0.4776  0.8420
 3193TIP3    H230995   3.520   5.289  16.773 -0.7758 -0.4630 -0.8345
 3194TIP3   OH230996   4.021   3.813  10.546  0.2556 -0.2703 -0.0613
 3194TIP3    H130997   3.954   3.848  10.487  1.0278  1.0156 -0.2160
 3194TIP3    H230998   4.099   3.865  10.527  1.0141 -1.0397  0.8468
 3195TIP3   OH230999   6.298   4.954   4.805  0.1256  0.5163 -0.1955
 3195TIP3    H131000   6.343   5.029   4.843  4.0430 -2.5232  1.8161
 3195TIP3    H231001   6.340   4.941   4.720 -0.7034  0.6890 -0.6432
 3196TIP3   OH231002   1.986   3.077   2.849  1.2980  1.0037 -0.1686
 3196TIP3    H131003   2.017   3.062   2.938  0.9328  0.7334 -0.0871
 3196TIP3    H231004   2.045   3.026   2.794  0.0598 -0.8002  0.1038
 3197TIP3   OH231005   1.732   2.804  16.892  0.5060  0.3072 -0.4290
 3197TIP3    H131006   1.746   2.899  16.885 -0.8764  0.4991 -1.0816
 3197TIP3    H231007   1.763   2.781  16.979  2.1734  1.0989 -0.7764
 3198TIP3   OH231008   2.775   6.197  15.209 -0.2532 -0.1431  0.3885
 3198TIP3    H131009   2.713   6.128  15.185 -0.4420  0.3414 -0.5137
 3198TIP3    H231010   2.762   6.209  15.303 -0.3861 -1.1703  0.5135
 3199TIP3   OH231011   2.259   4.555  13.062 -0.0687  0.6701  0.5338
 3199TIP3    H131012   2.286   4.631  13.011  0.0594  0.3584  0.1330
 3199TIP3    H231013   2.209   4.502  13.001  2.2329 -0.9782 -0.0493
 3200TIP3   OH231014   0.055   0.516  13.256  0.1217 -0.1145 -0.6401
 3200TIP3    H131015  -0.039   0.523  13.244  0.2808  1.6046 -1.1059
 3200TIP3    H231016   0.085   0.465  13.180 -0.3345  0.0360 -0.9216
 3201TIP3   OH231017   3.663   4.112  13.951  0.3074  0.1999 -0.2716
 3201TIP3    H131018   3.756   4.132  13.941 -0.0951  1.7052 -1.4175
 3201TIP3    H231019   3.622   4.149  13.873 -1.2235 -0.7038  0.0655
 3202TIP3   OH231020   5.905   2.189   6.313 -0.3999 -0.7059 -0.3914
 3202TIP3    H131021   5.855   2.257   6.359  0.1598  0.4946 -1.4755
 3202TIP3    H231022   5.965   2.154   6.379  1.0376  1.6101 -0.3329
 3203TIP3   OH231023   4.307   0.909  10.899 -0.6918  1.1773  0.0819
 3203TIP3    H131024   4.387   0.957  10.877 -0.3958  0.2898 -0.8907
 3203TIP3    H231025   4.323   0.873  10.986  1.3173 -1.5911 -1.2881
 3204TIP3   OH231026   2.399   4.872  15.713 -0.0570 -0.1590  0.2052
 3204TIP3    H131027   2.326   4.886  15.653  0.7741  1.0161 -0.5895
 3204TIP3    H231028   2.366   4.902  15.798 -0.0862  1.6893 -0.4157
 3205TIP3   OH231029   2.215   0.391  11.716 -0.5073 -0.4569  0.3946
 3205TIP3    H131030   2.269   0.349  11.783 -1.3687 -0.3261  1.2093
 3205TIP3    H231031   2.210   0.483  11.745 -1.1406 -0.4671  0.3299
 3206TIP3   OH231032   1.798   4.471  16.858 -0.0570 -0.0330  0.0566
 3206TIP3    H131033   1.742   4.396  16.876 -0.2164  0.3815  1.4179
 3206TIP3    H231034   1.871   4.462  16.918 -0.3564  1.1683  0.6501
 3207TIP3   OH231035   0.785   1.946   5.581  0.4043  0.6132 -0.7358
 3207TIP3    H131036   0.694   1.978   5.584  0.0384 -0.4731  0.2131
 3207TIP3    H231037   0.779   1.854   5.605  1.9817  1.0149  1.5132
 3208TIP3   OH231038   4.103   4.837  10.363 -0.8100 -0.3442  0.3832
 3208TIP3    H131039   4.140   4.751  10.384  2.2643  0.1274 -2.3321
 3208TIP3    H231040   4.058   4.824  10.279  0.3383  0.7802 -0.4374
 3209TIP3   OH231041   6.616   5.550  12.082  0.0060 -0.0696 -0.2626
 3209TIP3    H131042   6.530   5.586  12.059  0.3567  1.3183  0.5086
 3209TIP3    H231043   6.597   5.478  12.142 -0.6350  0.0045 -0.3715
 3210TIP3   OH231044   3.939   2.024   5.186  0.3221  0.3944  0.1069
 3210TIP3    H131045   3.882   2.009   5.262  2.4464 -0.2178  1.7085
 3210TIP3    H231046   3.953   1.937   5.150 -1.8152  0.8211 -1.9951
 3211TIP3   OH231047   1.411   1.807   4.392  0.0703  0.0189 -0.2444
 3211TIP3    H131048   1.435   1.723   4.430 -1.0339  0.3642  1.2968
 3211TIP3    H231049   1.362   1.784   4.313  0.6997 -0.7547 -0.4236
 3212TIP3   OH231050   3.282   2.550  12.490  1.1131  0.2013 -0.2569
 3212TIP3    H131051   3.317   2.548  12.580  1.8558  0.4514 -0.5311
 3212TIP3    H231052   3.236   2.634  12.485  0.5157 -0.0961  0.0833
 3213TIP3   OH231053   6.317   1.008  14.873 -0.0363 -0.0486 -0.1391
 3213TIP3    H131054   6.332   0.916  14.852  0.1641 -0.0477 -0.0056
 3213TIP3    H231055   6.404   1.047  14.870 -0.0493  0.0209  0.3509
 3214TIP3   OH231056   2.701   6.226  16.502 -0.2583  0.4801  0.2750
 3214TIP3    H131057   2.761   6.292  16.468  0.5615 -0.4786 -0.2178
 3214TIP3    H231058   2.735   6.205  16.589  0.9159 -0.9311 -0.4629
 3215TIP3   OH231059   3.725   3.614   5.200  0.0299  0.4803 -0.2423
 3215TIP3    H131060   3.632   3.604   5.179  0.4506 -0.3591 -1.8581
 3215TIP3    H231061   3.733   3.582   5.290 -0.7828 -2.5681 -1.1176
 3216TIP3   OH231062   5.341   6.006  13.274 -0.5951 -0.3033 -0.0904
 3216TIP3    H131063   5.420   5.952  13.273 -0.9498 -0.8722  1.0366
 3216TIP3    H231064   5.335   6.038  13.364 -1.3860  0.1314 -0.2897
 3217TIP3   OH231065   2.451   4.692  15.358 -0.4525  0.2628 -0.1192
 3217TIP3    H131066   2.365   4.734  15.366 -0.7552 -0.1578 -1.0390
 3217TIP3    H231067   2.461   4.676  15.265  1.9709  3.0930 -0.4957
 3218TIP3   OH231068   0.929   6.575  15.753  0.1241 -0.2814 -0.5073
 3218TIP3    H131069   0.873   6.645  15.720  0.3280 -0.0558 -0.3709
 3218TIP3    H231070   0.967   6.610  15.833  1.9983  0.2977 -1.6094
 3219TIP3   OH231071   3.990   4.138  15.483 -0.1145 -0.8202 -0.5903
 3219TIP3    H131072   4.031   4.108  15.402  0.3756  0.0680 -0.6750
 3219TIP3    H231073   4.060   4.133  15.548 -0.1228 -0.1682 -0.5336
 3220TIP3   OH231074   5.398   4.831  11.269  0.4691  0.4742  0.3049
 3220TIP3    H131075   5.314   4.875  11.282 -0.6852 -1.0003 -1.5611
 3220TIP3    H231076   5.444   4.888  11.206 -0.5440 -0.3080 -1.2132
 3221TIP3   OH231077   2.621   6.187   4.441  0.3742 -0.0404 -0.0444
 3221TIP3    H131078   2.684   6.154   4.504  0.8714 -0.0887 -0.5633
 3221TIP3    H231079   2.596   6.273   4.475  1.3045  0.3163 -0.2361
 3222TIP3   OH231080   5.501   0.132  13.765 -0.1901  0.1614 -0.0147
 3222TIP3    H131081   5.478   0.041  13.784  2.2047 -0.5376 -0.1136
 3222TIP3    H231082   5.451   0.183  13.828 -1.2609 -1.2407  0.3226
 3223TIP3   OH231083   5.454   4.252   0.634  0.3403  0.4554  0.3249
 3223TIP3    H131084   5.464   4.258   0.729 -0.4121  1.1679  0.3664
 3223TIP3    H231085   5.446   4.158   0.617  1.7234  0.2126  0.8198
 3224TIP3   OH231086   1.297   0.005   3.409  0.3649 -0.2527 -0.4040
 3224TIP3    H131087   1.221   0.020   3.353 -0.5241 -1.6092  0.3790
 3224TIP3    H231088   1.309   0.088   3.455 -0.3746  0.1088 -0.8443
 3225TIP3   OH231089   6.627   4.579   3.118 -0.2922 -0.1760  0.0172
 3225TIP3    H131090   6.719   4.593   3.099 -0.3269 -1.2150 -0.9752
 3225TIP3    H231091   6.625   4.503   3.175 -0.6567 -1.8030 -2.0551
 3226TIP3   OH231092   2.634   6.691   4.553 -0.4960 -0.3175 -0.8332
 3226TIP3    H131093   2.588   6.609   4.567  1.1027 -1.4064 -1.7032
 3226TIP3    H231094   2.726   6.670   4.567  0.1540  0.8543 -2.9133
 3227TIP3   OH231095   1.399   0.306   3.159 -0.5631  1.0318  0.4045
 3227TIP3    H131096   1.428   0.263   3.239 -1.2803  0.0124  0.1474
 3227TIP3    H231097   1.374   0.394   3.187 -0.3008  0.8645  1.1974
 3228TIP3   OH231098   6.515   6.750  15.776 -0.2364  0.0139 -0.0227
 3228TIP3    H131099   6.442   6.758  15.838 -0.5898  1.2995 -0.5835
 3228TIP3    H231100   6.536   6.840  15.752  0.7430 -0.4126 -0.7987
 3229TIP3   OH231101   4.810   2.303  17.087 -0.3424 -0.3473 -0.1514
 3229TIP3    H131102   4.870   2.357  17.139  0.0416 -1.6188  0.7666
 3229TIP3    H231103   4.736   2.362  17.068  1.4787  1.4994 -1.9960
 3230TIP3   OH231104   0.706   4.186   1.054 -0.4390 -0.0098 -0.2206
 3230TIP3    H131105   0.757   4.266   1.062 -2.2255  1.1542 -0.0679
 3230TIP3    H231106   0.701   4.152   1.144  0.9246 -0.7341 -0.3849
 3231TIP3   OH231107   0.060   1.693  16.396  0.6056 -0.6843 -0.1987
 3231TIP3    H131108   0.003   1.707  16.472 -0.9400  1.1456 -1.5974
 3231TIP3    H231109   0.068   1.779  16.356 -2.1305 -2.0480 -4.4277
 3232TIP3   OH231110   1.626   5.586  15.392 -0.3800 -0.5638  0.1605
 3232TIP3    H131111   1.537   5.566  15.424 -0.5450  0.7127  0.5746
 3232TIP3    H231112   1.612   5.633  15.310 -0.1505  0.8325  0.9018
 3233TIP3   OH231113   6.478   2.032   6.152  0.0778  0.1138  0.7676
 3233TIP3    H131114   6.525   2.106   6.114 -1.2356  0.3154 -0.6056
 3233TIP3    H231115   6.405   2.072   6.200 -0.4533 -0.2477  0.2837
 3234TIP3   OH231116   2.448   4.874   0.502  0.0285 -0.7428  0.0535
 3234TIP3    H131117   2.450   4.783   0.532 -0.4073 -1.5129 -2.0838
 3234TIP3    H231118   2.446   4.867   0.406 -3.6364  1.4005 -0.1867
 3235TIP3   OH231119   4.980   0.808  11.213  0.3319  0.1098  0.5437
 3235TIP3    H131120   5.029   0.752  11.151  1.4257  0.3986  1.1163
 3235TIP3    H231121   5.048   0.845  11.269 -0.3267  2.3199 -0.0412
 3236TIP3   OH231122   6.467   4.406   5.123  0.1238 -0.1178 -0.3447
 3236TIP3    H131123   6.395   4.408   5.186  0.6808 -2.9448  0.5079
 3236TIP3    H231124   6.437   4.345   5.055  0.7311  0.6604 -1.3471
 3237TIP3   OH231125   6.160   4.963   6.374 -0.2024 -0.2476  0.1384
 3237TIP3    H131126   6.065   4.965   6.361  0.1280 -0.5855 -3.3232
 3237TIP3    H231127   6.178   5.031   6.439 -2.7195  0.3157  0.3212
 3238TIP3   OH231128   1.456   4.368  17.220  0.0347 -0.9115 -0.3045
 3238TIP3    H131129   1.458   4.429  17.147  0.9932 -0.1083  0.3710
 3238TIP3    H231130   1.548   4.344  17.235 -0.0469 -0.4446  1.1185
 3239TIP3   OH231131   0.488   2.733  16.141 -0.1154 -0.0569 -0.1631
 3239TIP3    H131132   0.525   2.651  16.108  0.0260 -0.5972  1.2466
 3239TIP3    H231133   0.564   2.783  16.171 -0.3659 -0.7058  1.7210
 3240TIP3   OH231134   5.079   1.430   1.385 -0.1539  1.0164  0.0009
 3240TIP3    H131135   4.984   1.438   1.388 -0.1970  0.3520  0.8230
 3240TIP3    H231136   5.096   1.369   1.313 -0.5014 -0.6246  1.2544
 3241TIP3   OH231137   1.776   5.549  13.619 -0.5862 -0.0095 -0.5129
 3241TIP3    H131138   1.828   5.481  13.575 -0.4158  1.7456 -3.2403
 3241TIP3    H231139   1.692   5.548  13.573 -1.2197  0.4614  0.6033
 3242TIP3   OH231140   0.761   4.177   2.229 -0.1227 -0.2891 -0.0657
 3242TIP3    H131141   0.683   4.227   2.253  1.1813  1.1655  1.3760
 3242TIP3    H231142   0.778   4.202   2.138 -0.0859  1.1765  0.3070
 3243TIP3   OH231143   1.028   2.025   2.501 -0.0665 -0.1970  0.3745
 3243TIP3    H131144   0.999   2.107   2.463 -0.1571 -0.6054 -0.4642
 3243TIP3    H231145   0.948   1.971   2.506  0.5231 -1.5261 -2.4458
 3244TIP3   OH231146   3.142   1.516  13.315 -0.0085 -0.5396  0.5680
 3244TIP3    H131147   3.139   1.550  13.405 -0.9294  1.4527 -0.1477
 3244TIP3    H231148   3.053   1.486  13.297  0.4029 -1.8480  0.6117
 3245TIP3   OH231149   5.977   3.043   0.277 -0.5079 -0.3876  0.5607
 3245TIP3    H131150   5.944   3.088   0.355 -1.0344  0.3424 -0.0600
 3245TIP3    H231151   5.915   3.067   0.208 -1.6465 -3.1972  0.4593
 3246TIP3   OH231152   2.158   1.933  13.830  0.1797 -0.2868 -0.4862
 3246TIP3    H131153   2.249   1.963  13.841  0.0277 -0.4697  2.0166
 3246TIP3    H231154   2.117   1.953  13.914 -1.6651 -1.7148 -0.9886
 3247TIP3   OH231155   4.997   0.342  10.961  0.4015  0.3165 -0.3746
 3247TIP3    H131156   5.015   0.389  10.880  1.5444  1.6157  0.5876
 3247TIP3    H231157   4.902   0.346  10.970  0.3491  1.0256 -1.1386
 3248TIP3   OH231158   0.615   3.019   2.243 -0.2569  0.2305 -0.1331
 3248TIP3    H131159   0.656   3.022   2.157  0.8758 -0.3782  0.3699
 3248TIP3    H231160   0.541   3.081   2.237  0.6869  1.3067 -1.0746
 3249TIP3   OH231161   6.406   6.469  16.791  0.1128  0.0966  0.6184
 3249TIP3    H131162   6.496   6.451  16.820 -0.4257  0.8078  2.9242
 3249TIP3    H231163   6.397   6.419  16.709  2.6330  0.1381  0.2301
 3250TIP3   OH231164   5.670   0.048   0.321  0.1469  0.2518 -0.3114
 3250TIP3    H131165   5.689  -0.027   0.376  0.8869 -0.0746 -0.9917
 3250TIP3    H231166   5.586   0.081   0.353 -0.2208 -0.9034 -0.0536
 3251TIP3   OH231167   1.819   4.254  15.238  0.3774  0.2344  0.3979
 3251TIP3    H131168   1.911   4.260  15.214 -0.1917  2.7663 -1.5524
 3251TIP3    H231169   1.778   4.210  15.163 -0.2578  0.6980  0.4669
 3252TIP3   OH231170   4.879   1.580  15.686  0.4744 -0.0546 -0.0502
 3252TIP3    H131171   4.968   1.552  15.664  0.6093  1.6937 -2.1333
 3252TIP3    H231172   4.891   1.659  15.738  0.1399 -0.1584  0.1876
 3253TIP3   OH231173   4.417   4.337   5.158 -0.5130  0.5033 -0.3257
 3253TIP3    H131174   4.369   4.270   5.207  0.4786 -0.5400 -0.7438
 3253TIP3    H231175   4.402   4.315   5.066 -1.9611  2.1600 -0.5399
 3254TIP3   OH231176   4.127   5.219  13.985 -0.2312 -0.9801  0.1998
 3254TIP3    H131177   4.198   5.238  14.045 -0.2349 -1.5844  0.4048
 3254TIP3    H231178   4.052   5.266  14.020  0.6318  1.8671 -1.4540
 3255TIP3   OH231179   0.361   4.384  12.352  0.1153  0.3517 -0.4410
 3255TIP3    H131180   0.409   4.446  12.405 -0.0272  0.5989 -0.6013
 3255TIP3    H231181   0.324   4.436  12.281  1.6347 -0.2177 -1.7106
 3256TIP3   OH231182   0.412   0.137  11.561 -0.1338 -0.4290  0.5651
 3256TIP3    H131183   0.373   0.071  11.503  1.5476 -0.8550 -0.1460
 3256TIP3    H231184   0.471   0.088  11.617  0.7541  0.3996  0.3831
 3257TIP3   OH231185   1.243   4.332   0.167  0.1041  0.3116 -0.3704
 3257TIP3    H131186   1.334   4.336   0.136  1.0167  0.9948  2.1786
 3257TIP3    H231187   1.196   4.394   0.111  0.7796 -1.1591 -2.7631
 3258TIP3   OH231188   4.210   2.789   4.020  0.3262  0.9667  0.0637
 3258TIP3    H131189   4.203   2.811   4.112 -0.5256  0.5962  0.0900
 3258TIP3    H231190   4.233   2.696   4.018  1.7484  1.2823 -0.0919
 3259TIP3   OH231191   5.204   1.371  14.298  0.0489  0.7618 -0.1582
 3259TIP3    H131192   5.112   1.381  14.321  0.4538  1.4426  1.2564
 3259TIP3    H231193   5.221   1.443  14.236 -0.3047  0.7912 -0.2212
 3260TIP3   OH231194   6.146   0.279  16.846 -0.0301 -0.3958  0.3733
 3260TIP3    H131195   6.170   0.318  16.930  0.5217 -2.5903  1.3123
 3260TIP3    H231196   6.225   0.234  16.816 -0.9617 -1.9171  0.0626
 3261TIP3   OH231197   6.309   6.550   3.575 -0.4019 -0.4848  0.2385
 3261TIP3    H131198   6.331   6.566   3.483 -0.6280 -2.6039 -0.2367
 3261TIP3    H231199   6.384   6.584   3.623 -0.9508  2.0899 -0.5508
 3262TIP3   OH231200   4.351   6.170  13.658 -0.1041  0.0301  0.0239
 3262TIP3    H131201   4.281   6.231  13.638  1.0806  1.5803  0.4146
 3262TIP3    H231202   4.413   6.179  13.585  0.1801 -0.5671  0.1801
 3263TIP3   OH231203   1.355   3.290   4.925 -0.1248  0.4270 -0.6361
 3263TIP3    H131204   1.314   3.375   4.909  1.3787  1.0040 -1.5086
 3263TIP3    H231205   1.389   3.263   4.840 -0.0876 -0.7994 -0.2491
 3264TIP3   OH231206   1.350   4.120   1.455  0.0713  0.6185 -0.4616
 3264TIP3    H131207   1.381   4.099   1.543 -0.1158 -0.9142 -0.7331
 3264TIP3    H231208   1.430   4.130   1.403  0.1694 -0.4616 -0.5373
 3265TIP3   OH231209   2.489   3.495  10.994  0.1888  0.0997  0.7191
 3265TIP3    H131210   2.422   3.518  10.930 -1.3644  1.4525  2.7068
 3265TIP3    H231211   2.527   3.414  10.960 -0.4217  0.8168 -1.9585
 3266TIP3   OH231212   3.376   0.540  14.556 -0.0495 -0.0838 -0.1325
 3266TIP3    H131213   3.417   0.611  14.605  0.4007 -2.1874  2.8547
 3266TIP3    H231214   3.387   0.564  14.464  1.3383  2.9437  0.7062
 3267TIP3   OH231215   2.442   3.448  16.464 -0.0575  0.1824 -1.1767
 3267TIP3    H131216   2.355   3.445  16.504  0.3614 -0.1186 -0.2623
 3267TIP3    H231217   2.497   3.492  16.530  1.0627 -1.9972 -0.5670
 3268TIP3   OH231218   2.549   3.180  12.747  0.2726 -0.4097 -0.0571
 3268TIP3    H131219   2.590   3.228  12.675  1.9396  0.9193  1.6651
 3268TIP3    H231220   2.513   3.101  12.706 -0.2592  1.0251 -2.5697
 3269TIP3   OH231221   3.402   0.370  15.472  0.2503  0.1164 -0.0614
 3269TIP3    H131222   3.385   0.452  15.426  0.0331  0.5100  0.7067
 3269TIP3    H231223   3.445   0.315  15.407 -0.7992  0.3623 -0.9833
 3270TIP3   OH231224   2.661   4.047  15.707  0.0345 -0.5157  0.2122
 3270TIP3    H131225   2.620   4.120  15.755  0.6923  0.3880 -0.5486
 3270TIP3    H231226   2.701   4.089  15.631 -0.6435 -1.8669 -0.9265
 3271TIP3   OH231227   1.789   2.885   3.317 -0.1769  0.3519 -0.4000
 3271TIP3    H131228   1.782   2.815   3.382 -0.3457 -0.1817 -0.9756
 3271TIP3    H231229   1.868   2.863   3.267 -0.0896  0.7145 -0.4246
 3272TIP3   OH231230   5.365   2.011  16.951  0.3538  0.0808  0.1109
 3272TIP3    H131231   5.316   1.938  16.990 -1.9201  1.0533 -0.7629
 3272TIP3    H231232   5.421   1.969  16.885 -0.0083 -0.9936  0.4546
 3273TIP3   OH231233   4.858   6.223  13.664 -0.0320  0.8284  0.2464
 3273TIP3    H131234   4.847   6.129  13.647  1.6075  0.0887  2.6939
 3273TIP3    H231235   4.845   6.231  13.759  0.3330  3.0098  0.1528
 3274TIP3   OH231236   6.073   0.131  16.169 -0.3872  0.1970  0.2213
 3274TIP3    H131237   6.019   0.052  16.174  0.0258 -0.0203  1.4353
 3274TIP3    H231238   6.035   0.181  16.097 -2.3110  0.1146  1.1276
 3275TIP3   OH231239   0.445   6.213   6.428  0.0982 -0.0643  0.1023
 3275TIP3    H131240   0.525   6.229   6.378 -0.7450  0.2145 -1.2124
 3275TIP3    H231241   0.473   6.214   6.520  1.2478  2.1937 -0.2041
 3276TIP3   OH231242   2.066   4.934   3.348 -0.0409  0.0610 -0.4346
 3276TIP3    H131243   2.156   4.930   3.316  0.0422 -0.6452 -0.1372
 3276TIP3    H231244   2.014   4.893   3.279  0.0357 -0.7189 -0.0376
 3277TIP3   OH231245   6.522   1.841   2.096 -0.6468  0.6992  0.2471
 3277TIP3    H131246   6.611   1.817   2.071 -0.1192 -0.1757  2.6881
 3277TIP3    H231247   6.472   1.760   2.087 -1.1416  1.1211 -0.8517
 3278TIP3   OH231248   4.208   6.283   3.866 -0.1112 -0.2704 -0.9393
 3278TIP3    H131249   4.240   6.300   3.777  0.9488 -0.1638 -0.5574
 3278TIP3    H231250   4.122   6.243   3.854 -0.1634  0.1366 -1.9995
 3279TIP3   OH231251   2.718   0.828  15.241 -0.2573 -0.0105  0.5842
 3279TIP3    H131252   2.804   0.802  15.273  0.4725  1.6954  0.1188
 3279TIP3    H231253   2.659   0.760  15.273  0.7689  0.3169  3.4718
 3280TIP3   OH231254   1.078   2.082  13.179 -0.4329  0.6215  0.2960
 3280TIP3    H131255   1.114   2.164  13.143  1.2419 -0.0509  0.3245
 3280TIP3    H231256   1.078   2.021  13.105 -2.2042  0.7630  0.1331
 3281TIP3   OH231257   0.017   1.687  12.152 -0.4494 -0.0547  0.0551
 3281TIP3    H131258   0.055   1.760  12.201 -0.7081 -0.2995  0.6254
 3281TIP3    H231259   0.072   1.611  12.174 -0.6669 -0.2020  0.0965
 3282TIP3   OH231260   1.756   4.420  15.679  0.3284 -0.6997  0.4510
 3282TIP3    H131261   1.841   4.437  15.636 -0.8378 -0.0350 -1.7574
 3282TIP3    H231262   1.697   4.401  15.607 -1.6089 -0.3395  1.8806
 3283TIP3   OH231263   6.236   2.384  15.103 -0.1166 -0.0765  0.0031
 3283TIP3    H131264   6.311   2.417  15.055 -0.4063 -3.0317 -2.8283
 3283TIP3    H231265   6.177   2.458  15.110  1.5948  1.4311 -0.7869
 3284TIP3   OH231266   4.485   5.945   5.232 -0.1742  0.2266  0.2955
 3284TIP3    H131267   4.389   5.950   5.233 -0.1460  2.1017 -0.9215
 3284TIP3    H231268   4.505   5.885   5.160 -0.4143 -1.0293  1.2468
 3285TIP3   OH231269   5.468   4.221   3.776 -0.2891  0.3165  0.7984
 3285TIP3    H131270   5.461   4.133   3.737 -0.4709  0.4299  0.5717
 3285TIP3    H231271   5.560   4.243   3.767 -0.4115  0.5347 -0.0062
 3286TIP3   OH231272   3.262   5.230   3.991 -0.6425 -0.0437 -0.1520
 3286TIP3    H131273   3.225   5.213   4.078 -0.0831 -0.5342 -0.0061
 3286TIP3    H231274   3.352   5.198   3.996  0.1085  1.8874 -0.2369
 3287TIP3   OH231275   4.178   6.599   3.373  0.2581 -0.4760  0.5414
 3287TIP3    H131276   4.168   6.515   3.328  0.3707 -0.0619 -0.2619
 3287TIP3    H231277   4.208   6.660   3.306  0.1073  0.2342  1.0988
 3288TIP3   OH231278   6.093   2.251   5.702  0.0865  0.0664 -0.2607
 3288TIP3    H131279   6.016   2.271   5.648  0.6606 -1.5079 -1.7600
 3288TIP3    H231280   6.059   2.196   5.773 -0.4506  1.0009  0.2309
 3289TIP3   OH231281   3.141   0.773  13.958  0.0822  0.3037 -0.0483
 3289TIP3    H131282   3.061   0.820  13.937 -0.2594 -0.5841 -0.8325
 3289TIP3    H231283   3.112   0.692  14.001  0.2885 -1.3630 -2.7666
 3290TIP3   OH231284   6.098   0.439   2.154  0.1053  0.3928  0.7477
 3290TIP3    H131285   6.115   0.433   2.060  2.3937 -0.0268  1.1288
 3290TIP3    H231286   6.100   0.533   2.172 -2.2007  0.6245  0.1444
 3291TIP3   OH231287   2.844   4.458   2.485 -0.3375 -0.0613 -0.0557
 3291TIP3    H131288   2.817   4.522   2.419 -1.0984  2.4044  2.4438
 3291TIP3    H231289   2.910   4.503   2.537  0.5389 -2.0547  0.6692
 3292TIP3   OH231290   6.432   4.354  12.403 -0.2659 -0.3217 -0.4627
 3292TIP3    H131291   6.351   4.352  12.352 -0.1462 -0.7915 -0.6419
 3292TIP3    H231292   6.417   4.291  12.474 -0.9357  1.2722  0.8878
 3293TIP3   OH231293   4.789   5.365   5.416 -0.3391 -0.3445 -1.0750
 3293TIP3    H131294   4.716   5.319   5.457 -0.7692 -0.7996 -2.2860
 3293TIP3    H231295   4.839   5.296   5.372 -0.3536  0.1935 -1.9727
 3294TIP3   OH231296   2.798   0.121  17.083 -0.2172 -0.0709 -0.3653
 3294TIP3    H131297   2.849   0.075  17.150  0.9826 -0.9927 -1.8611
 3294TIP3    H231298   2.848   0.110  17.002 -1.6983  0.8833 -1.4654
 3295TIP3   OH231299   4.685   0.329  11.508  0.4898  0.6588  0.2726
 3295TIP3    H131300   4.642   0.312  11.592  0.1195 -1.0580 -0.2167
 3295TIP3    H231301   4.777   0.343  11.530  0.8754 -2.1278  0.8340
 3296TIP3   OH231302   1.319   5.606  14.869 -0.2999  0.1170 -0.1732
 3296TIP3    H131303   1.314   5.677  14.806  0.1246 -1.0354 -1.5576
 3296TIP3    H231304   1.371   5.539  14.826  0.1525 -0.6558  1.4832
 3297TIP3   OH231305   0.448   1.095  16.048  0.7171 -0.1899  0.0340
 3297TIP3    H131306   0.470   1.182  16.078 -0.4007  0.4155 -0.8155
 3297TIP3    H231307   0.359   1.079  16.081  1.0801 -1.1841  0.5615
 3298TIP3   OH231308   2.928   1.388   2.510 -0.2317 -0.2450 -0.0503
 3298TIP3    H131309   2.887   1.464   2.469 -2.0531 -1.1733 -0.0572
 3298TIP3    H231310   2.941   1.325   2.438 -2.6633 -1.5465  0.5474
 3299TIP3   OH231311   0.273   2.464   1.390  0.5736 -0.0871  0.4124
 3299TIP3    H131312   0.190   2.444   1.345  1.2488 -0.8922 -0.5264
 3299TIP3    H231313   0.278   2.559   1.390 -0.4538 -0.0252  0.6633
 3300TIP3   OH231314   5.926   3.952  11.547 -0.4945 -0.5353  0.4812
 3300TIP3    H131315   5.946   3.883  11.484 -2.4269 -0.5259 -0.2081
 3300TIP3    H231316   5.946   4.033  11.500 -0.5199 -0.5633  0.4220
 3301TIP3   OH231317   0.496   3.594   4.671  0.0938  0.4895  0.3294
 3301TIP3    H131318   0.420   3.545   4.704  0.0253  0.7340  0.5366
 3301TIP3    H231319   0.464   3.640   4.594  0.3135 -0.2670 -0.2219
 3302TIP3   OH231320   2.690   5.808   0.038 -0.8699 -0.5806  0.0701
 3302TIP3    H131321   2.711   5.778   0.127 -0.1286 -0.0973  0.0652
 3302TIP3    H231322   2.687   5.903   0.045 -0.8500 -0.5417 -0.4158
 3303TIP3   OH231323   5.684   5.136   2.391 -0.1076 -0.8168  0.0782
 3303TIP3    H131324   5.754   5.071   2.386 -0.6101 -1.2788 -1.1452
 3303TIP3    H231325   5.696   5.191   2.314  0.6021  0.8641  1.3497
 3304TIP3   OH231326   2.840   3.340   5.416  0.5804 -0.3658 -0.0926
 3304TIP3    H131327   2.771   3.399   5.448  3.5323  3.1937  0.3635
 3304TIP3    H231328   2.816   3.322   5.325 -0.9115  0.8140  0.0329
 3305TIP3   OH231329   5.977   0.699   3.078  0.1429  0.0381  0.3764
 3305TIP3    H131330   6.055   0.682   3.131  0.0762  1.8752  1.1495
 3305TIP3    H231331   6.010   0.719   2.991  0.3813 -1.1400  0.1824
 3306TIP3   OH231332   6.345   0.492  12.312  0.5519 -0.5794 -0.3647
 3306TIP3    H131333   6.250   0.495  12.319  0.6818  0.1838  2.1317
 3306TIP3    H231334   6.368   0.568  12.258 -0.2365 -0.8154 -1.0518
 3307TIP3   OH231335   0.829   0.827   4.172 -0.3690  0.5125  0.1687
 3307TIP3    H131336   0.870   0.868   4.248 -0.5516 -0.7714  0.9976
 3307TIP3    H231337   0.740   0.862   4.172 -0.0207  1.4192 -0.1657
 3308TIP3   OH231338   5.142   5.998   0.655 -0.1319 -0.0531  0.1566
 3308TIP3    H131339   5.151   6.092   0.671 -1.9779  0.2628 -0.4133
 3308TIP3    H231340   5.193   5.982   0.575 -0.5333  0.6485 -0.2481
 3309TIP3   OH231341   4.898   2.042   2.617  0.2879 -0.1263 -0.0120
 3309TIP3    H131342   4.970   1.980   2.625  0.4467  0.1362  0.5859
 3309TIP3    H231343   4.823   1.988   2.592  0.9581 -0.2379 -2.0049
 3310TIP3   OH231344   1.659   1.280  17.226  0.7198  0.2778  0.4057
 3310TIP3    H131345   1.664   1.209  17.290 -1.1323  0.1019  0.4067
 3310TIP3    H231346   1.676   1.359  17.277  1.5922 -0.0424  0.6341
 3311TIP3   OH231347   2.166   3.514   0.977  0.4343 -0.4084  0.1444
 3311TIP3    H131348   2.252   3.541   0.943 -0.1061 -0.6201 -1.5142
 3311TIP3    H231349   2.178   3.423   1.003  0.5890 -0.6283 -0.6538
 3312TIP3   OH231350   4.930   3.419   5.784 -0.5730  0.2194 -0.0181
 3312TIP3    H131351   4.918   3.437   5.877 -3.4314 -0.7810 -0.1034
 3312TIP3    H231352   4.892   3.494   5.738  1.2004  0.9112 -0.4437
 3313TIP3   OH231353   0.745   3.397   1.211 -0.1320  0.4415 -0.1058
 3313TIP3    H131354   0.735   3.352   1.127 -0.9117  2.0250 -0.9105
 3313TIP3    H231355   0.756   3.326   1.275 -2.3459 -0.9744 -1.1399
 3314TIP3   OH231356   0.976   0.056  11.422 -0.2782 -0.0123  0.3778
 3314TIP3    H131357   1.006   0.144  11.398 -0.7315 -0.0649 -0.4473
 3314TIP3    H231358   0.919   0.030  11.349  0.0336 -1.0806  0.4987
 3315TIP3   OH231359   0.428   1.606  16.777 -0.1505  0.0420  0.2582
 3315TIP3    H131360   0.391   1.659  16.706 -0.3448 -0.2805  0.1200
 3315TIP3    H231361   0.418   1.516  16.748 -0.9949 -0.1353  1.0617
 3316TIP3   OH231362   0.113   1.847  16.758  0.0679 -0.4346  0.9008
 3316TIP3    H131363   0.097   1.777  16.822 -0.9382 -0.3479  0.7539
 3316TIP3    H231364   0.038   1.843  16.698  1.1452 -0.7414 -0.4959
 3317TIP3   OH231365   2.498   4.634   4.833 -0.2111 -0.3757  0.2273
 3317TIP3    H131366   2.435   4.567   4.804 -0.5805  0.3006 -0.5640
 3317TIP3    H231367   2.496   4.628   4.928 -0.7906 -0.9900  0.1890
 3318TIP3   OH231368   4.699   4.090   5.737 -0.0895 -0.0891  0.2382
 3318TIP3    H131369   4.776   4.100   5.793 -0.7017  2.2584  0.7876
 3318TIP3    H231370   4.728   4.035   5.665  1.9617  0.3259  0.7019
 3319TIP3   OH231371   0.155   6.705   3.368 -0.1698 -0.3727 -0.6259
 3319TIP3    H131372   0.218   6.768   3.404  0.8350 -0.7284 -1.6867
 3319TIP3    H231373   0.085   6.758   3.331  0.9152  0.1954 -1.9661
 3320TIP3   OH231374   4.907   0.024  16.334  0.5526  0.6309  0.1679
 3320TIP3    H131375   4.870  -0.019  16.412 -0.3083  1.3164  0.1399
 3320TIP3    H231376   4.871  -0.026  16.260  1.1462  0.1594  0.1821
 3321TIP3   OH231377   3.906   5.644   1.545 -0.7580  0.2499 -0.1990
 3321TIP3    H131378   3.875   5.675   1.630 -1.8658 -2.3153  0.4298
 3321TIP3    H231379   3.884   5.715   1.484 -0.6950  1.7907  1.4713
 3322TIP3   OH231380   1.300   2.251  16.950 -0.0331 -0.0865 -0.0885
 3322TIP3    H131381   1.291   2.317  17.019  0.0204 -0.0818 -0.0854
 3322TIP3    H231382   1.346   2.297  16.879 -0.4511  0.0278 -0.2900
 3323TIP3   OH231383   6.509   1.457   1.513  0.7739  0.9913 -0.2075
 3323TIP3    H131384   6.502   1.550   1.536  0.4726  1.2028 -1.1083
 3323TIP3    H231385   6.507   1.456   1.417 -0.1812 -0.0143 -0.1901
 3324TIP3   OH231386   4.342   4.832   0.160 -0.2739  0.0686  0.3058
 3324TIP3    H131387   4.274   4.793   0.214  0.2966 -0.7084  0.4681
 3324TIP3    H231388   4.297   4.854   0.078 -1.2020  1.5007  1.1564
 3325TIP3   OH231389   3.843   4.407  15.452 -0.5645  0.0390  0.3215
 3325TIP3    H131390   3.764   4.380  15.498 -0.5261 -1.1296 -0.2728
 3325TIP3    H231391   3.901   4.331  15.456 -0.1889  0.2481 -0.8089
 3326TIP3   OH231392   6.347   5.686  12.186 -0.4885 -0.7427 -0.0603
 3326TIP3    H131393   6.293   5.642  12.252 -0.6091  0.9962  1.0463
 3326TIP3    H231394   6.284   5.721  12.123 -0.7212  1.0959  1.1141
 3327TIP3   OH231395   1.724   5.288   1.053  0.1771 -0.0224 -0.3186
 3327TIP3    H131396   1.789   5.357   1.052  1.1419 -0.9071 -0.4290
 3327TIP3    H231397   1.700   5.275   0.961 -1.6222  1.6081 -0.1369
 3328TIP3   OH231398   2.661   3.693   0.410  1.3128 -0.1997 -0.2605
 3328TIP3    H131399   2.736   3.650   0.369  0.2444 -3.0009  0.5050
 3328TIP3    H231400   2.640   3.638   0.485 -0.0846  1.8226  0.9233
 3329TIP3   OH231401   5.829   5.179  16.106 -0.1777  0.2794 -0.1710
 3329TIP3    H131402   5.919   5.208  16.116  0.1248  0.4511 -2.7505
 3329TIP3    H231403   5.802   5.154  16.195  2.1865  0.7458  0.7580
 3330TIP3   OH231404   6.593   5.449  11.788 -0.3007 -0.0883 -0.5983
 3330TIP3    H131405   6.664   5.419  11.731 -1.2839 -1.0188 -1.3705
 3330TIP3    H231406   6.591   5.386  11.859  0.3708  0.5870  0.0326
 3331TIP3   OH231407   1.405   4.105  14.488  0.4297 -0.2945 -0.5758
 3331TIP3    H131408   1.472   4.153  14.440  0.5568 -0.2090 -0.3138
 3331TIP3    H231409   1.355   4.174  14.534  1.1953 -0.4680  0.5550
 3332TIP3   OH231410   5.089   6.133   2.208  0.3708 -0.0991  0.2111
 3332TIP3    H131411   5.094   6.064   2.273 -0.6036  0.5098  0.9713
 3332TIP3    H231412   5.088   6.214   2.259  1.5421  0.4922 -0.6584
 3333TIP3   OH231413   0.705   6.608  16.301  0.4295  0.9914 -0.3723
 3333TIP3    H131414   0.793   6.572  16.315  0.9123  1.6937 -1.5020
 3333TIP3    H231415   0.694   6.672  16.372 -0.4686 -1.3291  1.7048
 3334TIP3   OH231416   2.465   3.196  15.761  0.1377 -0.1617 -0.8289
 3334TIP3    H131417   2.441   3.176  15.851  3.1217  1.2544  0.4302
 3334TIP3    H231418   2.540   3.138  15.743 -1.0331 -1.1608 -2.8337
 3335TIP3   OH231419   1.477   0.351   6.672  0.1880 -0.5428  0.3531
 3335TIP3    H131420   1.460   0.325   6.762  0.5306  1.8793  1.1779
 3335TIP3    H231421   1.477   0.269   6.623 -1.5165 -1.7891  2.2857
 3336TIP3   OH231422   6.580   1.544  12.907  0.1015 -0.0739  0.2122
 3336TIP3    H131423   6.630   1.507  12.834 -0.9878 -0.5976 -0.2865
 3336TIP3    H231424   6.587   1.479  12.976  0.1115 -0.1405  0.1489
 3337TIP3   OH231425   5.372   5.864   2.407 -0.1768 -0.1639 -0.0960
 3337TIP3    H131426   5.321   5.862   2.326  0.8064  0.7309 -0.7589
 3337TIP3    H231427   5.307   5.886   2.475 -0.7600  0.5194 -0.8558
 3338TIP3   OH231428   0.021   6.399   2.734 -0.0806 -0.9084 -0.5596
 3338TIP3    H131429   0.116   6.391   2.728  0.1570  0.9117  0.1035
 3338TIP3    H231430   0.000   6.477   2.682 -1.2504 -1.3720 -0.8375
 3339TIP3   OH231431   4.539   4.919   1.607  0.0713  0.0661 -0.0630
 3339TIP3    H131432   4.544   4.883   1.695  0.4423  0.6356  0.1447
 3339TIP3    H231433   4.603   4.869   1.557  2.8232  2.3909  0.9048
 3340TIP3   OH231434   4.933   2.969  13.358  0.0634 -0.4234  0.0317
 3340TIP3    H131435   4.863   2.939  13.300 -0.1357 -1.2604  0.6814
 3340TIP3    H231436   4.982   2.890  13.380  1.2976  0.1626 -0.4888
 3341TIP3   OH231437   4.935   1.439  17.088  0.1677  0.2579 -0.2643
 3341TIP3    H131438   4.855   1.491  17.085  2.0004  3.2973 -0.5669
 3341TIP3    H231439   4.925   1.385  17.167 -1.7328  1.2914  0.2715
 3342TIP3   OH231440   5.612   2.454   3.103 -0.0248 -0.1328  0.0524
 3342TIP3    H131441   5.578   2.388   3.042 -1.4530 -0.6271  1.3291
 3342TIP3    H231442   5.544   2.521   3.107  0.2248  0.0865  0.7904
 3343TIP3   OH231443   0.721   2.954  14.684 -0.0235  0.0096 -0.2226
 3343TIP3    H131444   0.635   2.946  14.643  0.6284 -0.7081 -1.5011
 3343TIP3    H231445   0.739   2.866  14.719 -0.4327  0.5240  1.4021
 3344TIP3   OH231446   1.767   1.694   2.778  0.3166 -0.0561 -0.5554
 3344TIP3    H131447   1.797   1.748   2.705  0.9597  1.2629  0.6265
 3344TIP3    H231448   1.847   1.660   2.817  0.1074  0.6623  0.5478
 3345TIP3   OH231449   1.379   1.618   4.594  0.1055  0.4558  0.3091
 3345TIP3    H131450   1.316   1.547   4.595 -1.2476  1.6021  2.7420
 3345TIP3    H231451   1.429   1.608   4.675  1.4901  0.9414 -0.4438
 3346TIP3   OH231452   3.133   6.472  16.561 -0.1413  0.1581  0.3501
 3346TIP3    H131453   3.061   6.422  16.524  1.5301 -0.2018 -2.7041
 3346TIP3    H231454   3.097   6.560  16.573 -1.5044 -0.3840  0.4488
 3347TIP3   OH231455   1.434   6.697  11.664 -0.3306 -0.3311 -0.1080
 3347TIP3    H131456   1.418   6.605  11.642 -0.1094  0.1710 -2.6828
 3347TIP3    H231457   1.349   6.740  11.653  0.0926  0.1954 -1.6337
 3348TIP3   OH231458   2.193   4.988   5.198  0.2120 -0.9950  0.5834
 3348TIP3    H131459   2.261   5.055   5.208  0.8664 -1.2663 -1.5284
 3348TIP3    H231460   2.114   5.028   5.236  0.1910  1.6617 -1.8488
 3349TIP3   OH231461   0.363   6.524  16.777  0.0905 -0.2266  0.2007
 3349TIP3    H131462   0.346   6.508  16.684  0.7978  1.2353 -0.1994
 3349TIP3    H231463   0.276   6.530  16.816 -0.3045  1.9229 -0.8859
 3350TIP3   OH231464   3.576   0.752  15.713  0.4939  0.4491 -0.2054
 3350TIP3    H131465   3.643   0.808  15.674  0.9832  1.3593  1.8175
 3350TIP3    H231466   3.592   0.757  15.807 -1.5840 -0.3910  0.2509
 3351TIP3   OH231467   4.373   0.325  15.653 -0.2428  0.2997 -0.1308
 3351TIP3    H131468   4.332   0.396  15.606  1.0869  1.4302  0.3356
 3351TIP3    H231469   4.392   0.259  15.586 -0.1226  1.0470 -0.8505
 3352TIP3   OH231470   2.442   0.626   3.074 -0.0461 -0.1756 -0.3152
 3352TIP3    H131471   2.407   0.715   3.072  1.0629  0.2564 -1.1415
 3352TIP3    H231472   2.469   0.608   2.984 -0.3136 -1.3734 -0.1677
 3353TIP3   OH231473   0.991   5.343   1.284  0.2706  0.8496  0.2480
 3353TIP3    H131474   1.046   5.414   1.317  1.2693 -0.3981  1.3660
 3353TIP3    H231475   0.984   5.281   1.357 -2.0232  0.5904 -0.1066
 3354TIP3   OH231476   6.005   5.848   3.706  0.5724 -0.6171  0.6187
 3354TIP3    H131477   6.075   5.912   3.699 -1.0542  1.1588 -0.4539
 3354TIP3    H231478   5.976   5.852   3.797  0.0858  0.6751  0.4255
 3355TIP3   OH231479   4.220   3.174   0.120  0.7420  0.2478  0.7313
 3355TIP3    H131480   4.250   3.117   0.050 -0.0761 -0.1548  0.6898
 3355TIP3    H231481   4.294   3.181   0.180  0.7410 -1.1957  0.9406
 3356TIP3   OH231482   6.779   3.576   2.143 -0.2571 -0.2603  0.0470
 3356TIP3    H131483   6.836   3.525   2.201  0.2953 -1.2629 -1.3274
 3356TIP3    H231484   6.838   3.611   2.076 -0.6818  1.9281  0.7516
 3357TIP3   OH231485   2.885   4.102  11.647  0.1293 -0.7807 -0.2341
 3357TIP3    H131486   2.805   4.077  11.602 -0.8474  0.8016  0.5059
 3357TIP3    H231487   2.936   4.150  11.582 -1.2936  1.5347  0.2498
 3358TIP3   OH231488   3.976   0.684   1.529 -0.3430 -0.4234 -0.2278
 3358TIP3    H131489   3.929   0.642   1.602 -2.2229 -0.4144 -1.3709
 3358TIP3    H231490   4.058   0.715   1.568  0.8438 -4.3656  0.9302
 3359TIP3   OH231491   1.326   4.161  16.041  0.1335  0.2905  0.3087
 3359TIP3    H131492   1.348   4.167  16.134  1.3944 -1.6000  0.1872
 3359TIP3    H231493   1.338   4.250  16.008 -0.9083  1.1307  2.0357
 3360TIP3   OH231494   2.012   4.753   2.880 -0.4160 -0.5275  0.1754
 3360TIP3    H131495   2.051   4.824   2.828  0.4461 -1.1608 -0.0588
 3360TIP3    H231496   1.918   4.759   2.861 -0.5541  1.3455  1.1482
 3361TIP3   OH231497   5.898   0.974  12.861  0.6336 -0.3235  0.5903
 3361TIP3    H131498   5.857   0.905  12.913  1.2084  0.1237  1.6884
 3361TIP3    H231499   5.974   0.932  12.821 -1.1475 -1.3249 -1.9754
 3362TIP3   OH231500   3.985   2.474   2.738  0.0877  0.4926  0.1051
 3362TIP3    H131501   4.002   2.507   2.649 -0.6104  0.6352  0.0156
 3362TIP3    H231502   3.938   2.545   2.781  0.8676  0.6219  0.7642
 3363TIP3   OH231503   6.229   6.021  11.050  0.0976 -0.2735  0.2172
 3363TIP3    H131504   6.308   5.990  11.005  0.7908 -1.7241  2.3123
 3363TIP3    H231505   6.157   5.978  11.003  0.8222 -2.0769  0.6721
 3364TIP3   OH231506   6.259   2.819  12.821 -0.5083  0.4962  0.2809
 3364TIP3    H131507   6.322   2.792  12.888  2.2655  0.5850 -2.0458
 3364TIP3    H231508   6.304   2.890  12.774 -2.2072  0.3054 -1.7763
 3365TIP3   OH231509   5.443   4.645  14.445  0.4452  0.0261 -0.3916
 3365TIP3    H131510   5.488   4.562  14.460 -0.1490 -0.5794 -1.7894
 3365TIP3    H231511   5.354   4.620  14.420  0.0011  1.1255  0.0209
 3366TIP3   OH231512   0.520   1.951   1.558 -0.0802 -0.2078  0.4300
 3366TIP3    H131513   0.506   2.034   1.512 -1.3180 -0.6914 -0.0983
 3366TIP3    H231514   0.586   1.906   1.506  0.5635  0.4027  0.6921
 3367TIP3   OH231515   5.691   2.610   5.977  0.4755  0.1901 -0.5324
 3367TIP3    H131516   5.597   2.611   5.993  0.6110 -1.9442  0.7970
 3367TIP3    H231517   5.718   2.701   5.983 -1.1616  0.5971  1.5403
 3368TIP3   OH231518   4.750   3.674  16.589  0.0963 -0.9496  0.3398
 3368TIP3    H131519   4.787   3.691  16.502 -0.6667 -0.9359  0.0043
 3368TIP3    H231520   4.714   3.759  16.616  1.2746 -0.6838  1.1535
 3369TIP3   OH231521   3.555   1.967   4.147  0.1597 -0.3845  0.2643
 3369TIP3    H131522   3.510   2.050   4.160  0.8921  0.5424 -2.4112
 3369TIP3    H231523   3.553   1.925   4.232 -0.2700  2.3510  1.7230
 3370TIP3   OH231524   5.664   2.882  14.037  0.1539 -0.4396  0.7169
 3370TIP3    H131525   5.748   2.922  14.059 -0.9975  2.3245  0.4015
 3370TIP3    H231526   5.615   2.882  14.119 -0.9003  1.5855  0.1334
 3371TIP3   OH231527   5.334   4.077   4.104  0.3602 -0.6549  0.5167
 3371TIP3    H131528   5.340   3.989   4.065  3.3159 -0.0922 -0.5634
 3371TIP3    H231529   5.418   4.118   4.082 -1.0646  2.5976  0.6818
 3372TIP3   OH231530   6.503   5.206  14.661  0.0024  0.7810 -0.0499
 3372TIP3    H131531   6.585   5.216  14.613 -0.5790  0.8077 -1.0447
 3372TIP3    H231532   6.446   5.275  14.627 -0.5077  0.6455  0.5019
 3373TIP3   OH231533   6.053   2.254  12.255 -0.1404 -0.5111 -0.0999
 3373TIP3    H131534   6.142   2.247  12.220 -0.1537 -1.2944  0.0142
 3373TIP3    H231535   6.063   2.244  12.350 -0.2654  0.2215  0.0010
 3374TIP3   OH231536   0.052   4.348   2.819 -0.0420 -0.1985 -0.0807
 3374TIP3    H131537  -0.010   4.289   2.862  0.3669 -0.8472 -0.3689
 3374TIP3    H231538   0.061   4.421   2.880 -1.7402  0.3371 -0.4110
 3375TIP3   OH231539   4.955   1.497  13.560  0.1306  0.1028 -0.5865
 3375TIP3    H131540   4.971   1.495  13.466  0.4331  0.8971 -0.5570
 3375TIP3    H231541   4.863   1.470  13.569  0.1371 -0.1115 -1.0913
 3376TIP3   OH231542   6.772   0.081  14.437 -0.3762  0.2077 -0.9907
 3376TIP3    H131543   6.783   0.041  14.523  0.6134 -0.0710 -1.2368
 3376TIP3    H231544   6.805   0.017  14.375  0.7211  1.1603 -1.4308
 3377TIP3   OH231545   0.347   1.876  14.254 -0.3003 -0.1620  0.3549
 3377TIP3    H131546   0.407   1.949  14.268  0.0049 -0.7099  2.2391
 3377TIP3    H231547   0.268   1.916  14.219  0.0434  0.9910  0.8635
 3378TIP3   OH231548   5.033   0.163  11.269 -0.5221 -0.6382 -0.0863
 3378TIP3    H131549   5.081   0.245  11.283 -0.1515 -1.0642  1.2418
 3378TIP3    H231550   4.952   0.190  11.225 -0.5592  0.4833  0.6369
 3379TIP3   OH231551   6.678   3.627  16.952 -0.0338 -0.1334 -0.1145
 3379TIP3    H131552   6.715   3.673  17.027  1.3035 -1.1844 -0.0947
 3379TIP3    H231553   6.623   3.693  16.908 -1.7314  0.2119  2.3467
 3380TIP3   OH231554   3.879   3.362  11.849  0.4949 -0.1102 -0.3601
 3380TIP3    H131555   3.869   3.275  11.810 -1.3567  0.3504 -1.0357
 3380TIP3    H231556   3.964   3.393  11.818  0.8206 -1.3495 -0.7718
 3381TIP3   OH231557   5.936   5.186  11.128  0.2578  0.6083 -0.3957
 3381TIP3    H131558   5.967   5.177  11.038 -1.7949  1.0859 -1.2166
 3381TIP3    H231559   5.894   5.102  11.147 -0.3224  0.9067 -0.3293
 3382TIP3   OH231560   5.729   6.144   1.479 -0.3283 -0.4369  0.2962
 3382TIP3    H131561   5.764   6.077   1.538 -2.7310 -0.1398  2.2006
 3382TIP3    H231562   5.741   6.226   1.526  0.9543  0.3286 -1.2524
 3383TIP3   OH231563   2.049   6.036  13.032 -0.2304  0.0439  0.4349
 3383TIP3    H131564   2.102   5.969  12.989  0.4575  1.5956 -1.2657
 3383TIP3    H231565   2.092   6.050  13.116  0.0633 -1.0787  0.4924
 3384TIP3   OH231566   0.186   5.324   1.825 -0.1845  0.1174 -0.4678
 3384TIP3    H131567   0.156   5.415   1.820 -1.8163 -0.3743 -0.4537
 3384TIP3    H231568   0.111   5.273   1.794  1.1006 -1.1785 -1.5724
 3385TIP3   OH231569   4.690   6.020   2.384 -0.1289 -0.1319  0.1684
 3385TIP3    H131570   4.693   5.986   2.295 -0.3563 -2.6369  1.0434
 3385TIP3    H231571   4.629   6.094   2.379 -2.2430 -1.8364 -1.3190
 3386TIP3   OH231572   5.925   0.675  11.345  0.0968 -0.2440  0.3966
 3386TIP3    H131573   5.933   0.765  11.314  1.1864 -1.5333 -3.6763
 3386TIP3    H231574   6.001   0.663  11.403 -0.0479  1.4052  0.9798
 3387TIP3   OH231575   4.444   4.659  12.207 -1.1160 -0.0190 -0.2657
 3387TIP3    H131576   4.509   4.680  12.274 -1.7936 -2.2748  1.1961
 3387TIP3    H231577   4.425   4.743  12.166  0.7787  1.1243  1.0170
 3388TIP3   OH231578   5.971   5.301  13.846  0.7365  0.2614 -0.2785
 3388TIP3    H131579   5.906   5.244  13.805  0.1300  0.9668 -0.3226
 3388TIP3    H231580   6.055   5.260  13.827  0.2825 -0.9323  0.1914
 3389TIP3   OH231581   4.463   1.192   4.446  0.4429  0.1594  0.1040
 3389TIP3    H131582   4.497   1.108   4.479 -1.6325 -0.8953 -0.2757
 3389TIP3    H231583   4.467   1.251   4.521  0.2270 -0.8339  0.9188
 3390TIP3   OH231584   0.726   3.200  13.242  0.3956  0.1935 -0.5280
 3390TIP3    H131585   0.680   3.283  13.230 -2.1923 -1.1418 -0.4269
 3390TIP3    H231586   0.675   3.136  13.193  0.8905 -1.7982  1.3945
 3391TIP3   OH231587   1.246   2.087   1.047  0.7236 -0.3552 -0.0359
 3391TIP3    H131588   1.211   2.002   1.074 -1.0716 -1.0180 -3.7129
 3391TIP3    H231589   1.299   2.067   0.969 -0.9697  1.8980 -1.9283
 3392TIP3   OH231590   4.993   4.381   5.665 -0.4403  0.8367  0.2074
 3392TIP3    H131591   5.043   4.460   5.688  1.4446  0.4417 -2.1095
 3392TIP3    H231592   5.059   4.312   5.662 -1.2969  0.0416 -1.8131
 3393TIP3   OH231593   0.936   3.918   0.464  0.3733  0.2579 -0.0221
 3393TIP3    H131594   0.911   4.010   0.471 -0.7032 -0.1307  1.8496
 3393TIP3    H231595   0.853   3.870   0.461  0.9152 -0.6735 -0.7952
 3394TIP3   OH231596   5.680   6.082   5.206 -0.1359  0.1419 -0.4137
 3394TIP3    H131597   5.639   6.068   5.121  0.1058 -0.6100 -0.4148
 3394TIP3    H231598   5.704   6.175   5.206 -1.6582  0.5721 -0.4831
 3395TIP3   OH231599   0.018   5.254  11.925 -0.3160  0.3916  0.0876
 3395TIP3    H131600   0.093   5.228  11.979 -0.7999 -2.1071 -0.2838
 3395TIP3    H231601   0.058   5.291  11.846  0.4501  1.5182  0.9798
 3396TIP3   OH231602   2.979   6.236   1.444  0.1434 -0.7524 -0.0627
 3396TIP3    H131603   3.027   6.245   1.362  0.1654  1.2193  0.1022
 3396TIP3    H231604   2.890   6.262   1.422  0.4508  1.1936  0.7668
 3397TIP3   OH231605   3.481   0.262   3.674  0.3327  0.0984 -0.2529
 3397TIP3    H131606   3.455   0.192   3.614  0.6063 -1.0195  0.8815
 3397TIP3    H231607   3.561   0.298   3.635  0.1596 -0.1831 -0.8813
 3398TIP3   OH231608   0.400   4.309   5.159 -0.3084 -0.0981 -0.1479
 3398TIP3    H131609   0.477   4.337   5.109  1.1357 -0.9356  1.5124
 3398TIP3    H231610   0.354   4.250   5.099  0.5730  0.0684 -1.0193
 3399TIP3   OH231611   0.902   1.998   4.607  0.1335  0.1712  0.1421
 3399TIP3    H131612   0.995   2.004   4.586  0.1369 -0.5713 -0.0854
 3399TIP3    H231613   0.900   1.960   4.695  0.0434  0.2720  0.1838
 3400TIP3   OH231614   0.982   2.558   3.038 -0.2056  0.0420  0.1868
 3400TIP3    H131615   1.062   2.510   3.020  0.2307  0.0814  1.8678
 3400TIP3    H231616   0.929   2.498   3.091 -0.0128  1.0696  1.5911
 3401TIP3   OH231617   5.027   5.329  14.331  0.1155  0.7394  0.4366
 3401TIP3    H131618   4.938   5.330  14.296  0.1367  2.3003  0.3545
 3401TIP3    H231619   5.017   5.300  14.422 -0.3737  0.1193  0.1886
 3402TIP3   OH231620   4.202   0.704   2.615  0.7166 -0.0788  0.8498
 3402TIP3    H131621   4.160   0.707   2.701 -1.4251  1.2912 -0.1632
 3402TIP3    H231622   4.207   0.611   2.594 -0.0409 -0.3697  1.8572
 3403TIP3   OH231623   5.667   1.572   2.858 -0.0849  0.0531  0.9480
 3403TIP3    H131624   5.661   1.634   2.785 -0.6266 -0.7347  0.3059
 3403TIP3    H231625   5.758   1.542   2.856 -0.6291 -1.6503 -0.8555
 3404TIP3   OH231626   4.484   6.196   3.098 -0.4771 -0.5698  0.3441
 3404TIP3    H131627   4.450   6.157   3.178 -0.0799 -0.7682  0.4175
 3404TIP3    H231628   4.511   6.284   3.123  1.3264 -1.2340  0.8590
 3405TIP3   OH231629   1.587   0.099   0.054  0.1057 -0.0249 -0.0369
 3405TIP3    H131630   1.601   0.011   0.018  1.0875 -0.3227  1.0150
 3405TIP3    H231631   1.637   0.099   0.135 -0.4284  1.3002  0.3026
 3406TIP3   OH231632   5.352   4.963   2.756  0.1521  0.2812 -0.3133
 3406TIP3    H131633   5.283   4.926   2.811 -0.7020  0.1097 -1.4656
 3406TIP3    H231634   5.306   5.000   2.680  1.2374  1.1146 -0.6023
 3407TIP3   OH231635   0.530   2.621  13.357 -0.0687 -0.5847  0.2062
 3407TIP3    H131636   0.519   2.548  13.296  0.9953  0.4805 -1.3589
 3407TIP3    H231637   0.614   2.604  13.399  0.0385 -0.4195  0.0596
 3408TIP3   OH231638   6.286   3.062   0.799  0.2330 -0.2016 -0.5037
 3408TIP3    H131639   6.359   3.049   0.859 -0.2670  1.0927  0.4422
 3408TIP3    H231640   6.308   3.142   0.752 -1.7987  1.9209  1.8575
 3409TIP3   OH231641   1.896   2.244   2.634 -0.4575 -0.1137  0.2722
 3409TIP3    H131642   1.807   2.207   2.630  0.3416 -2.5046  2.0031
 3409TIP3    H231643   1.917   2.244   2.728  0.3762  3.0932  0.1750
 3410TIP3   OH231644   4.078   5.019   2.366  0.5581 -0.3360 -0.2214
 3410TIP3    H131645   4.042   4.989   2.450 -1.9493  1.1966 -0.6451
 3410TIP3    H231646   4.133   5.093   2.389  0.4762 -0.3839  0.1354
 3411TIP3   OH231647   6.224   6.028   3.742 -0.1398  0.2332 -0.2983
 3411TIP3    H131648   6.180   6.069   3.816  0.4511  1.6877 -0.7169
 3411TIP3    H231649   6.244   6.101   3.683  0.3686 -0.7556 -1.3752
 3412TIP3   OH231650   0.448   4.075  13.491 -0.0723  0.0983  1.0783
 3412TIP3    H131651   0.373   4.090  13.548  0.7851  1.5384  1.8862
 3412TIP3    H231652   0.504   4.152  13.503  2.7304 -1.9749  2.4154
 3413TIP3   OH231653   5.936   1.468  13.812 -0.2827 -0.2859 -0.0808
 3413TIP3    H131654   5.987   1.538  13.853 -0.1165 -0.8207  0.6357
 3413TIP3    H231655   5.956   1.476  13.718  0.5147 -0.0091  0.1049
 3414TIP3   OH231656   5.362   5.990  11.805 -0.7910 -0.5041  0.1263
 3414TIP3    H131657   5.304   5.941  11.746 -3.6153  0.8217  1.5810
 3414TIP3    H231658   5.335   6.081  11.794  0.1615  0.0200  1.8167
 3415TIP3   OH231659   6.143   1.767  14.247  0.6894  0.0271 -0.2323
 3415TIP3    H131660   6.120   1.827  14.318  0.4576  0.3243 -0.5539
 3415TIP3    H231661   6.136   1.680  14.286 -0.1745  0.1513 -0.0834
 3416TIP3   OH231662   2.089   0.007  16.363 -0.1393  0.1360 -0.2170
 3416TIP3    H131663   2.171  -0.021  16.403 -1.7637 -1.5941  2.1712
 3416TIP3    H231664   2.035   0.038  16.436 -1.9097  0.4876 -1.5925
 3417TIP3   OH231665   0.119   0.460   0.962 -0.4057  0.7855  0.0233
 3417TIP3    H131666   0.096   0.482   1.052 -0.6959  1.0160 -0.1043
 3417TIP3    H231667   0.035   0.455   0.917 -0.2298  1.2892 -0.3727
 3418TIP3   OH231668   2.527   5.523   6.069  0.6732  0.2137 -0.1960
 3418TIP3    H131669   2.498   5.607   6.103  0.1015 -0.3249  0.7259
 3418TIP3    H231670   2.565   5.479   6.146  0.2467 -0.6683 -0.4801
 3419TIP3   OH231671   2.344   6.547   1.877 -0.1820  0.1384  0.2277
 3419TIP3    H131672   2.305   6.599   1.807  0.5572  1.5408  0.8269
 3419TIP3    H231673   2.390   6.476   1.832 -1.5649 -0.2892 -0.5749
 3420TIP3   OH231674   0.945   1.678   4.232  0.0738  0.1399 -0.1544
 3420TIP3    H131675   0.979   1.690   4.321 -0.0328  0.8708 -0.2073
 3420TIP3    H231676   1.005   1.615   4.192 -0.7624 -1.4196  0.9205
 3421TIP3   OH231677   0.858   5.550   6.315 -0.0274 -0.2991  0.9827
 3421TIP3    H131678   0.793   5.482   6.332 -1.0388  0.8213  1.7210
 3421TIP3    H231679   0.884   5.581   6.402 -0.8850  1.4588  0.6493
 3422TIP3   OH231680   5.808   5.892  11.821 -0.3232 -0.0484  0.1593
 3422TIP3    H131681   5.867   5.946  11.874  1.3624 -0.7560 -0.9223
 3422TIP3    H231682   5.805   5.935  11.736 -2.1337  0.4699  0.4477
 3423TIP3   OH231683   2.660   1.203   5.269  0.1816  0.0838 -0.1121
 3423TIP3    H131684   2.742   1.252   5.275  0.0226  0.7480 -2.4852
 3423TIP3    H231685   2.683   1.115   5.300  1.8950  0.1524 -1.0729
 3424TIP3   OH231686   3.826   0.455  13.117  0.0436 -0.0543 -0.5587
 3424TIP3    H131687   3.831   0.427  13.025  1.1341  0.8783 -0.8143
 3424TIP3    H231688   3.785   0.542  13.113 -1.1284 -0.5612 -0.0168
 3425TIP3   OH231689   1.033   4.384  15.012 -0.4843 -0.0698  0.3138
 3425TIP3    H131690   0.948   4.364  15.052  0.2326 -0.0811  1.9253
 3425TIP3    H231691   1.045   4.477  15.028 -1.1157  0.4107 -1.8127
 3426TIP3   OH231692   5.101   0.448  14.443  0.1824  0.0795 -0.1099
 3426TIP3    H131693   5.187   0.432  14.403  0.9995  1.2965  1.0569
 3426TIP3    H231694   5.100   0.543  14.460 -0.1224 -0.3176  2.5947
 3427TIP3   OH231695   5.468   0.231   1.215  0.4336  0.2765  0.4545
 3427TIP3    H131696   5.430   0.239   1.302  1.5411  2.0944  0.8183
 3427TIP3    H231697   5.536   0.298   1.212 -0.3106  1.0235 -2.2170
 3428TIP3   OH231698   2.434   4.714  15.088 -0.4759  0.3325  0.5873
 3428TIP3    H131699   2.398   4.803  15.085 -0.7953  0.2061 -1.7998
 3428TIP3    H231700   2.483   4.706  15.006 -0.7201 -1.8017  0.5907
 3429TIP3   OH231701   5.560   5.879  11.956  0.0290 -0.1050  0.0915
 3429TIP3    H131702   5.644   5.871  11.912  0.8640 -0.0972  1.6052
 3429TIP3    H231703   5.501   5.917  11.891  1.0096 -0.7505 -1.2022
 3430TIP3   OH231704   3.895   2.072  16.915  0.0272  0.2726 -0.0594
 3430TIP3    H131705   3.931   2.120  16.840  3.8779 -0.3656  1.1800
 3430TIP3    H231706   3.876   2.140  16.980  0.9563  0.5197 -0.0274
 3431TIP3   OH231707   1.596   2.578   3.341  0.3691 -0.5522 -0.3572
 3431TIP3    H131708   1.553   2.493   3.328 -1.5687  0.4959 -1.3609
 3431TIP3    H231709   1.660   2.584   3.270  0.3960 -1.1064 -0.3863
 3432TIP3   OH231710   0.626   3.009   2.941  0.9910  0.0232 -0.2415
 3432TIP3    H131711   0.645   3.087   2.888  0.7498  0.7602  0.7414
 3432TIP3    H231712   0.683   3.017   3.017  1.0191 -0.8142 -0.1614
 3433TIP3   OH231713   1.752   4.270   5.078 -0.1349  0.1238  0.4635
 3433TIP3    H131714   1.829   4.247   5.130  0.6755 -0.5167 -0.9819
 3433TIP3    H231715   1.730   4.359   5.107 -1.0361 -0.9156  3.4147
 3434TIP3   OH231716   5.306   3.637  13.760 -0.2502  0.4801  0.1460
 3434TIP3    H131717   5.258   3.581  13.821 -0.5093 -0.3539 -0.7958
 3434TIP3    H231718   5.344   3.705  13.815 -1.3539  0.3585  1.0988
 3435TIP3   OH231719   3.093   3.246  13.047  0.7566  0.5413 -0.5149
 3435TIP3    H131720   3.187   3.230  13.034  1.1740  1.8827  0.5793
 3435TIP3    H231721   3.090   3.329  13.095 -0.9280 -0.3827  1.0549
 3436TIP3   OH231722   5.541   1.627   5.760 -0.1496 -0.4524  0.1124
 3436TIP3    H131723   5.597   1.551   5.743 -0.9980 -0.8997 -0.7421
 3436TIP3    H231724   5.452   1.594   5.754 -0.6387  1.0131 -2.7259
 3437TIP3   OH231725   1.382   3.978   3.331 -0.0261  0.8161  0.1548
 3437TIP3    H131726   1.439   3.903   3.344 -1.2127 -0.2296 -0.4402
 3437TIP3    H231727   1.364   4.010   3.419  0.3455  0.2883  0.4262
 3438TIP3   OH231728   1.008   2.938  15.340  0.0570  0.6875  0.4118
 3438TIP3    H131729   1.035   2.851  15.370 -1.2729  1.2512  3.6582
 3438TIP3    H231730   1.057   2.999  15.395  0.7513  2.0604 -1.6035
 3439TIP3   OH231731   5.732   1.145  14.618 -0.3493  0.0645 -0.0030
 3439TIP3    H131732   5.690   1.176  14.698 -1.1547  0.7808 -0.6832
 3439TIP3    H231733   5.711   1.211  14.552  0.0667 -0.6461 -0.8794
 3440TIP3   OH231734   4.695   0.490  12.992 -0.7331 -0.2220 -0.3913
 3440TIP3    H131735   4.710   0.396  12.994  0.5359 -0.0563 -1.1087
 3440TIP3    H231736   4.718   0.517  12.903  0.7716  1.0366  0.3290
 3441TIP3   OH231737   5.833   1.040   4.954  0.1447  0.4340  0.0904
 3441TIP3    H131738   5.857   1.132   4.968  0.0600  0.1260  2.9142
 3441TIP3    H231739   5.908   0.991   4.988 -0.7477 -0.5232  0.7456
 3442TIP3   OH231740   3.037   0.206   1.863 -0.0525 -0.6142 -0.3087
 3442TIP3    H131741   3.130   0.219   1.845 -0.1733 -1.7590 -1.9694
 3442TIP3    H231742   3.024   0.111   1.853 -1.4573 -0.4242 -0.4239
 3443TIP3   OH231743   0.914   6.313  15.407 -0.1745  0.4609  0.1627
 3443TIP3    H131744   0.914   6.243  15.341  0.0687  1.4886 -0.9752
 3443TIP3    H231745   0.963   6.384  15.365  1.6063  0.5126  2.1658
 3444TIP3   OH231746   0.687   5.011  15.705 -0.3930  0.8018 -0.0585
 3444TIP3    H131747   0.629   5.086  15.691  1.6277  2.7263  1.1663
 3444TIP3    H231748   0.751   5.018  15.634 -0.6264 -0.2732 -0.3861
 3445TIP3   OH231749   0.100   0.585  16.290  0.0887 -0.7781 -0.0030
 3445TIP3    H131750   0.166   0.532  16.245 -0.5671  0.4906 -2.6510
 3445TIP3    H231751   0.120   0.675  16.264 -1.2934 -0.1390  1.0348
 3446TIP3   OH231752   1.562   2.740   3.578 -0.4299 -0.1779 -0.0725
 3446TIP3    H131753   1.654   2.733   3.604 -0.2208 -1.9163 -1.1323
 3446TIP3    H231754   1.560   2.711   3.487 -1.7466  1.8735 -0.7673
 3447TIP3   OH231755   2.633   0.028  13.081  0.1761  0.4623 -0.0626
 3447TIP3    H131756   2.621  -0.061  13.047 -2.6481  1.1991 -1.3124
 3447TIP3    H231757   2.588   0.028  13.165 -0.1558  0.7793 -0.2356
 3448TIP3   OH231758   5.575   2.841   4.803 -0.4534  0.6192  0.0279
 3448TIP3    H131759   5.498   2.789   4.779  0.4546 -0.7289 -0.0290
 3448TIP3    H231760   5.579   2.836   4.898 -0.7103  1.1103  0.0689
 3449TIP3   OH231761   6.598   1.395   3.568 -0.0795 -0.2585 -0.0557
 3449TIP3    H131762   6.656   1.426   3.638 -0.7967  0.5584  0.2002
 3449TIP3    H231763   6.510   1.402   3.605 -0.3039 -2.3605 -0.1143
 3450TIP3   OH231764   3.422   2.466  16.794  0.3056 -0.2244 -0.3401
 3450TIP3    H131765   3.382   2.553  16.800  0.0635 -0.3714  0.2706
 3450TIP3    H231766   3.516   2.482  16.802  0.3128  0.0405 -0.9022
 3451TIP3   OH231767   4.566   4.678  16.651 -0.2268  0.3330  0.3734
 3451TIP3    H131768   4.513   4.722  16.717 -0.8407  0.1205  0.0306
 3451TIP3    H231769   4.503   4.637  16.592  0.2817  0.9583 -0.6526
 3452TIP3   OH231770   1.575   3.308   3.859  0.4642 -0.1493  0.9349
 3452TIP3    H131771   1.494   3.319   3.908 -0.3780 -0.7158 -0.2641
 3452TIP3    H231772   1.573   3.377   3.793  0.8075 -0.3534  0.7070
 3453TIP3   OH231773   2.750   6.573   2.137 -0.1383 -0.1567 -0.4406
 3453TIP3    H131774   2.747   6.481   2.111 -0.2496 -0.5207  0.7950
 3453TIP3    H231775   2.843   6.592   2.147 -0.1416 -0.3583  0.0181
 3454TIP3   OH231776   3.410   3.986   4.818 -0.1472  0.4515 -0.2269
 3454TIP3    H131777   3.394   3.892   4.827 -1.1811  0.4267 -1.7950
 3454TIP3    H231778   3.497   3.993   4.778  0.1081  0.1900  0.2777
 3455TIP3   OH231779   6.662   0.814   0.149 -0.3807 -0.2775 -0.3094
 3455TIP3    H131780   6.598   0.884   0.145 -1.0378 -0.8692 -0.2661
 3455TIP3    H231781   6.687   0.810   0.241  0.1979  0.3713 -0.4309
 3456TIP3   OH231782   1.641   6.668   2.099 -0.5783  0.9326 -0.1874
 3456TIP3    H131783   1.721   6.621   2.120 -0.9409  0.7157  0.7747
 3456TIP3    H231784   1.595   6.677   2.183 -1.3290  1.4822 -0.6360
 3457TIP3   OH231785   6.170   1.163  16.179  0.1741 -0.0632  0.0921
 3457TIP3    H131786   6.238   1.096  16.188  0.7879  0.8134  2.4731
 3457TIP3    H231787   6.100   1.119  16.129  1.2552 -1.9040  0.1177
 3458TIP3   OH231788   2.971   5.411   0.971 -0.0592 -0.2906  0.4656
 3458TIP3    H131789   3.025   5.489   0.958  0.5099 -0.8396 -0.6177
 3458TIP3    H231790   2.988   5.385   1.061  2.0753 -0.8559 -0.0529
 3459TIP3   OH231791   5.530   3.294  11.517  0.1135  0.1247  0.0906
 3459TIP3    H131792   5.465   3.250  11.571  0.8484 -0.9677  0.1138
 3459TIP3    H231793   5.615   3.267  11.553  0.6019  1.3018 -0.1109
 3460TIP3   OH231794   4.600   2.509  16.498  0.1020  0.1772  0.1966
 3460TIP3    H131795   4.607   2.424  16.455  0.5057  1.2890 -2.0879
 3460TIP3    H231796   4.653   2.568  16.444 -1.1233  2.1221  0.9992
 3461TIP3   OH231797   3.840   2.543   5.189 -0.0383  0.3354 -0.5326
 3461TIP3    H131798   3.813   2.451   5.184  2.0990 -0.4405  0.5254
 3461TIP3    H231799   3.884   2.559   5.106 -0.6325  0.4819 -0.8197
 3462TIP3   OH231800   1.297   1.291  14.858  0.2173  0.5652 -0.4637
 3462TIP3    H131801   1.349   1.349  14.803  0.1529  0.7160 -0.3685
 3462TIP3    H231802   1.332   1.204  14.842  0.5615  0.6789 -0.3285
 3463TIP3   OH231803   0.929   4.624   4.922 -0.2787 -0.2634 -0.5343
 3463TIP3    H131804   0.896   4.558   4.983  1.0310 -1.0350 -0.6197
 3463TIP3    H231805   0.908   4.588   4.835 -1.0374  0.2442 -0.5726
 3464TIP3   OH231806   5.610   2.630  13.656  0.2022  0.3525 -0.6202
 3464TIP3    H131807   5.579   2.643  13.745  1.4174 -0.7482  0.0043
 3464TIP3    H231808   5.611   2.535  13.645  1.6535  0.4034 -1.1868
 3465TIP3   OH231809   0.938   6.440  14.378  0.1095 -0.5526 -0.0210
 3465TIP3    H131810   0.984   6.357  14.365  0.7014 -0.5415  1.7298
 3465TIP3    H231811   0.954   6.490  14.297  1.4773 -1.3396 -0.2579
 3466TIP3   OH231812   3.591   2.378  13.216 -0.3712  0.5215  0.1838
 3466TIP3    H131813   3.668   2.394  13.269  0.6932  1.9762 -1.6571
 3466TIP3    H231814   3.568   2.286  13.233  1.9290 -0.0424  0.5877
 3467TIP3   OH231815   5.080   3.627  15.199  0.7456  0.3402  0.1603
 3467TIP3    H131816   5.112   3.546  15.159  1.0216  0.0675  0.9151
 3467TIP3    H231817   5.159   3.673  15.227  0.5169 -0.2834  1.9324
 3468TIP3   OH231818   5.787   0.189  12.191 -0.1695 -0.4007 -0.8695
 3468TIP3    H131819   5.842   0.245  12.136 -1.1059 -0.2522 -1.7041
 3468TIP3    H231820   5.821   0.101  12.177  1.0078 -0.1167  0.0720
 3469TIP3   OH231821   1.871   0.288  14.765  0.0772  0.1798  0.0043
 3469TIP3    H131822   1.927   0.357  14.801  0.3586  0.1709 -0.4131
 3469TIP3    H231823   1.794   0.287  14.823 -1.1045  2.5238 -1.3674
 3470TIP3   OH231824   4.157   3.591   0.679  0.2250 -0.0374  0.2522
 3470TIP3    H131825   4.087   3.555   0.734  0.2174  0.8450  0.8502
 3470TIP3    H231826   4.124   3.676   0.651  1.5808  1.0061  1.6573
 3471TIP3   OH231827   6.083   2.956   4.765  0.4592  0.3194  0.1360
 3471TIP3    H131828   6.121   2.886   4.818  1.5273  0.5442 -0.3089
 3471TIP3    H231829   5.993   2.927   4.748  0.4539 -0.2901  1.1000
 3472TIP3   OH231830   1.522   4.840   3.842 -0.1471  0.2845 -0.3062
 3472TIP3    H131831   1.512   4.899   3.767  0.0962  0.4824 -0.1845
 3472TIP3    H231832   1.472   4.881   3.912  0.9517  0.9493  0.1157
 3473TIP3   OH231833   2.633   0.257  12.114 -0.8701 -0.3222 -0.0879
 3473TIP3    H131834   2.583   0.264  12.195 -1.3211 -1.1625 -0.2877
 3473TIP3    H231835   2.587   0.191  12.062  0.4357 -1.1026 -0.2799
 3474TIP3   OH231836   0.135   1.030  12.702  0.1412 -0.2056 -0.0381
 3474TIP3    H131837   0.154   0.984  12.620  0.6024 -0.8933  0.4457
 3474TIP3    H231838   0.221   1.059  12.733  0.1061 -0.9254  0.7641
 3475TIP3   OH231839   1.774   3.499   5.574 -0.7665 -0.3192 -0.3373
 3475TIP3    H131840   1.798   3.477   5.485 -0.8254  0.4128 -0.5396
 3475TIP3    H231841   1.804   3.589   5.586  0.0804 -0.7202  0.6937
 3476TIP3   OH231842   1.150   0.525   1.150 -0.3326  0.6647  0.5858
 3476TIP3    H131843   1.083   0.573   1.102  0.4412  1.1693 -0.0125
 3476TIP3    H231844   1.209   0.592   1.183  0.8393  0.1511 -0.3794
 3477TIP3   OH231845   2.355   0.148  14.408 -0.2099  0.0679  0.8716
 3477TIP3    H131846   2.259   0.152  14.412 -0.2017  0.7635  0.5663
 3477TIP3    H231847   2.378   0.074  14.463 -0.9831 -0.7772  0.1010
 3478TIP3   OH231848   6.114   6.101   1.184 -0.5960  0.3427  0.7523
 3478TIP3    H131849   6.024   6.089   1.215 -0.1783 -1.2848  1.4131
 3478TIP3    H231850   6.158   6.019   1.206  0.5370  0.3094 -1.3591
 3479TIP3   OH231851   5.712   1.931  13.338  0.3949 -0.4733 -0.1665
 3479TIP3    H131852   5.807   1.939  13.336  0.5620 -2.0883 -0.5388
 3479TIP3    H231853   5.696   1.837  13.331 -1.2329 -0.2415 -0.0003
 3480TIP3   OH231854   3.854   2.504   4.635 -0.3336 -0.6245 -0.0198
 3480TIP3    H131855   3.762   2.489   4.613 -0.7346  2.9209 -1.4116
 3480TIP3    H231856   3.901   2.493   4.552 -0.1585  1.4914 -0.2551
 3481TIP3   OH231857   0.663   1.960  11.803 -0.3518 -0.5465  0.6286
 3481TIP3    H131858   0.731   1.941  11.737 -2.6217  2.3024 -2.8831
 3481TIP3    H231859   0.626   1.874  11.823  0.6545 -1.6001 -1.6254
 3482TIP3   OH231860   1.139   6.240   4.578  0.1255 -0.4252  0.0709
 3482TIP3    H131861   1.123   6.147   4.592 -3.6179  0.0197 -0.1957
 3482TIP3    H231862   1.203   6.264   4.645  0.0794 -2.8840  1.0911
 3483TIP3   OH231863   2.805   2.025  10.772 -0.0029  0.3168 -0.3131
 3483TIP3    H131864   2.799   2.117  10.797  1.0713  0.1679  0.5759
 3483TIP3    H231865   2.717   1.991  10.783 -0.4577  1.2793 -0.8539
 3484TIP3   OH231866   6.566   6.482   5.232  0.2408 -0.0938 -0.1140
 3484TIP3    H131867   6.658   6.502   5.251  0.0431  2.8427 -1.7323
 3484TIP3    H231868   6.570   6.404   5.176  1.6928 -0.2937  0.2184
 3485TIP3   OH231869   4.778   4.562   2.133  0.2748 -0.1679  0.2833
 3485TIP3    H131870   4.701   4.617   2.147  1.0621  0.6856  1.4583
 3485TIP3    H231871   4.852   4.623   2.136  1.3994 -1.4049  3.9353
 3486TIP3   OH231872   4.442   1.820   2.862 -0.0049  0.0079  0.5266
 3486TIP3    H131873   4.510   1.757   2.837 -1.1668 -0.8728 -0.5977
 3486TIP3    H231874   4.364   1.789   2.816 -0.4377  2.7924 -0.8454
 3487TIP3   OH231875   1.080   0.762   4.857 -0.3947 -0.4481  0.1160
 3487TIP3    H131876   1.014   0.704   4.820 -0.4094 -1.6989  1.9506
 3487TIP3    H231877   1.160   0.709   4.861  0.0911  0.2659  0.0985
 3488TIP3   OH231878   5.475   4.583  12.776 -0.1510 -0.5894 -0.6448
 3488TIP3    H131879   5.436   4.608  12.859 -0.2354 -4.1155  0.5710
 3488TIP3    H231880   5.401   4.558  12.720  0.0272 -1.3169 -0.5725
 3489TIP3   OH231881   0.843   6.240  13.434  0.2705 -0.4972 -0.3802
 3489TIP3    H131882   0.803   6.295  13.501  1.3242 -1.5406  1.1805
 3489TIP3    H231883   0.777   6.174  13.415 -0.2953  0.1998 -0.9111
 3490TIP3   OH231884   6.240   3.989   4.173  0.3845  0.1813  0.3041
 3490TIP3    H131885   6.300   3.916   4.162  1.4124  0.9376  0.8049
 3490TIP3    H231886   6.219   3.990   4.266 -1.9968 -1.2793 -0.1383
 3491TIP3   OH231887   6.462   6.654  17.106 -0.0032  0.1733 -0.3124
 3491TIP3    H131888   6.418   6.593  17.166  1.6500  0.5946  1.4085
 3491TIP3    H231889   6.397   6.669  17.036 -1.8476 -0.6631  1.1254
 3492TIP3   OH231890   4.223   2.187   3.546 -0.1539 -0.1033 -0.3918
 3492TIP3    H131891   4.205   2.233   3.629 -0.1226 -1.9242  0.6834
 3492TIP3    H231892   4.150   2.212   3.489  0.3537  1.9794 -0.1957
 3493TIP3   OH231893   1.790   5.664   5.569  0.1797 -0.0177  0.1253
 3493TIP3    H131894   1.737   5.735   5.604 -0.3606  0.4118 -1.4578
 3493TIP3    H231895   1.756   5.585   5.612  0.9180  0.6515  2.0449
 3494TIP3   OH231896   4.907   4.555  13.208  0.1757  0.5350 -0.0792
 3494TIP3    H131897   4.858   4.508  13.275  0.7032  0.3046  0.1467
 3494TIP3    H231898   4.854   4.633  13.189  0.2926  0.8954  1.0063
 3495TIP3   OH231899   3.608   3.648  14.793  0.4326 -0.7223  0.2406
 3495TIP3    H131900   3.680   3.585  14.792  0.2475 -0.9296 -0.5415
 3495TIP3    H231901   3.627   3.708  14.721 -0.3625 -1.0121 -0.2337
 3496TIP3   OH231902   6.121   0.332  12.149  0.2409 -0.4888 -0.4558
 3496TIP3    H131903   6.086   0.262  12.095 -0.6732 -1.8753  1.7989
 3496TIP3    H231904   6.101   0.412  12.100 -1.9616 -1.5609 -1.4199
 3497TIP3   OH231905   0.509   2.899  16.386 -0.0605  0.3563  0.5008
 3497TIP3    H131906   0.517   2.963  16.315 -0.1970  0.1353  0.2861
 3497TIP3    H231907   0.442   2.838  16.356  2.4658 -1.9837 -0.8987
 3498TIP3   OH231908   5.115   4.234  12.936 -0.1407 -0.0771  0.7845
 3498TIP3    H131909   5.101   4.309  12.877  1.9539 -1.0339 -1.0808
 3498TIP3    H231910   5.190   4.260  12.990 -0.7002 -0.0536  1.5606
 3499TIP3   OH231911   5.320   6.779  17.151 -0.0383 -0.4109  0.1219
 3499TIP3    H131912   5.368   6.750  17.228  0.8550  0.0794 -0.2397
 3499TIP3    H231913   5.235   6.808  17.186  0.4287  0.0067  0.9582
 3500TIP3   OH231914   4.213   5.583  16.850 -0.4139 -0.3541 -0.1466
 3500TIP3    H131915   4.287   5.551  16.797 -1.8531 -2.3927 -1.0634
 3500TIP3    H231916   4.252   5.602  16.936  1.1006 -1.9526 -0.4106
 3501TIP3   OH231917   2.400   3.848  15.409 -0.0518 -0.6993 -0.2163
 3501TIP3    H131918   2.450   3.925  15.438  0.2521 -0.2689 -1.8175
 3501TIP3    H231919   2.310   3.867  15.434 -0.3201  1.1064 -2.2798
 3502TIP3   OH231920   1.331   1.137   3.712 -0.1474 -0.1112  0.1638
 3502TIP3    H131921   1.333   1.159   3.619  2.6228  0.5318  0.2921
 3502TIP3    H231922   1.273   1.203   3.752  1.2440  1.7064 -0.6855
 3503TIP3   OH231923   0.543   6.417   1.656  0.2584  0.2059 -0.2080
 3503TIP3    H131924   0.638   6.405   1.653  0.0636 -1.4126 -1.9899
 3503TIP3    H231925   0.518   6.436   1.565 -1.3497 -2.0872 -0.3436
 3504TIP3   OH231926   5.970   0.812  16.190 -0.0996 -0.7702  0.0742
 3504TIP3    H131927   5.888   0.795  16.144  0.1553 -0.5677 -0.4646
 3504TIP3    H231928   5.981   0.737  16.248 -0.4575 -1.0005 -0.1522
 3505TIP3   OH231929   0.656   0.444  11.172 -0.3892  0.3738 -0.1578
 3505TIP3    H131930   0.706   0.456  11.253  1.1151  0.5683 -1.0753
 3505TIP3    H231931   0.692   0.510  11.112 -0.9486 -0.2724 -1.2281
 3506TIP3   OH231932   4.080   4.046  11.953  0.3611  0.4731 -0.0049
 3506TIP3    H131933   4.080   3.989  12.029  1.4398  1.6074  0.8908
 3506TIP3    H231934   4.147   4.112  11.972  0.0639  1.2830 -1.5622
 3507TIP3   OH231935   3.729   4.212   0.457  0.2638  0.4668 -0.4256
 3507TIP3    H131936   3.713   4.195   0.364  0.5276 -0.4687 -0.3086
 3507TIP3    H231937   3.646   4.248   0.489 -0.9020 -2.0641 -0.3676
 3508TIP3   OH231938   2.902   6.420   5.773 -0.4194  0.3173 -0.0087
 3508TIP3    H131939   2.846   6.464   5.837 -0.7073 -2.1771  1.5735
 3508TIP3    H231940   2.854   6.342   5.748  1.0088 -0.2920 -0.9869
 3509TIP3   OH231941   2.255   1.216   3.178 -0.1752 -0.2411 -0.5228
 3509TIP3    H131942   2.171   1.220   3.223 -0.8287  0.5967 -1.7558
 3509TIP3    H231943   2.271   1.306   3.148  0.7137 -0.5636 -1.0749
 3510TIP3   OH231944   5.725   1.870  13.735  0.1609 -0.7994 -0.5028
 3510TIP3    H131945   5.772   1.827  13.664  0.7458 -2.7995  0.9763
 3510TIP3    H231946   5.791   1.923  13.779 -0.0500 -0.0604 -1.0756
 3511TIP3   OH231947   0.569   6.094  15.782 -0.1740 -0.0226 -0.3379
 3511TIP3    H131948   0.530   6.023  15.730 -1.3262  0.3024  0.0459
 3511TIP3    H231949   0.613   6.150  15.719 -0.1799 -0.5041 -0.7727
 3512TIP3   OH231950   2.474   1.100   2.227 -0.5083  0.0311 -0.2339
 3512TIP3    H131951   2.479   1.172   2.164  0.5867  0.7748  0.6548
 3512TIP3    H231952   2.441   1.141   2.307 -0.6965 -0.6382  0.0340
 3513TIP3   OH231953   6.410   6.786  10.800 -0.0377  0.4648  0.1868
 3513TIP3    H131954   6.414   6.700  10.759  2.2040 -0.0808  1.3829
 3513TIP3    H231955   6.404   6.767  10.894  1.2802  1.5652  0.5229
 3514TIP3   OH231956   3.658   0.079   0.298  0.0305 -0.3299  0.0554
 3514TIP3    H131957   3.626   0.158   0.343 -1.7224 -2.2967  2.5281
 3514TIP3    H231958   3.749   0.071   0.327  0.5248  1.1956 -0.9281
 3515TIP3   OH231959   6.073   4.806  14.746  0.3283 -0.4815 -0.1943
 3515TIP3    H131960   6.028   4.878  14.703  0.9251 -0.0140 -0.0581
 3515TIP3    H231961   6.023   4.728  14.722 -0.3851 -0.0141 -0.2593
 3516TIP3   OH231962   3.968   3.462  12.149 -0.3117 -0.3047 -0.3125
 3516TIP3    H131963   3.953   3.367  12.145  0.9723 -0.4948 -2.0731
 3516TIP3    H231964   3.924   3.496  12.072  1.2994  0.1658 -1.0711
 3517TIP3   OH231965   6.280   4.128   3.250 -0.3963  0.0074  0.3493
 3517TIP3    H131966   6.289   4.036   3.273 -2.2967 -0.1899  0.4662
 3517TIP3    H231967   6.351   4.172   3.296  1.3109 -1.5294 -0.7147
 3518TIP3   OH231968   2.940   1.856   0.589 -0.3199  0.0885 -0.1497
 3518TIP3    H131969   2.981   1.859   0.502 -0.2643 -0.1962 -0.1353
 3518TIP3    H231970   2.972   1.775   0.628  0.9653  1.0027  0.7885
 3519TIP3   OH231971   1.299   3.376   3.012  0.4450  0.3478 -0.3944
 3519TIP3    H131972   1.339   3.443   3.068  0.7755  0.0542 -0.2745
 3519TIP3    H231973   1.369   3.314   2.995 -0.4167 -1.3107  1.5319
 3520TIP3   OH231974   3.203   0.322   1.102  0.3842 -0.5877  0.4864
 3520TIP3    H131975   3.186   0.244   1.155  0.1617  0.7311  2.4444
 3520TIP3    H231976   3.284   0.358   1.136  0.1319  0.4090  0.0785
 3521TIP3   OH231977   0.537   5.382   4.063 -0.5740  0.3200 -0.0612
 3521TIP3    H131978   0.514   5.407   4.153 -0.3461 -0.7098  0.2933
 3521TIP3    H231979   0.534   5.464   4.014 -0.8503  0.8711  0.8569
 3522TIP3   OH231980   3.929   2.035   2.875  0.3877 -0.3630 -0.6167
 3522TIP3    H131981   4.018   2.071   2.872  1.4841 -2.5382  1.5908
 3522TIP3    H231982   3.942   1.942   2.895 -2.3892 -0.6458  0.2586
 3523TIP3   OH231983   0.073   0.541   6.627  0.0944  0.2423  0.5678
 3523TIP3    H131984   0.012   0.499   6.688  1.7041 -0.6498  1.6272
 3523TIP3    H231985   0.054   0.501   6.543  0.3503 -1.3110  1.2117
 3524TIP3   OH231986   2.645   5.862   1.189  0.1524 -0.0116  0.1651
 3524TIP3    H131987   2.607   5.932   1.136  0.6081  0.9577  1.0903
 3524TIP3    H231988   2.705   5.906   1.249 -0.9505 -0.9555  2.0646
 3525TIP3   OH231989   4.511   4.240  13.708 -0.1349  0.2911 -0.4274
 3525TIP3    H131990   4.454   4.315  13.692 -0.3409  0.1587 -0.3100
 3525TIP3    H231991   4.528   4.204  13.621 -1.2980 -0.4590 -0.3664
 3526TIP3   OH231992   6.368   5.223   1.482 -0.0534  0.2412 -0.9453
 3526TIP3    H131993   6.384   5.192   1.571  1.5348 -1.0036 -1.6303
 3526TIP3    H231994   6.445   5.274   1.459 -0.8811  1.3977 -1.2964
 3527TIP3   OH231995   3.303   4.037   2.578 -0.3386 -0.3478  0.4558
 3527TIP3    H131996   3.250   3.991   2.513  1.0993 -0.3813 -0.7492
 3527TIP3    H231997   3.378   3.980   2.594  1.1350  1.1853 -0.5614
 3528TIP3   OH231998   6.768   6.272   1.253 -0.2137  0.1819  0.2115
 3528TIP3    H131999   6.692   6.320   1.220 -0.6036 -0.9451 -0.5666
 3528TIP3    H232000   6.735   6.223   1.328 -0.3045 -0.4384 -0.2281
 3529TIP3   OH232001   3.288   4.623  15.048 -0.3782  0.1893 -0.1445
 3529TIP3    H132002   3.293   4.561  15.120 -1.8585  2.0092  1.6662
 3529TIP3    H232003   3.376   4.660  15.042  0.5740 -2.0776 -1.3743
 3530TIP3   OH232004   0.692   4.096  14.898 -0.1102  0.2359 -0.4585
 3530TIP3    H132005   0.622   4.093  14.964 -0.7221 -1.0385 -1.1198
 3530TIP3    H232006   0.659   4.156  14.832 -1.1811 -1.2827 -1.3641
 3531TIP3   OH232007   1.312   2.571  16.492  0.6503 -0.2203  0.2720
 3531TIP3    H132008   1.296   2.593  16.584  1.6995 -1.6556  0.8385
 3531TIP3    H232009   1.385   2.626  16.466 -0.1826  0.7923  0.0219
 3532TIP3   OH232010   4.537   6.522   1.201  0.5762  0.2214 -0.1265
 3532TIP3    H132011   4.497   6.607   1.181  0.6071 -0.1432 -1.9535
 3532TIP3    H232012   4.572   6.532   1.289  1.1321  2.3204 -0.5181
 3533TIP3   OH232013   2.254   0.318   2.996 -0.4106  0.1653 -0.1200
 3533TIP3    H132014   2.235   0.410   2.979  0.3385 -0.1062 -2.9872
 3533TIP3    H232015   2.342   0.318   3.034  0.2634  0.5866 -1.6181
 3534TIP3   OH232016   5.317   3.773   4.019 -0.1971  0.1293 -0.0388
 3534TIP3    H132017   5.311   3.689   3.972  2.4519 -1.0767  1.5415
 3534TIP3    H232018   5.270   3.757   4.101 -1.0091  0.7514 -0.3686
 3535TIP3   OH232019   6.128   4.738   3.672 -0.1495 -0.2232 -0.7604
 3535TIP3    H132020   6.138   4.819   3.622 -0.5250 -0.2597 -0.9025
 3535TIP3    H232021   6.206   4.687   3.652  0.3823  0.3580 -0.1959
 3536TIP3   OH232022   2.408   4.775   3.458 -0.3631  0.3293  0.2027
 3536TIP3    H132023   2.391   4.853   3.405  1.2905  1.0680  0.6932
 3536TIP3    H232024   2.428   4.707   3.394  0.6686  0.9677 -0.1768
 3537TIP3   OH232025   0.537   4.793  16.070  0.0875  0.1163 -0.5088
 3537TIP3    H132026   0.601   4.833  16.129 -0.0499  0.1717 -0.3945
 3537TIP3    H232027   0.490   4.731  16.125  0.5236 -0.4485 -0.7676
 3538TIP3   OH232028   2.059   1.756   2.067 -0.1814  0.1741  0.0347
 3538TIP3    H132029   1.977   1.791   2.100  0.3086 -0.7066  2.3982
 3538TIP3    H232030   2.051   1.661   2.078  1.4245  0.1224  1.1215
 3539TIP3   OH232031   0.130   5.653   0.460 -0.0683 -0.0526 -0.3273
 3539TIP3    H132032   0.148   5.668   0.367 -0.9247 -0.0640 -0.5034
 3539TIP3    H232033   0.123   5.558   0.468  2.7033 -0.3098  0.2898
 3540TIP3   OH232034   0.129   6.315  11.172 -0.2141  0.4752 -0.4002
 3540TIP3    H132035   0.173   6.366  11.103  1.3782 -0.1184  0.1450
 3540TIP3    H232036   0.122   6.376  11.245  0.5765  0.2946 -0.1674
 3541TIP3   OH232037   2.016   2.552  16.000 -0.4005  0.4323  0.5446
 3541TIP3    H132038   2.051   2.471  16.038 -0.3893  0.3916  0.4468
 3541TIP3    H232039   1.923   2.533  15.986 -0.7112  0.9071  1.8213
 3542TIP3   OH232040   2.778   0.292   2.344 -0.4207 -0.2263  0.3030
 3542TIP3    H132041   2.762   0.354   2.273 -1.4535 -0.5533  0.2348
 3542TIP3    H232042   2.873   0.281   2.344 -0.2798  0.8248 -0.1262
 3543TIP3   OH232043   1.573   3.917  12.753  0.4179  0.1466  0.1055
 3543TIP3    H132044   1.559   3.829  12.717  0.9046  0.0913  0.0395
 3543TIP3    H232045   1.516   3.921  12.829  0.2924 -0.1811  0.0336
 3544TIP3   OH232046   1.268   5.328   4.149  0.4059 -0.6057  0.2656
 3544TIP3    H132047   1.363   5.342   4.148  0.6149 -1.8449 -1.3563
 3544TIP3    H232048   1.253   5.269   4.222  0.6618  0.7474  1.4566
 3545TIP3   OH232049   4.589   6.150   5.585 -0.8503 -0.1139  0.0866
 3545TIP3    H132050   4.607   6.103   5.667  0.5347  0.1760 -0.0250
 3545TIP3    H232051   4.628   6.095   5.517 -0.4642  0.4927 -0.1918
 3546TIP3   OH232052   3.352   5.922   6.206  0.6757  0.0500  0.0489
 3546TIP3    H132053   3.291   5.993   6.184  0.6060 -0.3674 -1.1708
 3546TIP3    H232054   3.433   5.967   6.230  0.5396  0.5558 -0.4118
 3547TIP3   OH232055   0.895   1.512  15.041 -0.0310  0.3052  0.3128
 3547TIP3    H132056   0.827   1.456  15.078 -1.1037 -0.6822 -2.9034
 3547TIP3    H232057   0.945   1.455  14.983  0.8944  1.9551 -0.5803
 3548TIP3   OH232058   1.060   2.151   2.075  0.0331  0.4303  0.0376
 3548TIP3    H132059   1.071   2.243   2.052 -0.5154  1.1646  2.3977
 3548TIP3    H232060   0.966   2.136   2.070  0.1882 -0.2767 -1.1517
 3549TIP3   OH232061   6.512   1.545  11.032  0.1923 -0.5177  0.3385
 3549TIP3    H132062   6.423   1.551  11.067  0.5313 -2.2437  1.6222
 3549TIP3    H232063   6.567   1.540  11.110  1.5399  1.5259 -0.4132
 3550TIP3   OH232064   2.987   4.257   1.936 -0.6828 -0.2420 -0.3907
 3550TIP3    H132065   2.912   4.197   1.938  1.4021 -3.0233  1.3844
 3550TIP3    H232066   3.039   4.228   1.862 -0.0555 -0.0780 -0.0202
 3551TIP3   OH232067   3.250   2.775  16.241  0.7143  0.1442 -0.0263
 3551TIP3    H132068   3.248   2.763  16.147  1.9279 -0.6050  0.0308
 3551TIP3    H232069   3.271   2.868  16.253 -0.4943  0.4975 -0.4659
 3552TIP3   OH232070   2.564   1.217  15.418  0.3419  0.1730 -0.7568
 3552TIP3    H132071   2.595   1.240  15.331 -0.2043 -0.1048 -1.0294
 3552TIP3    H232072   2.640   1.180  15.462  0.1555 -1.5044 -1.7674
 3553TIP3   OH232073   1.467   3.142  10.754 -0.2309 -0.3734  0.6540
 3553TIP3    H132074   1.463   3.048  10.736  0.5914 -0.3909  0.5220
 3553TIP3    H232075   1.385   3.162  10.798 -0.8734 -0.9585 -0.2444
 3554TIP3   OH232076   6.165   1.933   3.155 -0.3284 -0.1265 -0.5062
 3554TIP3    H132077   6.198   1.869   3.092 -2.0954 -0.1644 -1.4473
 3554TIP3    H232078   6.086   1.969   3.114 -0.2131  1.5743  0.6647
 3555TIP3   OH232079   1.904   5.647  13.353  0.5211 -0.4310 -0.6875
 3555TIP3    H132080   1.862   5.634  13.438 -1.1763  1.2885 -1.1881
 3555TIP3    H232081   1.882   5.568  13.303  0.0818 -0.7026 -0.0841
 3556TIP3   OH232082   1.186   5.050   5.286 -0.1301 -0.2672 -0.6603
 3556TIP3    H132083   1.094   5.023   5.282 -0.4033  0.6903 -1.5476
 3556TIP3    H232084   1.193   5.099   5.367 -0.0496 -1.4896  0.0945
 3557TIP3   OH232085   0.460   0.850  17.247  0.0425 -0.1971 -0.0965
 3557TIP3    H132086   0.494   0.762  17.233 -2.4759 -1.1907 -0.5097
 3557TIP3    H232087   0.469   0.893  17.162 -0.2289 -0.6465 -0.3580
 3558TIP3   OH232088   2.324   1.186  17.243 -0.5973  0.4234 -0.2437
 3558TIP3    H132089   2.397   1.133  17.275 -2.0058 -0.6460  1.3612
 3558TIP3    H232090   2.269   1.125  17.194 -0.6323  1.1343 -1.1170
 3559TIP3   OH232091   1.115   5.595   1.404 -0.6003  0.3204  0.1383
 3559TIP3    H132092   1.072   5.647   1.472 -0.1101 -0.0936  0.7693
 3559TIP3    H232093   1.102   5.646   1.323  0.4623  1.7831  0.8394
 3560TIP3   OH232094   6.072   6.378  14.864 -0.1651  0.2943  1.0124
 3560TIP3    H132095   6.158   6.394  14.825 -0.4965  1.4324  0.7038
 3560TIP3    H232096   6.082   6.296  14.913  0.3775 -1.0223 -1.1700
 3561TIP3   OH232097   3.598   2.926   1.985  1.2769 -0.3498  0.1670
 3561TIP3    H132098   3.607   2.991   2.054  1.5399 -0.2517  0.0411
 3561TIP3    H232099   3.557   2.850   2.028 -1.7843  0.8922 -0.2682
 3562TIP3   OH232100   1.466   6.424  11.598 -0.9007 -0.2355 -0.1578
 3562TIP3    H132101   1.480   6.359  11.529 -0.3692 -0.5000  0.1982
 3562TIP3    H232102   1.551   6.464  11.610 -0.9886 -0.2089  0.3697
 3563TIP3   OH232103   4.484   5.754   1.422 -0.5178  0.3049 -0.3232
 3563TIP3    H132104   4.446   5.782   1.339 -2.3871  0.3931  0.5242
 3563TIP3    H232105   4.506   5.662   1.408 -3.0924 -0.4117 -0.2308
 3564TIP3   OH232106   3.228   0.378   2.974 -0.1091 -0.4765  0.2091
 3564TIP3    H132107   3.323   0.374   2.964  0.0744  0.1162  1.5542
 3564TIP3    H232108   3.198   0.425   2.896  0.6335 -1.1055 -0.4793
 3565TIP3   OH232109   2.762   4.745   4.813 -0.2269 -0.0706 -0.5046
 3565TIP3    H132110   2.813   4.669   4.839 -0.7330  0.0729  1.0072
 3565TIP3    H232111   2.677   4.733   4.854 -0.0732  1.6640  0.4403
 3566TIP3   OH232112   1.845   2.983  14.669 -0.2014 -0.0260 -0.4656
 3566TIP3    H132113   1.798   3.059  14.703 -0.4376 -0.6173  0.5654
 3566TIP3    H232114   1.785   2.945  14.605 -0.9630 -0.5118  0.5089
 3567TIP3   OH232115   3.254   0.137   3.864 -0.6166 -0.3584  0.2986
 3567TIP3    H132116   3.284   0.205   3.804  1.1894 -1.0458  0.3712
 3567TIP3    H232117   3.159   0.150   3.868 -0.3200  2.4605  0.7003
 3568TIP3   OH232118   1.594   1.365  14.793  0.0314  0.6785 -0.1305
 3568TIP3    H132119   1.586   1.285  14.741 -1.0960  1.1476 -0.7175
 3568TIP3    H232120   1.682   1.361  14.829 -0.9678 -2.4756  2.5903
 3569TIP3   OH232121   4.631   2.661   0.290  0.2804 -0.0428  0.6091
 3569TIP3    H132122   4.635   2.597   0.361  1.0330  1.5109  2.0404
 3569TIP3    H232123   4.578   2.733   0.325  1.3799  1.1348 -0.0400
 3570TIP3   OH232124   3.667   1.361   1.780 -0.2013 -0.4278 -0.4290
 3570TIP3    H132125   3.758   1.366   1.809  0.3997  1.1467 -2.3261
 3570TIP3    H232126   3.652   1.269   1.761  1.1944 -0.6374 -0.6058
 3571TIP3   OH232127   4.027   0.850   2.392  0.1878  0.0785 -0.7815
 3571TIP3    H132128   4.039   0.756   2.409 -1.5662  0.0550  0.7491
 3571TIP3    H232129   4.082   0.894   2.457 -1.3943  0.0316  0.6655
 3572TIP3   OH232130   5.575   3.346  12.288 -0.0490 -0.0078 -0.0635
 3572TIP3    H132131   5.498   3.371  12.237 -0.3837 -1.2420 -0.2104
 3572TIP3    H232132   5.552   3.369  12.378 -0.4451 -0.0417 -0.1535
 3573TIP3   OH232133   3.094   5.629   6.604 -0.3671 -0.9073 -0.2225
 3573TIP3    H132134   3.135   5.703   6.559 -0.5621 -0.6245  0.0653
 3573TIP3    H232135   3.166   5.584   6.648 -0.3123 -0.6248 -0.0216
 3574TIP3   OH232136   1.408   5.310   1.854  0.4721 -0.3093  0.5642
 3574TIP3    H132137   1.444   5.271   1.934  3.3426  2.9264  1.0659
 3574TIP3    H232138   1.470   5.286   1.786  0.7182  0.9287  0.3302
 3575TIP3   OH232139   6.206   2.582   3.590  0.4055  0.1697  0.0315
 3575TIP3    H132140   6.149   2.649   3.552 -0.9033 -0.9720 -0.1091
 3575TIP3    H232141   6.223   2.522   3.517 -0.5773 -1.0247  0.7519
 3576TIP3   OH232142   0.009   5.140   0.282 -0.3858  0.3708 -0.0854
 3576TIP3    H132143   0.035   5.051   0.256  0.2112  0.6231 -0.3882
 3576TIP3    H232144  -0.047   5.128   0.358  1.3538 -0.1909  1.1873
 3577TIP3   OH232145   1.153   5.031  14.719  0.5045  0.4237 -0.7209
 3577TIP3    H132146   1.075   5.004  14.767 -0.7181 -0.8454 -3.2519
 3577TIP3    H232147   1.225   5.021  14.782 -0.6509 -3.4727  0.2228
 3578TIP3   OH232148   0.126   5.510   2.085  0.3162 -0.0320  0.7687
 3578TIP3    H132149   0.170   5.520   2.001  2.2501  0.8965  1.8130
 3578TIP3    H232150   0.182   5.451   2.135 -0.0743  0.4731  1.8473
 3579TIP3   OH232151   0.300   0.076   3.062 -0.5536  0.4719  0.0276
 3579TIP3    H132152   0.323   0.165   3.087 -0.1367  0.2863  0.3225
 3579TIP3    H232153   0.332   0.022   3.134 -1.8835  0.1866  0.4230
 3580TIP3   OH232154   5.078   2.971  15.197  0.6928  0.1806 -0.1054
 3580TIP3    H132155   5.135   2.899  15.170 -0.1751 -0.7508  0.4803
 3580TIP3    H232156   5.096   2.983  15.290  1.9095  1.7570 -0.4880
 3581TIP3   OH232157   3.945   1.650  10.893  0.0965  0.6148  0.1421
 3581TIP3    H132158   3.957   1.724  10.834  2.0656  1.1885  1.1753
 3581TIP3    H232159   4.016   1.589  10.871 -0.8932 -0.5226 -0.0199
 3582TIP3   OH232160   2.547   6.300   5.953  0.3348  0.0672 -0.5271
 3582TIP3    H132161   2.543   6.245   6.031  0.7171  2.3004  1.1711
 3582TIP3    H232162   2.619   6.361   5.971 -1.7655  2.8857 -1.0112
 3583TIP3   OH232163   1.233   6.567   6.255  0.2840 -0.5734  0.5478
 3583TIP3    H132164   1.224   6.562   6.350  0.7524 -0.4171  0.6040
 3583TIP3    H232165   1.144   6.578   6.222  0.2679  0.9678  1.0628
 3584TIP3   OH232166   3.037   2.517   5.756 -0.3654 -0.5358  0.3723
 3584TIP3    H132167   3.020   2.611   5.752  0.7450 -0.3450 -1.7893
 3584TIP3    H232168   3.034   2.495   5.849 -2.8450  1.1821  0.7857
 3585TIP3   OH232169   6.715   3.215   0.595  0.2504  0.6807  0.0301
 3585TIP3    H132170   6.738   3.123   0.606 -0.6780  0.3651 -0.5721
 3585TIP3    H232171   6.637   3.214   0.540 -0.8646  1.7378  1.5296
 3586TIP3   OH232172   4.326   0.162   5.731 -0.9656 -0.0577  0.0899
 3586TIP3    H132173   4.413   0.123   5.724 -0.1258  1.5005  1.2795
 3586TIP3    H232174   4.302   0.151   5.823 -2.4260 -1.1739 -0.3706
 3587TIP3   OH232175   4.817   2.397   6.486  0.4565  0.3428  0.0800
 3587TIP3    H132176   4.834   2.470   6.546  2.2797  0.1319 -0.1036
 3587TIP3    H232177   4.902   2.382   6.443 -0.8429  0.7348 -2.8560
 3588TIP3   OH232178   3.833   4.722  16.744  0.2406  0.7518  0.0522
 3588TIP3    H132179   3.873   4.645  16.705  0.9902  1.0082  0.3098
 3588TIP3    H232180   3.894   4.750  16.812 -0.0687  1.5123  0.0268
 3589TIP3   OH232181   3.984   3.619   1.762 -0.2489  0.6250 -0.0280
 3589TIP3    H132182   3.901   3.636   1.718 -0.0489  1.8894  0.0302
 3589TIP3    H232183   4.017   3.707   1.784  0.3499  0.0804  1.3337
 3590TIP3   OH232184   3.220   0.072  11.955  0.4119  0.3206 -0.6700
 3590TIP3    H132185   3.190   0.141  11.896 -0.5422 -0.2643 -0.8919
 3590TIP3    H232186   3.146   0.056  12.014  1.4828  1.1904  1.0019
 3591TIP3   OH232187   3.441   5.111  16.225 -0.0934 -0.4380  0.0930
 3591TIP3    H132188   3.365   5.077  16.272 -0.5526  0.6936  0.2014
 3591TIP3    H232189   3.407   5.183  16.172  0.6365 -0.9147 -1.0662
 3592TIP3   OH232190   3.495   1.324   0.348  0.2982  0.2048 -0.0289
 3592TIP3    H132191   3.506   1.330   0.253 -2.2113 -0.1066 -0.4121
 3592TIP3    H232192   3.518   1.411   0.380  1.0205  0.3642 -0.9216
 3593TIP3   OH232193   0.395   4.448  14.899  0.8234  0.6548 -0.1223
 3593TIP3    H132194   0.332   4.382  14.871  0.3103  1.0121  0.1785
 3593TIP3    H232195   0.457   4.454  14.826  0.1095  0.8112 -0.7314
 3594TIP3   OH232196   4.354   5.565   3.204 -0.0684 -0.2006 -0.0748
 3594TIP3    H132197   4.369   5.502   3.274 -0.1814 -1.4851 -1.1658
 3594TIP3    H232198   4.260   5.582   3.206  0.1734  1.2139  1.2431
 3595TIP3   OH232199   1.405   5.857  11.768 -0.2876  0.5860  0.3401
 3595TIP3    H132200   1.342   5.828  11.703  0.0220  0.7567 -0.0405
 3595TIP3    H232201   1.357   5.921  11.821 -0.4624  0.6476  0.1106
 3596TIP3   OH232202   3.052   4.973   0.030 -1.1411  0.3503  0.2832
 3596TIP3    H132203   3.061   5.009  -0.059  1.6795  0.3124  0.4535
 3596TIP3    H232204   3.088   5.042   0.086  2.5118 -1.7260  0.7956
 3597TIP3   OH232205   5.328   2.083  11.828  0.1836  0.0550  0.1832
 3597TIP3    H132206   5.395   2.119  11.770  0.5977 -1.5365 -0.3703
 3597TIP3    H232207   5.290   2.010  11.779  1.6317 -2.3785  2.4378
 3598TIP3   OH232208   0.221   5.276  14.520  0.1346 -0.3809 -0.1545
 3598TIP3    H132209   0.278   5.349  14.496  0.4127 -0.7067 -0.4899
 3598TIP3    H232210   0.231   5.268  14.615  2.9813 -2.3355 -0.5220
 3599TIP3   OH232211   1.460   2.811   3.275 -0.2428  0.2089 -0.6515
 3599TIP3    H132212   1.391   2.772   3.221  0.4604 -1.0950 -0.6427
 3599TIP3    H232213   1.538   2.761   3.253  0.2273  0.1741  1.0026
 3600TIP3   OH232214   5.091   4.258  17.043 -0.0582  0.7538  0.1298
 3600TIP3    H132215   5.093   4.163  17.034 -0.1094  0.8560 -1.2636
 3600TIP3    H232216   4.999   4.279  17.060  0.1577  0.4811  1.7551
 3601TIP3   OH232217   1.352   3.978  11.760 -0.1373 -0.5935 -0.1571
 3601TIP3    H132218   1.407   3.916  11.807  0.2887 -0.1421 -0.0401
 3601TIP3    H232219   1.265   3.940  11.761  0.2151 -1.4221 -0.5225
 3602TIP3   OH232220   4.859   6.563   5.558 -0.8153 -0.2145  0.3669
 3602TIP3    H132221   4.931   6.590   5.615 -1.8509 -0.0487  1.6350
 3602TIP3    H232222   4.784   6.612   5.590 -1.6160 -0.7766 -0.6070
 3603TIP3   OH232223   3.761   6.659  15.492  0.2542 -0.2021  0.4398
 3603TIP3    H132224   3.709   6.600  15.438  0.5194 -1.8597  1.9116
 3603TIP3    H232225   3.696   6.712  15.538 -0.0185 -0.0550 -0.1012
 3604TIP3   OH232226   2.817   0.919   0.007  0.5992  0.6617 -0.3220
 3604TIP3    H132227   2.722   0.908   0.007  0.6003  0.2893  1.3742
 3604TIP3    H232228   2.837   0.967  -0.073 -0.7881 -1.0071 -1.7236
 3605TIP3   OH232229   5.046   2.824  16.514 -0.0932 -0.1598 -0.3554
 3605TIP3    H132230   5.042   2.754  16.579  0.1405 -0.7442 -0.9597
 3605TIP3    H232231   5.075   2.901  16.563 -0.1763 -0.5288  0.2817
 3606TIP3   OH232232   0.039   1.440   3.120  0.1815  0.0798  0.1130
 3606TIP3    H132233   0.081   1.522   3.094  1.0518 -0.0641  0.9964
 3606TIP3    H232234   0.074   1.421   3.207  0.4651 -1.5494 -0.3136
 3607TIP3   OH232235   5.488   2.608  11.923 -0.3020  0.3336 -0.1849
 3607TIP3    H132236   5.581   2.591  11.941 -0.7712 -1.6363  0.5540
 3607TIP3    H232237   5.452   2.638  12.006 -0.5336  0.1917 -0.2335
 3608TIP3   OH232238   5.427   3.007   5.338  0.1847  0.1822  0.5724
 3608TIP3    H132239   5.419   2.933   5.398  1.2925 -1.8726 -1.6546
 3608TIP3    H232240   5.336   3.029   5.316 -0.1765 -1.7127 -0.0448
 3609TIP3   OH232241   1.648   4.975   5.605 -0.0561  0.5851 -0.0263
 3609TIP3    H132242   1.604   4.939   5.682 -1.0142  1.1023 -0.3185
 3609TIP3    H232243   1.660   4.899   5.547  0.2491  0.2820  0.4232
 3610TIP3   OH232244   2.202   4.470   2.739 -0.0462 -0.0997 -0.3068
 3610TIP3    H132245   2.167   4.414   2.807 -0.3658  0.2135 -0.2139
 3610TIP3    H232246   2.165   4.436   2.658  0.0765 -0.2699 -0.2915
 3611TIP3   OH232247   4.974   4.434  14.526  0.1591 -0.1520 -0.5452
 3611TIP3    H132248   5.044   4.438  14.462  1.2167  0.6380  0.6235
 3611TIP3    H232249   4.963   4.341  14.544  0.0589 -0.3590 -1.6282
 3612TIP3   OH232250   1.928   4.813   4.182  0.1848 -0.3916 -0.1888
 3612TIP3    H132251   1.836   4.813   4.207 -0.0186  0.8937 -0.8232
 3612TIP3    H232252   1.926   4.806   4.086  0.6622  1.0157 -0.3254
 3613TIP3   OH232253   1.597   6.583  15.956 -0.2139  0.4965  0.1529
 3613TIP3    H132254   1.685   6.547  15.956 -0.7746 -0.9885  0.3550
 3613TIP3    H232255   1.603   6.663  15.905  1.2214  0.3719  0.0864
 3614TIP3   OH232256   5.240   3.634  13.168 -0.6805 -0.0595  0.6918
 3614TIP3    H132257   5.310   3.693  13.197 -0.7380  2.5385 -3.6221
 3614TIP3    H232258   5.162   3.664  13.215  0.1562  0.2050  1.9659
 3615TIP3   OH232259   3.292   1.490  15.164 -0.4026 -0.4608  0.3406
 3615TIP3    H132260   3.217   1.429  15.164 -0.1356 -0.8332  2.1212
 3615TIP3    H232261   3.368   1.434  15.153 -0.2699 -0.2715  0.2948
 3616TIP3   OH232262   4.866   5.821   4.456 -0.6728 -0.0768  0.0904
 3616TIP3    H132263   4.868   5.916   4.453  0.7851 -0.0637  0.7178
 3616TIP3    H232264   4.848   5.795   4.365  0.6425  0.7862 -0.4489
 3617TIP3   OH232265   4.037   4.490  13.679 -0.4186  0.2893 -0.0731
 3617TIP3    H132266   4.010   4.480  13.770  0.2574 -0.9274  0.0218
 3617TIP3    H232267   4.027   4.583  13.660  0.4060  0.7452  1.5757
 3618TIP3   OH232268   2.146   1.821   2.765  0.3776 -0.0560  0.3144
 3618TIP3    H132269   2.214   1.797   2.829  0.1938 -0.1702  0.4678
 3618TIP3    H232270   2.186   1.803   2.680  0.6149  0.0723  0.3979
 3619TIP3   OH232271   6.143   3.219  16.244  0.4842 -0.3913 -0.3233
 3619TIP3    H132272   6.134   3.179  16.330  1.0050 -1.3413 -0.6913
 3619TIP3    H232273   6.206   3.290  16.256  1.9626 -1.6566 -0.2506
 3620TIP3   OH232274   6.096   2.193  15.838 -0.4933 -0.0190  0.3159
 3620TIP3    H132275   6.082   2.187  15.932 -0.5902 -2.8957  0.1874
 3620TIP3    H232276   6.186   2.165  15.825 -0.6681 -0.2299 -0.5031
 3621TIP3   OH232277   1.097   2.816   4.780  0.0704 -0.1479  0.2536
 3621TIP3    H132278   1.148   2.896   4.792 -1.7242  0.9100  1.3565
 3621TIP3    H232279   1.136   2.753   4.840 -1.5955  1.5292  3.3188
 3622TIP3   OH232280   2.585   1.484  17.072 -0.2529  0.2441  0.1089
 3622TIP3    H132281   2.659   1.501  17.130 -0.7798  2.0736  0.2980
 3622TIP3    H232282   2.546   1.404  17.105  1.8707 -1.0064 -0.2497
 3623TIP3   OH232283   1.157   0.867   1.952 -0.1649  0.3201  0.3801
 3623TIP3    H132284   1.186   0.778   1.969 -1.8842 -0.0960  1.2461
 3623TIP3    H232285   1.148   0.906   2.038  3.1918  2.3066  0.0474
 3624TIP3   OH232286   2.065   6.107   4.413  0.1922  0.0344  0.1813
 3624TIP3    H132287   2.135   6.170   4.395  0.1801 -0.2320 -0.8406
 3624TIP3    H232288   2.018   6.146   4.487 -1.4727  2.6788 -2.0612
 3625TIP3   OH232289   6.097   5.201  11.378  0.0963 -0.0353  0.4349
 3625TIP3    H132290   6.031   5.218  11.310 -0.9387  1.6492  1.7907
 3625TIP3    H232291   6.176   5.244  11.346 -0.0420 -0.2616 -0.2332
 3626TIP3   OH232292   1.267   5.191   5.557 -0.1708 -0.4242  0.5018
 3626TIP3    H132293   1.254   5.110   5.606 -1.1512 -0.4167  0.2717
 3626TIP3    H232294   1.362   5.205   5.558  0.0439 -1.7665  0.2291
 3627TIP3   OH232295   2.998   5.275  15.208  0.0764  0.9807  0.1536
 3627TIP3    H132296   3.064   5.330  15.167 -0.1898  0.8423 -0.4644
 3627TIP3    H232297   3.047   5.206  15.252  0.2958 -0.9519 -2.8491
 3628TIP3   OH232298   1.884   5.569   0.168  0.2156  0.1514 -0.2888
 3628TIP3    H132299   1.927   5.485   0.186 -0.3028 -0.0356  0.1056
 3628TIP3    H232300   1.919   5.628   0.235 -1.0024 -0.3037  0.7957
 3629TIP3   OH232301   0.798   6.328  14.677 -0.9107 -0.1148  0.3281
 3629TIP3    H132302   0.761   6.269  14.743 -0.0379 -0.9525  0.0884
 3629TIP3    H232303   0.738   6.319  14.602 -0.2027 -1.5683 -0.1052
 3630TIP3   OH232304   5.572   6.747   3.800  0.0485 -0.5015  0.1172
 3630TIP3    H132305   5.572   6.652   3.817 -0.7543 -0.3697  0.9339
 3630TIP3    H232306   5.486   6.764   3.763  0.3435 -0.1409 -0.4176
 3631TIP3   OH232307   4.248   0.090  11.536  0.0889 -0.0416 -0.5097
 3631TIP3    H132308   4.264   0.101  11.630 -1.6534 -1.1733 -0.0296
 3631TIP3    H232309   4.186   0.017  11.531  1.2755 -0.9926 -2.6543
 3632TIP3   OH232310   4.839   4.178  13.941  0.3787 -0.0052  0.0096
 3632TIP3    H132311   4.814   4.086  13.949 -0.2389  0.1219 -0.3973
 3632TIP3    H232312   4.756   4.226  13.946  0.3959  0.3653 -2.3532
 3633TIP3   OH232313   2.014   0.421   1.629 -0.2544  0.2492  0.2820
 3633TIP3    H132314   2.084   0.369   1.590  0.5377  0.9167  0.7779
 3633TIP3    H232315   2.057   0.502   1.657 -1.4000  1.0275 -0.1628
 3634TIP3   OH232316   0.022   3.816  12.312  0.4950 -0.7311  0.6199
 3634TIP3    H132317   0.094   3.805  12.250  0.0680 -0.1398  0.0190
 3634TIP3    H232318  -0.035   3.882  12.273 -1.5861 -2.7663 -0.0118
 3635TIP3   OH232319   2.621   3.456  13.880  0.6887 -0.4915 -0.6145
 3635TIP3    H132320   2.695   3.516  13.869  0.6566 -0.6099 -1.5777
 3635TIP3    H232321   2.592   3.471  13.970  1.4190  0.0852 -0.4564
 3636TIP3   OH232322   3.595   2.761  12.630 -0.6307 -0.1386  0.0428
 3636TIP3    H132323   3.671   2.800  12.587 -1.3391  0.8348 -0.3725
 3636TIP3    H232324   3.520   2.795  12.582 -1.3937  0.0105  1.2817
 3637TIP3   OH232325   6.469   0.931  13.248 -0.4273 -0.0956 -0.2118
 3637TIP3    H132326   6.457   0.866  13.317  2.2557 -0.6184 -0.1506
 3637TIP3    H232327   6.523   0.999  13.288  0.6843 -0.1200 -1.5919
 3638TIP3   OH232328   4.012   3.012  11.639 -0.1573  0.0529 -0.0311
 3638TIP3    H132329   3.940   3.058  11.681 -1.2356 -3.3876  2.1937
 3638TIP3    H232330   4.069   2.984  11.710  1.0613 -1.0809 -1.3708
 3639TIP3   OH232331   5.929   6.256  10.975  0.0076  0.1167  0.5883
 3639TIP3    H132332   5.843   6.215  10.968  0.4292 -1.1605  2.1586
 3639TIP3    H232333   5.944   6.263  11.070  1.2223  1.2070  0.3381
 3640TIP3   OH232334   1.633   0.825  14.128  0.2413  0.2248  1.2154
 3640TIP3    H132335   1.660   0.795  14.041 -0.3257  0.2754  1.0194
 3640TIP3    H232336   1.642   0.920  14.125  0.3382  0.2170  1.2534
 3641TIP3   OH232337   1.340   1.327  11.883  0.2245 -0.4251  0.7764
 3641TIP3    H132338   1.373   1.405  11.927 -1.0386 -0.6826  2.2152
 3641TIP3    H232339   1.250   1.348  11.860  0.4320 -0.8161 -0.4721
 3642TIP3   OH232340   1.077   5.822   2.992  0.5153 -0.4867  0.3316
 3642TIP3    H132341   1.112   5.790   3.075  0.7526  0.3303  0.5618
 3642TIP3    H232342   1.014   5.890   3.017  0.3945 -0.4157 -0.1480
 3643TIP3   OH232343   0.279   2.077   2.217  0.2139  0.8754 -0.4617
 3643TIP3    H132344   0.268   2.122   2.133 -4.8037  2.9577  0.9302
 3643TIP3    H232345   0.268   2.146   2.282 -0.2248 -1.2656  1.8829
 3644TIP3   OH232346   3.752   0.299  11.216  0.1461 -0.3904  0.0210
 3644TIP3    H132347   3.841   0.328  11.239  0.9969 -1.8805 -1.1786
 3644TIP3    H232348   3.704   0.305  11.299  1.5905 -0.3472  0.9108
 3645TIP3   OH232349   1.216   3.207   1.863 -0.0453 -0.0725  0.4447
 3645TIP3    H132350   1.260   3.259   1.930  1.1999 -1.6723  0.9455
 3645TIP3    H232351   1.249   3.118   1.876 -2.0663 -1.0133 -0.3752
 3646TIP3   OH232352   1.947   5.393   2.869  0.1261  0.0478 -0.1570
 3646TIP3    H132353   1.926   5.346   2.949  0.6691  0.1762  0.0655
 3646TIP3    H232354   2.042   5.380   2.858 -0.1068 -0.8322 -1.3303
 3647TIP3   OH232355   5.967   3.763   1.299  0.2680  0.4056  0.4338
 3647TIP3    H132356   5.974   3.856   1.278 -0.5963  0.3043 -0.3470
 3647TIP3    H232357   6.057   3.735   1.315  0.5731  1.2850  0.2709
 3648TIP3   OH232358   4.419   1.990  15.652 -0.3396 -0.4226  0.7284
 3648TIP3    H132359   4.331   1.953  15.660 -0.4261 -0.2221  0.7039
 3648TIP3    H232360   4.461   1.938  15.583 -0.0771 -1.2232  1.4592
 3649TIP3   OH232361   4.343   0.171  16.406 -0.2934 -0.1132  0.8810
 3649TIP3    H132362   4.373   0.211  16.487 -0.2949  3.1389 -0.5825
 3649TIP3    H232363   4.424   0.152  16.357 -0.2857 -2.1544  1.5802
 3650TIP3   OH232364   6.228   6.451   4.505 -0.0042 -0.2297 -0.0549
 3650TIP3    H132365   6.323   6.454   4.497  0.0828 -0.3762  0.8723
 3650TIP3    H232366   6.197   6.434   4.416  0.7552  1.4318 -0.6672
 3651TIP3   OH232367   6.541   5.689  11.187  0.0261 -0.2132  0.0139
 3651TIP3    H132368   6.549   5.689  11.091 -1.6596  0.0727 -0.1457
 3651TIP3    H232369   6.630   5.668  11.218  0.6778  0.0228 -1.5935
 3652TIP3   OH232370   1.603   1.682   2.406 -0.3766  0.6141  0.3792
 3652TIP3    H132371   1.509   1.671   2.394 -0.2762  0.2841 -0.1279
 3652TIP3    H232372   1.625   1.625   2.480 -0.3255 -0.5114 -0.4769
 3653TIP3   OH232373   2.887   6.176  11.075 -0.5067  0.1054 -0.0949
 3653TIP3    H132374   2.826   6.207  11.008 -0.6733 -0.1737 -0.0735
 3653TIP3    H232375   2.973   6.191  11.037 -0.5900  0.3100 -0.2098
 3654TIP3   OH232376   3.390   6.216   3.273 -0.2638  0.2894  0.2055
 3654TIP3    H132377   3.385   6.154   3.201 -0.1846 -0.4833  0.8462
 3654TIP3    H232378   3.328   6.182   3.338 -1.2176  1.6165  0.0351
 3655TIP3   OH232379   5.118   4.196   1.568 -0.1878  0.0568  0.6109
 3655TIP3    H132380   5.059   4.201   1.492  0.0481  0.3890  0.4489
 3655TIP3    H232381   5.070   4.240   1.638 -1.1973 -1.8236  1.1873
 3656TIP3   OH232382   3.898   4.387  16.084 -0.3636  0.1220  0.6288
 3656TIP3    H132383   3.816   4.418  16.121  0.2090  0.7776  1.3811
 3656TIP3    H232384   3.952   4.364  16.160  0.6315  0.9478  0.1995
 3657TIP3   OH232385   6.234   0.297  13.856 -0.0762  0.5810 -0.3602
 3657TIP3    H132386   6.228   0.201  13.852 -1.6070  0.6836 -1.4625
 3657TIP3    H232387   6.143   0.326  13.848  0.2969  2.1305  0.6423
 3658TIP3   OH232388   3.522   4.818  11.797  0.3711  0.2084  0.6106
 3658TIP3    H132389   3.484   4.825  11.709 -0.0773 -2.0114  0.5561
 3658TIP3    H232390   3.567   4.901  11.811 -1.2075  1.3867 -0.9142
 3659TIP3   OH232391   1.027   0.090  17.095 -0.5875  0.0371 -0.0287
 3659TIP3    H132392   1.120   0.110  17.101 -0.3480 -1.3232  1.5012
 3659TIP3    H232393   1.017   0.046  17.010  0.4381 -0.9882  0.3540
 3660TIP3   OH232394   4.775   2.598   3.522  0.2616  0.2528  0.3549
 3660TIP3    H132395   4.715   2.555   3.584  0.3713  1.8721  1.6617
 3660TIP3    H232396   4.727   2.599   3.440 -0.9072  0.1818  1.0109
 3661TIP3   OH232397   4.789   1.224   3.370  0.3606 -0.3277 -0.0168
 3661TIP3    H132398   4.883   1.206   3.372  0.4451  0.1101 -0.0025
 3661TIP3    H232399   4.777   1.282   3.295  0.3712  1.0797  1.0256
 3662TIP3   OH232400   4.782   5.901   4.730 -0.6821  0.0125  0.1980
 3662TIP3    H132401   4.815   5.912   4.641 -1.3464  1.8481  0.1418
 3662TIP3    H232402   4.858   5.912   4.787 -0.2684 -1.1018 -0.1017
 3663TIP3   OH232403   4.374   3.012  17.199 -0.3732 -0.4533  0.2342
 3663TIP3    H132404   4.415   2.974  17.276 -0.0878 -0.4298  0.0950
 3663TIP3    H232405   4.317   2.943  17.165 -1.9588  0.1520  1.5413
 3664TIP3   OH232406   5.515   5.423  11.625  0.4053 -0.1437 -0.4867
 3664TIP3    H132407   5.541   5.515  11.624  1.1833 -0.2595  1.9094
 3664TIP3    H232408   5.493   5.403  11.534  1.0363  2.1610 -1.2157
 3665TIP3   OH232409   2.907   5.207  12.568 -0.9201  0.1473 -0.3864
 3665TIP3    H132410   2.845   5.246  12.505  0.7708  0.2444 -2.0942
 3665TIP3    H232411   2.922   5.119  12.534 -0.4807 -0.0298  0.2703
 3666TIP3   OH232412   5.484   0.634   5.844 -0.2714  0.5625  0.6077
 3666TIP3    H132413   5.410   0.646   5.903  1.0387  2.6795  1.9174
 3666TIP3    H232414   5.560   0.664   5.893  1.5820 -1.7980 -0.5888
 3667TIP3   OH232415   5.631   5.364  17.010 -0.1485  0.0555 -0.1176
 3667TIP3    H132416   5.546   5.366  17.055 -0.3106 -0.0565 -0.4194
 3667TIP3    H232417   5.692   5.335  17.077 -0.3444  0.1460  0.1057
 3668TIP3   OH232418   6.195   3.520   6.271 -0.0381 -0.6402 -0.5880
 3668TIP3    H132419   6.277   3.492   6.311  0.1559  1.0202  0.2844
 3668TIP3    H232420   6.168   3.597   6.322 -0.4650  0.8040 -2.8089
 3669TIP3   OH232421   1.234   3.345  15.678 -0.1995 -0.2634 -0.0109
 3669TIP3    H132422   1.312   3.310  15.721  1.3784  2.8346 -0.0807
 3669TIP3    H232423   1.257   3.347  15.585 -0.0034  1.4421  0.0599
 3670TIP3   OH232424   0.068   0.694   1.115  0.0718 -0.2613  0.3543
 3670TIP3    H132425   0.058   0.710   1.209  0.5902 -0.9083  0.5309
 3670TIP3    H232426  -0.020   0.705   1.079 -0.3439 -1.0519  1.0813
 3671TIP3   OH232427   1.441   1.910   4.677 -0.7160  0.1766 -0.1152
 3671TIP3    H132428   1.482   1.859   4.747 -0.1267  0.6328 -0.1199
 3671TIP3    H232429   1.475   1.870   4.597 -0.9731 -0.0039 -0.1356
 3672TIP3   OH232430   6.351   3.898   0.219  0.2284 -0.5904 -0.6556
 3672TIP3    H132431   6.403   3.817   0.212 -0.0835 -0.8737  0.1086
 3672TIP3    H232432   6.395   3.960   0.161  1.4761 -0.7991  0.0120
 3673TIP3   OH232433   0.465   0.894  11.478  0.0140  0.6013 -0.2440
 3673TIP3    H132434   0.448   0.921  11.388 -0.9315  1.5971  0.2126
 3673TIP3    H232435   0.476   0.799  11.472  0.6464  0.7261 -1.4932
 3674TIP3   OH232436   1.426   1.829   3.501 -0.2071 -0.6132  0.4429
 3674TIP3    H132437   1.466   1.802   3.419 -0.0632  1.1558 -0.1049
 3674TIP3    H232438   1.483   1.898   3.535 -3.0601  2.6576 -0.8277
 3675TIP3   OH232439   4.627   6.680   4.659  0.2098 -0.6615  0.0340
 3675TIP3    H132440   4.592   6.765   4.634 -0.7399 -1.3222 -0.9475
 3675TIP3    H232441   4.603   6.621   4.588  0.8963 -1.7499  0.6639
 3676TIP3   OH232442   2.837   2.443  14.840 -0.0367 -0.0105 -0.0273
 3676TIP3    H132443   2.803   2.532  14.854 -0.0471 -0.3905  3.2017
 3676TIP3    H232444   2.925   2.456  14.806 -0.9264  1.1166 -2.1147
 3677TIP3   OH232445   1.260   5.192   4.849 -0.1106 -0.0226  0.4689
 3677TIP3    H132446   1.284   5.255   4.781  0.0745  1.3248  1.7366
 3677TIP3    H232447   1.181   5.150   4.816 -0.2959  0.9452 -0.3760
 3678TIP3   OH232448   1.907   4.869   5.024 -0.2212  0.5154 -0.0906
 3678TIP3    H132449   1.831   4.895   4.971 -2.0846 -0.7328  1.7913
 3678TIP3    H232450   1.898   4.920   5.105 -0.1092 -0.9404  0.8820
 3679TIP3   OH232451   3.475   5.430   4.651  0.0612  0.5096  0.6895
 3679TIP3    H132452   3.503   5.356   4.597  1.1895  1.0954  0.4479
 3679TIP3    H232453   3.433   5.390   4.727  1.9244 -0.4476  1.2679
 3680TIP3   OH232454   1.143   1.025  10.589  0.4405 -0.2379  0.4078
 3680TIP3    H132455   1.112   0.943  10.550 -0.0169 -1.3920  3.0022
 3680TIP3    H232456   1.234   1.033  10.559 -0.6918  0.6834 -3.3971
 3681TIP3   OH232457   6.495   6.535  14.894 -0.1728 -0.1177  0.6976
 3681TIP3    H132458   6.545   6.615  14.910 -0.4772  0.1829  0.1827
 3681TIP3    H232459   6.404   6.560  14.908 -0.2157 -0.5623  1.2494
 3682TIP3   OH232460   2.339   4.891   4.325  0.1912 -0.4685 -0.0257
 3682TIP3    H132461   2.282   4.888   4.402 -1.2554 -1.5132 -1.0904
 3682TIP3    H232462   2.289   4.938   4.259  2.1642  2.1650  0.1520
 3683TIP3   OH232463   1.095   0.508  11.803 -1.0421 -0.1385 -0.2709
 3683TIP3    H132464   1.084   0.416  11.826  1.2447 -0.6936 -1.1396
 3683TIP3    H232465   1.111   0.508  11.709  3.1980  0.5422  0.2188
 3684TIP3   OH232466   0.764   5.758  17.129 -0.3444 -0.1101  0.7368
 3684TIP3    H132467   0.723   5.844  17.122 -0.8961 -0.3894  0.4488
 3684TIP3    H232468   0.843   5.773  17.180 -1.2177  0.3116  2.0137
 3685TIP3   OH232469   6.596   5.476   3.959 -0.3396  0.4322  0.6628
 3685TIP3    H132470   6.544   5.455   4.036  0.5547 -1.3576  0.8302
 3685TIP3    H232471   6.536   5.465   3.886  0.1326 -3.9026  0.6309
 3686TIP3   OH232472   2.928   4.158   0.585  0.3640  0.2834 -0.3106
 3686TIP3    H132473   2.887   4.090   0.532 -0.6817  0.6213  0.0384
 3686TIP3    H232474   2.869   4.233   0.578  2.3220  1.7852 -2.0851
 3687TIP3   OH232475   6.062   6.729   1.730  0.2059  0.7566 -0.5970
 3687TIP3    H132476   5.993   6.788   1.697 -0.2490  0.5537 -0.0235
 3687TIP3    H232477   6.044   6.646   1.686 -0.9568  0.2238  0.7852
 3688TIP3   OH232478   4.370   6.188  17.249  0.0394  0.1515 -0.1241
 3688TIP3    H132479   4.452   6.155  17.286 -0.2509 -0.2427  0.1795
 3688TIP3    H232480   4.303   6.162  17.312 -0.2737  0.8115 -0.1774
 3689TIP3   OH232481   0.468   6.126  11.979  0.4619  0.1326  0.4400
 3689TIP3    H132482   0.480   6.184  12.055  1.6696  0.8092 -0.2404
 3689TIP3    H232483   0.548   6.137  11.928 -0.0257 -0.8689 -0.5721
 3690TIP3   OH232484   4.650   2.931   5.828  0.0148  0.1186  0.0237
 3690TIP3    H132485   4.642   3.027   5.827  0.6757  0.1764 -0.0955
 3690TIP3    H232486   4.651   2.908   5.921  0.3108  0.2683  0.0584
 3691TIP3   OH232487   0.834   2.518  15.527  0.4895 -0.3413  0.5501
 3691TIP3    H132488   0.910   2.574  15.516  0.3191 -0.3438 -0.7175
 3691TIP3    H232489   0.779   2.563  15.592 -1.0045  2.4834 -2.4144
 3692TIP3   OH232490   6.702   1.208  15.269  0.0368  0.0565  0.2420
 3692TIP3    H132491   6.680   1.296  15.239  0.6937  0.2501  0.3088
 3692TIP3    H232492   6.631   1.153  15.237  0.0578  0.4702 -0.5334
 3693TIP3   OH232493   5.389   2.058   0.649 -0.0540 -0.2159  0.0606
 3693TIP3    H132494   5.473   2.064   0.604 -0.7335  1.7020 -1.0439
 3693TIP3    H232495   5.331   2.015   0.586 -0.0813 -0.9478  0.5717
 3694TIP3   OH232496   2.492   5.015  14.088  0.0633  0.2835  0.0644
 3694TIP3    H132497   2.401   5.015  14.116  0.2039 -0.7715  0.5751
 3694TIP3    H232498   2.488   5.020  13.992 -0.5607 -0.4679  0.0428
 3695TIP3   OH232499   5.388   1.402  15.665  0.2136  0.3600  0.2358
 3695TIP3    H132500   5.353   1.367  15.584  0.0894  0.1283  0.3892
 3695TIP3    H232501   5.478   1.369  15.669 -0.0815 -0.4116  0.6582
 3696TIP3   OH232502   4.283   0.071   3.812  0.0949 -0.2398 -0.2001
 3696TIP3    H132503   4.270   0.164   3.795 -0.8807 -0.1942  0.6884
 3696TIP3    H232504   4.284   0.030   3.725 -1.8616  0.3198 -0.5210
 3697TIP3   OH232505   1.866   3.550   6.572 -0.6290  0.4468  0.4812
 3697TIP3    H132506   1.887   3.482   6.637  0.6115 -1.7415 -2.0335
 3697TIP3    H232507   1.776   3.530   6.546  0.0531 -0.9881 -0.9677
 3698TIP3   OH232508   5.011   5.437  14.031  0.0943  0.3668 -0.1018
 3698TIP3    H132509   5.016   5.495  14.107  0.2656 -0.4285  0.5051
 3698TIP3    H232510   4.917   5.424  14.018  0.0553  0.7227 -0.2070
 3699TIP3   OH232511   0.430   0.215   5.834  0.4916  0.1775  0.1495
 3699TIP3    H132512   0.495   0.146   5.826 -0.6653 -1.2169  2.0470
 3699TIP3    H232513   0.393   0.204   5.922 -0.5565  2.4866  0.0753
 3700TIP3   OH232514   4.158   6.171  13.418  0.3560  0.0726  0.2852
 3700TIP3    H132515   4.090   6.127  13.367  0.1519  1.1171 -0.3596
 3700TIP3    H232516   4.112   6.241  13.464  0.7286 -0.1965  1.0868
 3701TIP3   OH232517   0.628   2.186   2.346 -0.2094 -0.3897 -0.1137
 3701TIP3    H132518   0.567   2.250   2.310  0.7851 -0.3405 -1.8121
 3701TIP3    H232519   0.652   2.221   2.432 -2.1448 -0.1660  0.3720
 3702TIP3   OH232520   4.785   4.182  14.269  0.6419 -0.5618 -0.2798
 3702TIP3    H132521   4.785   4.269  14.309 -0.4920 -0.4932 -0.4025
 3702TIP3    H232522   4.799   4.199  14.176 -1.2159 -0.3506 -0.5584
 3703TIP3   OH232523   1.065   0.268   2.906 -0.0567  0.5925  0.0640
 3703TIP3    H132524   0.982   0.263   2.860 -1.8651 -0.2771  3.0996
 3703TIP3    H232525   1.123   0.208   2.859 -1.9518 -0.7295 -0.6847
 3704TIP3   OH232526   0.515   6.104  16.457  0.1019  0.6217 -0.4242
 3704TIP3    H132527   0.572   6.095  16.381  2.5016 -0.6449  1.3718
 3704TIP3    H232528   0.567   6.155  16.520 -1.7218  1.4745  0.4789
 3705TIP3   OH232529   3.499   1.878  16.090  0.3001 -0.2971 -0.1463
 3705TIP3    H132530   3.496   1.836  16.176  0.6634 -1.3508 -0.6357
 3705TIP3    H232531   3.544   1.961  16.105 -0.3156 -0.1189  0.8151
 3706TIP3   OH232532   1.623   3.455   5.128  0.6075  0.0630  0.2657
 3706TIP3    H132533   1.656   3.418   5.047 -0.9611 -1.3092  0.2078
 3706TIP3    H232534   1.602   3.546   5.107  0.1315 -0.3069 -0.8941
 3707TIP3   OH232535   3.272   0.052   4.779  0.2679 -0.2385  0.2330
 3707TIP3    H132536   3.256   0.058   4.873  0.4800  0.2421  0.2413
 3707TIP3    H232537   3.358   0.093   4.767  0.2295 -0.2754 -0.1717
 3708TIP3   OH232538   6.037   4.429   3.091  0.0212  0.8251 -0.0907
 3708TIP3    H132539   5.991   4.403   3.011 -0.5918 -0.4170  0.6277
 3708TIP3    H232540   6.111   4.481   3.061  0.7054 -0.9070 -1.5907
 3709TIP3   OH232541   0.376   5.610   0.751 -0.0133 -0.0231 -0.5565
 3709TIP3    H132542   0.352   5.677   0.687  0.8643  1.5188  0.6701
 3709TIP3    H232543   0.292   5.581   0.787 -0.4801 -0.5115 -1.9581
 3710TIP3   OH232544   0.595   2.805   0.964 -0.3982  0.4178 -0.2686
 3710TIP3    H132545   0.668   2.832   0.908 -0.3332  1.2192  0.1898
 3710TIP3    H232546   0.523   2.864   0.941 -0.6643  0.1377 -0.1663
 3711TIP3   OH232547   6.060   5.243   2.406  0.4252  0.3141  0.1175
 3711TIP3    H132548   6.017   5.324   2.434 -0.4537  0.2210 -0.8998
 3711TIP3    H232549   6.092   5.262   2.317 -0.2501 -0.6131 -0.3347
 3712TIP3   OH232550   4.763   6.124   5.108  0.1114  0.1377  0.2580
 3712TIP3    H132551   4.670   6.134   5.087  0.2647 -0.3953 -0.7558
 3712TIP3    H232552   4.797   6.065   5.040  0.7205 -1.5037  1.8889
 3713TIP3   OH232553   0.131   5.567   4.987 -0.4557 -0.0911 -0.4850
 3713TIP3    H132554   0.131   5.650   4.939 -1.6277 -0.3106 -0.8852
 3713TIP3    H232555   0.040   5.553   5.012 -0.3458 -1.4673 -0.7846
 3714TIP3   OH232556   4.316   4.253   4.894  0.1763 -0.4013 -0.0613
 3714TIP3    H132557   4.245   4.191   4.909 -1.0630  0.8798 -0.3433
 3714TIP3    H232558   4.395   4.200   4.891 -0.7426 -1.8495  0.4953
 3715TIP3   OH232559   4.660   0.106   2.201 -0.3539  0.1608  0.0050
 3715TIP3    H132560   4.632   0.194   2.225 -0.1203  0.4525 -0.7517
 3715TIP3    H232561   4.753   0.116   2.181 -0.0299 -0.5037  1.0855
 3716TIP3   OH232562   5.978   4.406   2.808 -0.0846 -0.1335 -0.0313
 3716TIP3    H132563   6.052   4.349   2.787  0.4199  0.5301 -0.0731
 3716TIP3    H232564   5.901   4.355   2.782  0.3794 -0.5862 -0.5490
 3717TIP3   OH232565   1.015   3.831  13.215  0.4602 -0.2126 -0.5861
 3717TIP3    H132566   1.062   3.793  13.289 -0.7517  1.2602  1.0483
 3717TIP3    H232567   1.074   3.898  13.181  0.2202  0.5567  0.4514
 3718TIP3   OH232568   3.918   0.651   2.798 -0.0820  0.0604  0.2745
 3718TIP3    H132569   3.934   0.563   2.764  2.7539  0.8589 -0.7550
 3718TIP3    H232570   3.979   0.660   2.871  0.5266  1.5246 -0.3790
 3719TIP3   OH232571   2.357   3.790   0.537  0.2662 -0.1939  0.2825
 3719TIP3    H132572   2.353   3.823   0.448 -1.0630 -1.0869 -0.0236
 3719TIP3    H232573   2.423   3.844   0.580  0.3834  0.7534 -1.0277
 3720TIP3   OH232574   2.009   6.461   4.543  0.2116 -0.0504  0.7459
 3720TIP3    H132575   2.062   6.411   4.605 -1.0189 -0.4475  1.5212
 3720TIP3    H232576   1.933   6.405   4.526 -0.1901  0.6894  0.0173
 3721TIP3   OH232577   0.928   1.774  16.420  0.2301  0.1654  0.4830
 3721TIP3    H132578   0.924   1.685  16.456 -0.7951  0.6063  1.5163
 3721TIP3    H232579   0.993   1.819  16.474  1.0011 -0.0352 -0.2582
 3722TIP3   OH232580   6.461   4.511   6.513 -0.1037  0.3029  0.3779
 3722TIP3    H132581   6.552   4.537   6.522 -0.0756  1.0633 -1.5946
 3722TIP3    H232582   6.452   4.434   6.570  1.9835 -0.2848 -0.0164
 3723TIP3   OH232583   5.996   6.381   3.433  0.4254  0.5299  0.0520
 3723TIP3    H132584   5.972   6.335   3.353  0.4037  1.4215 -0.4724
 3723TIP3    H232585   6.010   6.472   3.405  1.4942  0.6345  0.8629
 3724TIP3   OH232586   4.916   5.652   1.090  0.5927 -0.1301 -0.1772
 3724TIP3    H132587   4.997   5.600   1.090  0.6525 -0.0418 -0.4972
 3724TIP3    H232588   4.915   5.695   1.175 -0.0681 -1.6006  0.5986
 3725TIP3   OH232589   3.282   6.367   2.660 -0.2504 -0.8058  0.0868
 3725TIP3    H132590   3.339   6.436   2.628  0.2226 -1.5779 -0.7719
 3725TIP3    H232591   3.316   6.348   2.748  1.1469 -1.5826 -0.5873
 3726TIP3   OH232592   6.615   5.578  12.636  0.2820 -0.6091 -0.0081
 3726TIP3    H132593   6.625   5.661  12.589 -1.0723 -1.0687 -1.1915
 3726TIP3    H232594   6.523   5.555  12.624  0.0308 -1.1018  2.3480
 3727TIP3   OH232595   1.714   6.135  11.762 -0.0061 -0.9498 -0.2820
 3727TIP3    H132596   1.676   6.091  11.838 -0.3471 -1.4209 -0.7247
 3727TIP3    H232597   1.710   6.228  11.785  1.9347 -1.1739  1.2227
 3728TIP3   OH232598   3.528   2.027  16.404 -0.1500  0.1750 -0.6608
 3728TIP3    H132599   3.482   2.026  16.488  0.0757 -0.8004 -0.5299
 3728TIP3    H232600   3.573   1.942  16.401  1.0120  0.7836 -1.1332
 3729TIP3   OH232601   0.398   3.183   2.165  0.1340 -0.0912  0.0780
 3729TIP3    H132602   0.418   3.150   2.077 -0.1226  0.0764 -0.0465
 3729TIP3    H232603   0.326   3.127   2.195 -0.3820  0.4216 -0.1807
 3730TIP3   OH232604   5.639   2.839   3.102  0.4488  0.2748  0.0689
 3730TIP3    H132605   5.651   2.933   3.095 -0.0367  0.4941  1.7272
 3730TIP3    H232606   5.721   2.802   3.070  0.5668  1.2374 -0.7845
 3731TIP3   OH232607   5.041   0.406   3.923 -0.0317  0.3888  0.1774
 3731TIP3    H132608   5.111   0.399   3.989  0.1029 -1.8069 -0.1512
 3731TIP3    H232609   5.030   0.318   3.889 -2.8949  0.6694  0.1053
 3732TIP3   OH232610   1.800   6.786  16.915  0.0640 -0.0276  0.8328
 3732TIP3    H132611   1.762   6.792  16.827 -0.6148  0.5529  1.1548
 3732TIP3    H232612   1.877   6.842  16.911 -0.9141  1.3969  1.0683
 3733TIP3   OH232613   2.832   5.881  16.326 -0.1217 -0.4065  0.4722
 3733TIP3    H132614   2.882   5.873  16.245 -0.7371 -1.8077  0.1957
 3733TIP3    H232615   2.892   5.854  16.395 -0.0551 -0.6909  0.3036
 3734TIP3   OH232616   6.244   5.216   0.862  0.0254 -0.3278  0.4842
 3734TIP3    H132617   6.261   5.194   0.954 -3.9138 -1.9945  1.0208
 3734TIP3    H232618   6.157   5.257   0.863 -1.5456 -3.1526 -2.7120
 3735TIP3   OH232619   5.475   1.996  12.550 -0.5376  0.3701  0.2270
 3735TIP3    H132620   5.455   2.047  12.629  1.1563 -0.7198  1.4261
 3735TIP3    H232621   5.565   1.967  12.562 -1.0585 -1.9698 -0.9127
 3736TIP3   OH232622   2.007   2.137   1.517 -0.1088 -0.2191 -0.9388
 3736TIP3    H132623   2.078   2.089   1.560  1.4411  2.5412 -0.1362
 3736TIP3    H232624   2.038   2.148   1.427 -0.0912 -0.0634 -0.9135
 3737TIP3   OH232625   2.917   0.608  13.707  0.1705  0.5382 -0.0421
 3737TIP3    H132626   2.969   0.688  13.697  0.4487  0.5357  1.2286
 3737TIP3    H232627   2.866   0.623  13.787  0.8837 -0.8974  0.7128
 3738TIP3   OH232628   4.191   4.863  13.101  0.0468 -0.6779 -0.0407
 3738TIP3    H132629   4.198   4.878  13.007 -0.3810  0.3784  0.0859
 3738TIP3    H232630   4.113   4.809  13.112 -2.3212  2.4740 -0.0237
 3739TIP3   OH232631   5.953   1.468   0.812  0.8416  0.0790 -0.1461
 3739TIP3    H132632   6.038   1.470   0.857  0.2068  0.2148  1.0969
 3739TIP3    H232633   5.889   1.487   0.881 -0.2201 -0.2044 -1.0248
 3740TIP3   OH232634   1.922   0.457   5.033 -0.2072 -0.1372  0.2862
 3740TIP3    H132635   2.010   0.419   5.028 -0.6997 -1.1562 -1.6089
 3740TIP3    H232636   1.932   0.545   4.997  0.1629  0.0443  0.8113
 3741TIP3   OH232637   3.077   4.499  11.981  0.3087 -0.0613 -0.7046
 3741TIP3    H132638   3.076   4.465  11.892 -0.7085 -0.3457 -0.5897
 3741TIP3    H232639   3.086   4.422  12.037 -2.1635 -0.2226 -0.4365
 3742TIP3   OH232640   5.480   4.135   2.152 -0.3489 -0.2892  0.2459
 3742TIP3    H132641   5.387   4.110   2.149 -1.1266  2.0867  1.6215
 3742TIP3    H232642   5.527   4.052   2.160 -2.1027 -1.8083 -2.8875
 3743TIP3   OH232643   2.975   6.327   1.718 -0.6415  0.0017 -0.2697
 3743TIP3    H132644   2.885   6.323   1.749 -0.4659 -0.1926  0.2122
 3743TIP3    H232645   2.967   6.324   1.622 -1.2120  1.1289 -0.2817
 3744TIP3   OH232646   2.129   2.596   5.476 -0.0047  0.0244 -0.1663
 3744TIP3    H132647   2.094   2.664   5.534 -0.9772 -1.2915  0.8556
 3744TIP3    H232648   2.189   2.643   5.419 -0.5044  1.7179  0.6093
 3745TIP3   OH232649   2.360   1.016   3.895 -0.3458  0.1717 -0.1547
 3745TIP3    H132650   2.312   0.938   3.869  0.7488 -0.0368 -1.7013
 3745TIP3    H232651   2.333   1.083   3.831  1.9892 -0.1938 -1.6348
 3746TIP3   OH232652   1.557   0.005  11.874  0.0261  0.3311 -0.3040
 3746TIP3    H132653   1.560  -0.076  11.925  0.5227  1.0371  0.8228
 3746TIP3    H232654   1.495  -0.014  11.803 -1.3894 -0.4049  1.0579
 3747TIP3   OH232655   6.203   0.438  14.137  0.6617 -0.7479  0.2112
 3747TIP3    H132656   6.273   0.492  14.101 -0.0534  0.2591  0.2911
 3747TIP3    H232657   6.129   0.451  14.077 -0.3407  0.4453  1.6091
 3748TIP3   OH232658   4.317   5.867   5.523  0.4067  1.1079  0.4129
 3748TIP3    H132659   4.294   5.947   5.570 -0.7662  2.0726 -1.6824
 3748TIP3    H232660   4.274   5.797   5.572 -0.0939  1.9634  1.2302
 3749TIP3   OH232661   2.998   6.126   2.329  0.0480  0.0352 -0.0873
 3749TIP3    H132662   3.080   6.154   2.371  0.1954  0.5580 -0.7043
 3749TIP3    H232663   2.929   6.158   2.387  0.2176  1.6101 -0.7220
 3750TIP3   OH232664   3.112   4.442   3.000 -0.1483  0.2351 -0.4670
 3750TIP3    H132665   3.077   4.375   3.059  1.5622  0.3059  0.6817
 3750TIP3    H232666   3.041   4.457   2.937 -1.5172 -0.8203  0.7472
 3751TIP3   OH232667   2.370   4.254   0.068  0.2764 -0.2761 -0.0015
 3751TIP3    H132668   2.422   4.332   0.046  0.5881 -1.1472 -2.6116
 3751TIP3    H232669   2.280   4.278   0.047  0.3138 -0.4609 -0.3798
 3752TIP3   OH232670   6.675   2.440   1.120  0.4090 -0.0886 -0.0274
 3752TIP3    H132671   6.696   2.418   1.029 -2.2460 -0.3712 -0.6671
 3752TIP3    H232672   6.677   2.536   1.122 -2.3371  0.0945 -1.2737
 3753TIP3   OH232673   5.595   0.265   2.456  0.2700 -0.4024  0.0975
 3753TIP3    H132674   5.509   0.222   2.452  0.5494 -0.9461 -0.2055
 3753TIP3    H232675   5.610   0.295   2.366  0.0727  0.3582  0.3070
 3754TIP3   OH232676   5.778   2.948  15.170 -0.0023  0.6229  0.0244
 3754TIP3    H132677   5.837   3.023  15.169 -0.7519  1.3596  2.4810
 3754TIP3    H232678   5.831   2.875  15.203  0.6840  0.0351 -2.2148
 3755TIP3   OH232679   0.235   2.466   2.015  0.2357  0.0148 -0.5101
 3755TIP3    H132680   0.281   2.383   2.005  0.4691  0.2587 -1.6930
 3755TIP3    H232681   0.290   2.517   2.074  0.0853 -0.6660  0.2320
 3756TIP3   OH232682   0.229   4.021  16.405 -0.1186 -0.6632  0.3031
 3756TIP3    H132683   0.200   3.998  16.494 -1.8140 -1.8217 -0.4882
 3756TIP3    H232684   0.166   3.977  16.348  0.5214  0.6279 -1.4744
 3757TIP3   OH232685   0.073   1.980  16.366 -0.0155 -0.9401  0.3724
 3757TIP3    H132686   0.163   1.996  16.394 -0.1176 -0.1300  0.2577
 3757TIP3    H232687   0.019   2.022  16.434 -0.2746  0.8241 -0.8630
 3758TIP3   OH232688   6.168   0.200  11.516  0.9254 -0.2032 -0.1266
 3758TIP3    H132689   6.074   0.199  11.498  1.2852  1.8798 -2.8102
 3758TIP3    H232690   6.179   0.258  11.590  0.2020  1.2511 -1.1223
 3759TIP3   OH232691   1.558   1.136  13.963  0.1050  0.2933  0.2039
 3759TIP3    H132692   1.586   1.122  14.054  1.6657  0.6402 -0.1888
 3759TIP3    H232693   1.468   1.104  13.960  1.1969 -3.2335  0.9938
 3760TIP3   OH232694   5.592   3.424  15.857 -0.0607 -0.0841  0.3397
 3760TIP3    H132695   5.605   3.357  15.924  1.0914 -0.6520 -0.4175
 3760TIP3    H232696   5.677   3.429  15.812  0.2872  2.7520  1.1415
 3761TIP3   OH232697   6.482   3.043   3.510  0.3801  0.3302 -0.2112
 3761TIP3    H132698   6.443   3.114   3.460  0.0441  0.0045 -0.4163
 3761TIP3    H232699   6.466   3.067   3.602 -0.0971  0.3162 -0.2893
 3762TIP3   OH232700   4.742   0.886  11.388 -0.2227 -0.0044 -0.4424
 3762TIP3    H132701   4.802   0.849  11.323 -0.2083 -2.4184  0.7980
 3762TIP3    H232702   4.746   0.980  11.375  1.3592 -0.2956 -2.5240
 3763TIP3   OH232703   2.872   3.634   0.225 -0.5137  0.1160  0.2923
 3763TIP3    H132704   2.874   3.578   0.147  1.4753  0.5133  0.0065
 3763TIP3    H232705   2.941   3.599   0.281 -1.3691  0.3586  1.5209
 3764TIP3   OH232706   6.497   0.967   2.860 -0.4310  0.1595 -0.1348
 3764TIP3    H132707   6.443   1.043   2.840 -0.3932  0.4598  0.8804
 3764TIP3    H232708   6.445   0.915   2.921  0.2876  0.2883  0.6009
 3765TIP3   OH232709   6.366   3.276   2.196  0.0824  0.3869  0.1689
 3765TIP3    H132710   6.388   3.256   2.287 -1.8727  1.1429  0.8531
 3765TIP3    H232711   6.410   3.359   2.179  0.6823  0.1080  0.3181
 3766TIP3   OH232712   1.822   3.662   4.233 -0.2817  0.4613 -0.2635
 3766TIP3    H132713   1.855   3.730   4.292 -2.5199 -0.0782  1.7539
 3766TIP3    H232714   1.848   3.580   4.273  0.3097  0.0588 -1.4128
 3767TIP3   OH232715   6.725   3.245  16.732 -0.2772  0.0843 -0.7177
 3767TIP3    H132716   6.750   3.248  16.640 -0.0097  0.2939 -0.6440
 3767TIP3    H232717   6.737   3.154  16.758 -2.3370 -0.4143 -1.4068
 3768TIP3   OH232718   2.626   3.788  14.021  1.2556  0.3603 -0.2148
 3768TIP3    H132719   2.673   3.761  14.100 -0.8424 -1.2902  0.5517
 3768TIP3    H232720   2.586   3.872  14.044  0.1660 -0.3904  0.7429
 3769TIP3   OH232721   3.634   1.021  16.772 -0.5690  0.0277 -0.1654
 3769TIP3    H132722   3.644   0.929  16.750 -0.4448  0.2107 -0.9115
 3769TIP3    H232723   3.722   1.058  16.761 -0.3983  0.0443  1.1072
 3770TIP3   OH232724   4.367   0.438  14.647 -0.1277  0.4835  0.1092
 3770TIP3    H132725   4.430   0.508  14.631  0.4165  0.0305  0.2642
 3770TIP3    H232726   4.304   0.476  14.709  0.1485  0.8423  0.1700
 3771TIP3   OH232727   5.223   2.467  12.123 -0.0079  0.0456  0.8543
 3771TIP3    H132728   5.169   2.392  12.147  1.7140 -0.7838  2.4959
 3771TIP3    H232729   5.232   2.462  12.028 -1.4722 -0.6950  0.7333
 3772TIP3   OH232730   5.467   2.286  11.697 -0.0646 -0.1845  0.7423
 3772TIP3    H132731   5.458   2.291  11.602  1.1106  0.6793  0.6452
 3772TIP3    H232732   5.562   2.280  11.712  0.2836  4.2565  1.9050
 3773TIP3   OH232733   6.540   3.269   4.407  0.3476  1.0700 -0.3015
 3773TIP3    H132734   6.457   3.225   4.389  1.4492 -0.5522 -1.7039
 3773TIP3    H232735   6.579   3.219   4.478  0.3151  1.5754  0.0739
 3774TIP3   OH232736   3.129   1.976  14.007  0.2307  0.0883 -0.4839
 3774TIP3    H132737   3.124   2.025  14.089  0.7289  0.1280 -0.4731
 3774TIP3    H232738   3.209   1.923  14.015 -0.3709 -0.8407 -0.4311
 3775TIP3   OH232739   2.430   5.222  16.960 -0.1177 -0.2727 -0.3314
 3775TIP3    H132740   2.351   5.174  16.936  0.7924 -1.4899 -1.0066
 3775TIP3    H232741   2.416   5.247  17.051 -1.6161  0.2697 -0.6745
 3776TIP3   OH232742   3.128   1.462  17.229 -0.7594  0.0822  0.3542
 3776TIP3    H132743   3.154   1.371  17.236 -0.9867  0.1100  1.8523
 3776TIP3    H232744   3.100   1.486  17.318  1.5111  2.2710  0.5922
 3777TIP3   OH232745   1.414   2.154  15.082 -0.5340  0.6033 -0.0439
 3777TIP3    H132746   1.392   2.100  15.157 -1.4123 -0.8641 -1.3042
 3777TIP3    H232747   1.421   2.243  15.117  0.8491 -0.2572  2.0719
 3778TIP3   OH232748   3.420   1.048   3.060  0.1382  0.2617  0.0149
 3778TIP3    H132749   3.334   1.089   3.068 -0.7391 -1.5437  0.3893
 3778TIP3    H232750   3.428   1.027   2.967  0.2447  0.5704 -0.0461
 3779TIP3   OH232751   1.292   1.880  14.207  0.3046 -1.1541  0.6814
 3779TIP3    H132752   1.274   1.844  14.294  0.1330 -1.4653  0.5192
 3779TIP3    H232753   1.272   1.808  14.147 -1.2420 -0.3994  0.2493
 3780TIP3   OH232754   2.310   6.628   0.996  0.6298 -0.6263  0.0638
 3780TIP3    H132755   2.248   6.700   0.978  1.3430 -0.0880 -0.2710
 3780TIP3    H232756   2.310   6.576   0.916  1.5774  0.1089 -0.4344
 3781TIP3   OH232757   0.386   0.603   5.596  0.1574 -0.2270  0.2741
 3781TIP3    H132758   0.423   0.690   5.582 -0.4803  0.1765  1.0219
 3781TIP3    H232759   0.421   0.575   5.680 -0.8536 -0.0324  0.7734
 3782TIP3   OH232760   2.070   3.877  15.214 -0.0125  0.0211  0.1110
 3782TIP3    H132761   2.040   3.924  15.136  0.0750 -0.7936 -0.4257
 3782TIP3    H232762   2.017   3.798  15.216  0.6502 -0.4266  0.3305
 3783TIP3   OH232763   5.938   2.340  16.648 -0.0661 -0.0268 -0.1003
 3783TIP3    H132764   5.903   2.252  16.633 -1.0875 -0.0214  1.8995
 3783TIP3    H232765   5.974   2.337  16.736  4.2600  0.2847 -1.6178
 3784TIP3   OH232766   4.445   2.782   0.452 -0.1720 -0.3924 -0.0260
 3784TIP3    H132767   4.375   2.728   0.490  1.9756 -2.0980  1.7341
 3784TIP3    H232768   4.481   2.831   0.527 -0.9182  2.2944 -1.2944
 3785TIP3   OH232769   1.102   6.619   5.823  0.0252  0.0054 -0.8540
 3785TIP3    H132770   1.026   6.641   5.877  0.8662  2.7448 -0.6553
 3785TIP3    H232771   1.070   6.627   5.733 -0.1746  0.1202 -0.7730
 3786TIP3   OH232772   2.308   0.029  14.063 -0.1757  0.3063 -0.2946
 3786TIP3    H132773   2.352   0.058  13.984  0.5458  0.5630  0.1913
 3786TIP3    H232774   2.227  -0.012  14.032 -0.2289  1.0103 -1.1130
 3787TIP3   OH232775   1.046   5.790  15.839  0.5155  0.7597 -0.9126
 3787TIP3    H132776   1.035   5.782  15.933 -1.1814  0.0060 -1.1416
 3787TIP3    H232777   0.991   5.864  15.814 -1.6302 -0.9988 -1.6809
 3788TIP3   OH232778   1.147   5.730   0.417 -0.7982 -0.0882  0.3575
 3788TIP3    H132779   1.058   5.736   0.383 -0.6133 -0.3334 -0.1764
 3788TIP3    H232780   1.169   5.637   0.410  0.1518  0.2253 -1.2261
 3789TIP3   OH232781   3.640   2.624   1.486  0.5499 -0.0168 -0.5254
 3789TIP3    H132782   3.596   2.577   1.415 -0.4420  1.0980 -0.6895
 3789TIP3    H232783   3.656   2.557   1.553  0.9971 -0.9677 -1.5663
 3790TIP3   OH232784   3.727   6.007   4.274  0.6454  0.2695 -0.2203
 3790TIP3    H132785   3.795   6.056   4.227  1.9041 -0.6584  0.5723
 3790TIP3    H232786   3.735   6.037   4.365 -0.0742  0.2194 -0.1378
 3791TIP3   OH232787   3.917   0.171  14.873 -0.0285 -0.0214 -0.4967
 3791TIP3    H132788   3.826   0.148  14.891 -0.2096 -0.6516 -2.1354
 3791TIP3    H232789   3.913   0.258  14.834  0.0300 -0.2697 -1.0555
 3792TIP3   OH232790   6.620   3.129   4.635  0.3375 -0.3402 -0.0233
 3792TIP3    H132791   6.544   3.129   4.693 -0.1065  0.3295 -0.6055
 3792TIP3    H232792   6.693   3.156   4.691 -0.3449  1.7792 -0.0990
 3793TIP3   OH232793   1.430   2.106   0.819  0.3079 -0.5453  0.1048
 3793TIP3    H132794   1.416   2.124   0.726  0.4116 -1.0746 -0.0199
 3793TIP3    H232795   1.477   2.182   0.852  0.3741 -0.4078 -0.3055
 3794TIP3   OH232796   2.921   3.258   2.940 -0.8331 -0.0454 -0.3004
 3794TIP3    H132797   2.941   3.169   2.971 -0.1177  0.2418  0.0920
 3794TIP3    H232798   2.854   3.290   3.000 -1.1369 -0.3386 -0.4790
 3795TIP3   OH232799   4.497   2.086   1.646  0.2858  0.4036  0.2547
 3795TIP3    H132800   4.528   2.176   1.652 -0.8439  0.7738  0.8075
 3795TIP3    H232801   4.490   2.057   1.737 -0.3518  0.1179  0.1183
 3796TIP3   OH232802   2.740   3.820   2.392  0.5686  0.3240 -0.3688
 3796TIP3    H132803   2.731   3.730   2.361  1.7128 -0.1629  0.6261
 3796TIP3    H232804   2.807   3.815   2.461  1.7765  2.1855 -1.3339
 3797TIP3   OH232805   0.449   5.052   1.816 -0.2810  0.3792  0.2210
 3797TIP3    H132806   0.374   5.006   1.779  0.4117  0.1341 -0.9186
 3797TIP3    H232807   0.445   5.140   1.778  0.2676  0.2195 -0.2103
 3798TIP3   OH232808   0.558   2.999  13.868 -0.0962 -0.3335  0.2627
 3798TIP3    H132809   0.535   3.087  13.897  0.7309 -0.3517  1.0351
 3798TIP3    H232810   0.545   3.000  13.773 -0.3428  0.5357  0.2989
 3799TIP3   OH232811   2.896   3.485  14.844  0.2386  0.1481  0.4896
 3799TIP3    H132812   2.877   3.579  14.839 -0.2508  0.0031 -0.4772
 3799TIP3    H232813   2.811   3.443  14.851  0.2797 -0.3566 -1.4852
 3800TIP3   OH232814   3.455   5.847  11.266  0.2931 -0.1898 -0.3913
 3800TIP3    H132815   3.405   5.923  11.295  0.2555  0.0076 -0.9745
 3800TIP3    H232816   3.492   5.873  11.182  0.3163 -0.8010 -0.5718
 3801TIP3   OH232817   2.827   2.684  11.608  0.3992  0.1309 -0.7515
 3801TIP3    H132818   2.746   2.651  11.567  0.0275  0.6587 -0.4452
 3801TIP3    H232819   2.894   2.623  11.578 -0.1143 -0.3316 -0.9942
 3802TIP3   OH232820   1.360   0.500   4.279 -0.2754  0.6456 -0.0631
 3802TIP3    H132821   1.390   0.519   4.368 -2.5640 -1.2964  1.2420
 3802TIP3    H232822   1.269   0.530   4.278 -0.5410 -0.1352 -1.4645
 3803TIP3   OH232823   0.830   0.288   1.042  0.1352 -0.6931  0.1424
 3803TIP3    H132824   0.916   0.318   1.069 -0.2616  1.7257 -1.0105
 3803TIP3    H232825   0.842   0.258   0.952  0.1462 -2.3854  0.6723
 3804TIP3   OH232826   6.740   3.291  15.682 -0.2554 -0.0521 -0.0943
 3804TIP3    H132827   6.820   3.272  15.632 -0.8537  0.9098 -1.4489
 3804TIP3    H232828   6.748   3.383  15.706 -0.0480 -0.4551  1.5182
 3805TIP3   OH232829   0.043   6.035   1.691 -0.2936  0.2448 -0.0202
 3805TIP3    H132830   0.016   6.055   1.781  0.8125  0.6923  0.2231
 3805TIP3    H232831   0.027   5.941   1.682  0.2286  0.0593  0.8811
 3806TIP3   OH232832   6.044   4.720   1.840  0.4927  0.5579 -0.4993
 3806TIP3    H132833   5.983   4.658   1.799  0.4512  0.9539 -1.0497
 3806TIP3    H232834   6.130   4.694   1.806  0.7586 -0.4953  0.8826
 3807TIP3   OH232835   3.887   3.426  17.134 -0.2635 -0.2467 -0.1858
 3807TIP3    H132836   3.911   3.333  17.131 -1.6267 -0.7350  2.0143
 3807TIP3    H232837   3.838   3.436  17.216  1.3751  2.8101  0.5772
 3808TIP3   OH232838   2.835   0.304   1.476 -0.0182  0.2188 -0.5251
 3808TIP3    H132839   2.891   0.307   1.399 -0.1211  1.2951 -0.5770
 3808TIP3    H232840   2.878   0.361   1.540  1.3901 -2.5835  1.1892
 3809TIP3   OH232841   5.593   5.968  11.395  0.0896 -0.2876 -0.8530
 3809TIP3    H132842   5.604   6.022  11.473  0.0016  0.6300 -1.4689
 3809TIP3    H232843   5.610   6.027  11.321 -0.3992 -0.9926 -1.5483
 3810TIP3   OH232844   4.131   1.822  15.608  0.0519 -0.6786  0.3739
 3810TIP3    H132845   4.041   1.808  15.579  0.1351 -0.7373  0.1410
 3810TIP3    H232846   4.182   1.824  15.527 -0.3091  4.1318 -0.0571
 3811TIP3   OH232847   2.983   6.694  12.555 -0.8288 -0.4667  0.6330
 3811TIP3    H132848   2.915   6.761  12.556 -1.1599 -0.7732 -0.4086
 3811TIP3    H232849   3.065   6.743  12.563 -1.0598  0.0788 -0.2810
 3812TIP3   OH232850   3.895   3.120   1.395 -0.0700 -0.0992 -0.1419
 3812TIP3    H132851   3.845   3.184   1.344 -0.0176  0.5174  0.5473
 3812TIP3    H232852   3.860   3.128   1.484 -1.2879 -2.3201 -0.3794
 3813TIP3   OH232853   0.317   0.169  17.193 -0.6881 -0.4457  0.1009
 3813TIP3    H132854   0.245   0.167  17.131 -0.7125  0.3771  0.0920
 3813TIP3    H232855   0.305   0.091  17.247 -2.5624  0.5120  1.1702
 3814TIP3   OH232856   1.824   4.846  13.597  0.2706 -0.1911  0.7117
 3814TIP3    H132857   1.786   4.882  13.676 -0.3665 -2.3341  1.4555
 3814TIP3    H232858   1.909   4.811  13.625  1.0374  0.9663 -0.0618
 3815TIP3   OH232859   3.547   5.952   0.361  0.6005 -0.1830  0.2922
 3815TIP3    H132860   3.572   5.938   0.452  1.7711 -2.1325 -0.2491
 3815TIP3    H232861   3.462   5.996   0.365 -0.3507 -2.0306  2.3660
 3816TIP3   OH232862   5.786   3.007   1.018  0.0760  0.1829 -0.3140
 3816TIP3    H132863   5.837   3.037   1.093 -0.3817  1.6214 -0.5571
 3816TIP3    H232864   5.850   2.996   0.948  0.2165  0.8763 -0.2993
 3817TIP3   OH232865   4.201   2.707   2.370  0.3841  0.0653 -0.4015
 3817TIP3    H132866   4.137   2.717   2.299  1.4985 -2.5544 -1.9308
 3817TIP3    H232867   4.231   2.796   2.387 -1.8203  1.0870 -1.3696
 3818TIP3   OH232868   6.505   1.163  16.152 -0.2978  0.0986 -0.2336
 3818TIP3    H132869   6.550   1.200  16.076  1.0274 -0.3636  0.2955
 3818TIP3    H232870   6.510   1.068  16.139  1.3369 -0.0593  1.1500
 3819TIP3   OH232871   5.167   3.679   1.674  0.0891 -0.1150 -0.2184
 3819TIP3    H132872   5.263   3.680   1.674  0.0973 -0.5696 -0.5144
 3819TIP3    H232873   5.142   3.770   1.659  0.4809 -0.0355 -0.4043
 3820TIP3   OH232874   2.864   1.684  11.734  0.4924 -0.3256 -0.4224
 3820TIP3    H132875   2.923   1.626  11.686  0.1809  0.7743 -2.2382
 3820TIP3    H232876   2.881   1.771  11.697  0.7668  0.7420  2.0179
 3821TIP3   OH232877   2.108   6.272   4.726 -0.0546 -0.4590  0.5103
 3821TIP3    H132878   2.189   6.249   4.772 -0.3417 -0.5977  0.9444
 3821TIP3    H232879   2.046   6.203   4.750 -1.0014  0.8476  2.0295
 3822TIP3   OH232880   0.408   3.249   3.410  0.0287 -0.1630  0.2968
 3822TIP3    H132881   0.455   3.315   3.460  2.0653 -0.9500 -0.4855
 3822TIP3    H232882   0.426   3.166   3.456  0.7412 -0.6869 -0.8862
 3823TIP3   OH232883   1.754   5.823  12.328  0.0417 -0.1698 -0.3526
 3823TIP3    H132884   1.809   5.860  12.258 -1.5186  1.6229 -0.7270
 3823TIP3    H232885   1.680   5.783  12.282 -0.3809 -0.0580  0.2170
 3824TIP3   OH232886   6.171   6.342   0.107  0.6447 -0.0476  0.0850
 3824TIP3    H132887   6.141   6.361   0.018 -0.5018 -1.0175  0.2484
 3824TIP3    H232888   6.266   6.341   0.100  0.5618 -0.4786 -1.2096
 3825TIP3   OH232889   0.881   4.613   0.955  0.2044 -0.0847  0.0470
 3825TIP3    H132890   0.973   4.609   0.928 -0.1154  1.0902 -1.3398
 3825TIP3    H232891   0.860   4.707   0.954 -1.3304 -0.3986 -0.8603
 3826TIP3   OH232892   2.356   3.161   5.474 -0.4403  0.0971  0.5626
 3826TIP3    H132893   2.302   3.172   5.395 -1.2034  0.1350  1.0787
 3826TIP3    H232894   2.323   3.081   5.515  0.7984 -0.6371  0.2014
 3827TIP3   OH232895   0.917   5.393   3.484 -0.4050 -0.0944  0.1916
 3827TIP3    H132896   0.960   5.344   3.554 -0.8969 -0.3583  0.3105
 3827TIP3    H232897   0.938   5.485   3.503  0.2625 -0.2292  0.1367
 3828TIP3   OH232898   3.570   2.516  16.134 -0.0719  0.0659  0.4936
 3828TIP3    H132899   3.491   2.494  16.183  0.2583 -1.1401  0.5091
 3828TIP3    H232900   3.639   2.467  16.176  0.1955 -1.1414 -1.2482
 3829TIP3   OH232901   2.798   3.011  13.004  0.1483  0.5174 -0.2267
 3829TIP3    H132902   2.823   3.004  12.912  0.3736 -0.2329 -0.1115
 3829TIP3    H232903   2.714   2.967  13.009  0.5767 -0.2697  0.1026
 3830TIP3   OH232904   1.404   0.802  13.022 -0.1232 -0.4467 -0.3975
 3830TIP3    H132905   1.354   0.761  12.952  0.3792 -3.0132  0.6384
 3830TIP3    H232906   1.338   0.828  13.087 -0.2890 -4.5884  1.3616
 3831TIP3   OH232907   0.113   4.886   3.380  0.1067  0.1974  0.2066
 3831TIP3    H132908   0.205   4.909   3.390  0.6584 -1.8512  0.3005
 3831TIP3    H232909   0.069   4.969   3.361  1.6484  1.5358  2.0759
 3832TIP3   OH232910   2.726   4.936  11.095  0.0448 -0.3464  0.6823
 3832TIP3    H132911   2.773   5.016  11.076 -1.0996  0.2978  0.4886
 3832TIP3    H232912   2.746   4.878  11.022  0.5592 -0.1024  0.6262
 3833TIP3   OH232913   5.603   3.118  15.302  0.2979  0.5252  0.1487
 3833TIP3    H132914   5.648   3.064  15.237 -1.4789 -1.7499  0.6963
 3833TIP3    H232915   5.513   3.123  15.270 -0.2978  0.4731  1.7611
 3834TIP3   OH232916   1.837   2.742  11.958  0.0723  0.0140 -0.2892
 3834TIP3    H132917   1.921   2.733  11.912  0.7659 -0.0729  0.9681
 3834TIP3    H232918   1.855   2.800  12.032 -1.2318  0.8534 -0.5882
 3835TIP3   OH232919   5.188   3.129  16.335  0.1003 -0.5287 -0.0363
 3835TIP3    H132920   5.175   3.102  16.244  2.4130 -0.2816 -0.4876
 3835TIP3    H232921   5.257   3.071  16.368 -0.2669 -0.2105  1.3787
 3836TIP3   OH232922   4.476   1.111  13.964  0.7871 -0.9406  0.2125
 3836TIP3    H132923   4.549   1.054  13.988  0.6300 -2.7252 -2.9613
 3836TIP3    H232924   4.400   1.052  13.962 -0.4074  0.4767  1.5698
 3837TIP3   OH232925   1.302   0.337  16.019  0.0360 -0.4897 -0.2917
 3837TIP3    H132926   1.233   0.273  16.038 -1.0975  1.6291  3.8416
 3837TIP3    H232927   1.255   0.416  15.993  1.1562  0.0831 -0.6271
 3838TIP3   OH232928   2.602   4.709  12.944 -0.2438 -0.0027 -0.4362
 3838TIP3    H132929   2.543   4.635  12.928 -0.1348  0.1221 -1.5034
 3838TIP3    H232930   2.549   4.786  12.925  0.3993  0.0964 -1.9761
 3839TIP3   OH232931   5.841   5.729   3.930  0.3157 -0.2524  0.3480
 3839TIP3    H132932   5.822   5.670   4.003  0.1715 -0.4641  0.1413
 3839TIP3    H232933   5.782   5.701   3.860 -0.9676  1.1966  0.7848
 3840TIP3   OH232934   2.293   1.954  16.042  0.0661 -0.1331  0.0601
 3840TIP3    H132935   2.281   1.935  15.949 -2.2481  0.7394  0.1094
 3840TIP3    H232936   2.387   1.945  16.057  0.6728  0.8607 -2.6222
 3841TIP3   OH232937   2.229   2.205  16.398 -0.4717 -0.0605  0.6875
 3841TIP3    H132938   2.305   2.153  16.424 -0.3736 -0.2495  0.0308
 3841TIP3    H232939   2.267   2.289  16.371 -0.5517  0.0507  0.9190
 3842TIP3   OH232940   5.900   3.415  16.533 -0.0588 -0.3028  0.2784
 3842TIP3    H132941   5.918   3.322  16.521  0.5408 -0.2323  0.5658
 3842TIP3    H232942   5.898   3.451  16.444  0.3471 -0.4807  0.1944
 3843TIP3   OH232943   1.212   6.326   0.839 -0.4663 -0.0084 -0.0694
 3843TIP3    H132944   1.250   6.246   0.873  2.0433  0.5376 -1.3200
 3843TIP3    H232945   1.205   6.312   0.744 -0.1791  1.1360 -0.2859
 3844TIP3   OH232946   2.168   4.393  12.870 -0.2153  0.1529 -0.2115
 3844TIP3    H132947   2.122   4.321  12.829 -2.6431  1.6849 -0.4072
 3844TIP3    H232948   2.205   4.443  12.797  1.7362 -0.9928 -0.0617
 3845TIP3   OH232949   2.020   4.498  16.635  0.5545  0.0858  0.2271
 3845TIP3    H132950   1.984   4.562  16.573 -0.2554  0.7854  1.3792
 3845TIP3    H232951   2.002   4.536  16.721  1.7028 -0.8424  0.8988
 3846TIP3   OH232952   3.672   4.228  14.799  0.3260  0.4952  0.1510
 3846TIP3    H132953   3.727   4.306  14.799 -0.9947  1.5271 -2.0203
 3846TIP3    H232954   3.608   4.243  14.729 -0.4080 -2.2496  0.0919
 3847TIP3   OH232955   1.176   1.974  15.598 -0.9123  0.0548 -0.5912
 3847TIP3    H132956   1.263   1.959  15.633 -1.0335 -1.3601 -0.8367
 3847TIP3    H232957   1.175   2.067  15.574  0.0118  0.4350  0.7760
 3848TIP3   OH232958   1.410   1.424   4.837  0.1203 -0.2903  0.2346
 3848TIP3    H132959   1.396   1.343   4.788  0.3630  0.4720 -1.1596
 3848TIP3    H232960   1.376   1.406   4.924 -1.0679 -1.4450 -0.4399
 3849TIP3   OH232961   1.618   2.046   3.549  0.2004 -0.5049 -0.0813
 3849TIP3    H132962   1.579   2.109   3.488 -0.5959 -0.8123  0.0902
 3849TIP3    H232963   1.710   2.040   3.523 -0.0362 -0.3144 -0.9846
 3850TIP3   OH232964   2.732   5.003   4.425  0.7455 -0.1800  0.5702
 3850TIP3    H132965   2.680   4.923   4.434  1.0110 -0.3050  1.0501
 3850TIP3    H232966   2.818   4.979   4.458  0.8324  0.2985  0.6981
 3851TIP3   OH232967   5.054   6.736  16.624  0.2905 -0.2054 -0.0050
 3851TIP3    H132968   5.112   6.757  16.550 -0.4686 -0.1369 -0.5924
 3851TIP3    H232969   5.052   6.816  16.676  1.4083 -0.4870  0.4941
 3852TIP3   OH232970   0.139   2.868   6.277 -0.1668 -0.5137  0.1923
 3852TIP3    H132971   0.235   2.870   6.284 -0.0263  1.5585 -1.3807
 3852TIP3    H232972   0.109   2.918   6.353 -0.0803 -1.6694  1.0225
 3853TIP3   OH232973   3.783   0.869  15.557 -0.1985  0.1648 -0.2001
 3853TIP3    H132974   3.750   0.905  15.474  1.4472 -1.4883 -1.6683
 3853TIP3    H232975   3.831   0.942  15.597 -0.1047  0.6959 -1.2380
 3854TIP3   OH232976   5.858   3.573   2.636  0.4586  0.0859  0.2252
 3854TIP3    H132977   5.877   3.638   2.568  1.7613 -1.3265 -0.8346
 3854TIP3    H232978   5.917   3.500   2.616 -0.1054 -0.9361  2.0832
 3855TIP3   OH232979   5.584   4.672   5.686  1.1367  0.4579 -0.5121
 3855TIP3    H132980   5.598   4.617   5.609 -1.2099 -2.8080  1.1763
 3855TIP3    H232981   5.495   4.705   5.676  0.9362  0.2876  0.6038
 3856TIP3   OH232982   2.788   2.449   1.673 -0.0377  0.0298 -0.6170
 3856TIP3    H132983   2.742   2.365   1.668 -0.3298  0.2413 -2.0548
 3856TIP3    H232984   2.866   2.436   1.618  0.7119  0.2271  0.3813
 3857TIP3   OH232985   0.595   5.323   3.622  0.0302 -0.1791 -0.1806
 3857TIP3    H132986   0.594   5.333   3.527 -0.4208 -1.9143 -0.3974
 3857TIP3    H232987   0.686   5.340   3.647  0.4809 -1.1010 -1.1150
 3858TIP3   OH232988   6.042   4.230   6.165  0.6154 -0.2678  0.1621
 3858TIP3    H132989   5.996   4.198   6.243  0.7391 -1.0912 -0.0929
 3858TIP3    H232990   6.001   4.183   6.092  1.8948 -1.0841 -0.0616
 3859TIP3   OH232991   6.576   0.009  10.585  0.4390 -0.1692  0.0907
 3859TIP3    H132992   6.508   0.016  10.652 -0.3924 -2.9123 -0.3386
 3859TIP3    H232993   6.538   0.051  10.508  0.1686  0.3248  0.4881
 3860TIP3   OH232994   5.124   0.389  11.910  0.0666  0.2401  0.4318
 3860TIP3    H132995   5.143   0.468  11.959  0.2608 -0.6769  1.8891
 3860TIP3    H232996   5.163   0.405  11.823  1.9578  0.9195  1.3459
 3861TIP3   OH232997   6.148   6.351  12.289  0.2312 -0.4779 -0.1253
 3861TIP3    H132998   6.093   6.325  12.363  1.9592 -0.4542  1.2371
 3861TIP3    H232999   6.152   6.446  12.293 -0.5947 -0.3963 -0.9716
 3862TIP3   OH233000   0.096   2.039   4.007  0.4074  0.6244  0.1894
 3862TIP3    H133001   0.183   2.068   3.978 -0.9406  2.9203 -1.9168
 3862TIP3    H233002   0.104   2.030   4.102  2.9996  0.4622  0.0278
 3863TIP3   OH233003   0.962   0.277  16.449 -0.3969  0.1643 -0.0794
 3863TIP3    H133004   0.927   0.337  16.515 -0.4122  0.5190 -0.4073
 3863TIP3    H233005   1.054   0.302  16.439 -0.0766 -0.6810  0.6834
 3864TIP3   OH233006   0.988   3.432   1.936  0.1856  0.2633 -0.1116
 3864TIP3    H133007   0.998   3.460   1.845  0.3476 -0.8236 -0.4371
 3864TIP3    H233008   1.069   3.386   1.957 -0.3506 -0.5891  0.1711
 3865TIP3   OH233009   2.806   2.097  12.301  0.0088  0.0823 -0.0198
 3865TIP3    H133010   2.764   2.021  12.261  0.6773 -0.2229 -0.1551
 3865TIP3    H233011   2.824   2.156  12.228 -3.3734  1.8775  0.3670
 3866TIP3   OH233012   5.346   2.985   1.215 -0.2785 -0.1022 -0.0153
 3866TIP3    H133013   5.329   2.948   1.129 -0.5792  1.7136 -0.7703
 3866TIP3    H233014   5.377   3.074   1.198 -0.7688  0.4571  1.7717
 3867TIP3   OH233015   5.840   1.560  10.519 -0.3404 -0.6363 -0.6738
 3867TIP3    H133016   5.756   1.563  10.566 -1.1383 -0.5248 -2.0534
 3867TIP3    H233017   5.826   1.494  10.450  0.4128 -0.0021 -1.4472
 3868TIP3   OH233018   1.749   5.608   2.267  0.0384 -0.1502 -0.1898
 3868TIP3    H133019   1.824   5.575   2.217  0.8149 -0.1113  0.9123
 3868TIP3    H233020   1.697   5.531   2.288 -0.1696 -0.1942 -0.8310
 3869TIP3   OH233021   0.699   1.888  13.201  0.0040 -0.1192  0.5584
 3869TIP3    H133022   0.704   1.858  13.110 -1.8086  0.8747  0.0819
 3869TIP3    H233023   0.643   1.823  13.244  0.1066 -0.0851  0.7449
 3870TIP3   OH233024   5.086   5.064   5.401 -0.2005 -0.3516  0.4498
 3870TIP3    H133025   5.113   4.975   5.377  0.0106 -0.0420 -0.5113
 3870TIP3    H233026   5.004   5.053   5.448 -0.9232 -0.9780 -0.8958
 3871TIP3   OH233027   0.073   1.455   6.515  0.5080  0.2879  0.0950
 3871TIP3    H133028  -0.019   1.471   6.492  1.0690  0.6511 -2.0917
 3871TIP3    H233029   0.103   1.539   6.550 -0.1711 -0.0629  1.6050
 3872TIP3   OH233030   4.467   2.959  15.623  0.1114  0.1821 -0.4878
 3872TIP3    H133031   4.456   2.959  15.718  0.5549 -1.9125 -0.3777
 3872TIP3    H233032   4.540   3.019  15.607 -0.0928  0.7081  0.4634
 3873TIP3   OH233033   0.386   2.224  12.311 -0.0476  0.2721 -0.0765
 3873TIP3    H133034   0.426   2.136  12.313  2.2883  1.2357 -0.8732
 3873TIP3    H233035   0.355   2.234  12.221  1.1031  0.7976 -0.4395
 3874TIP3   OH233036   4.543   5.553  11.682 -0.1774  0.1465  1.1276
 3874TIP3    H133037   4.465   5.562  11.736 -2.8449 -1.2916 -2.1923
 3874TIP3    H233038   4.542   5.630  11.625 -0.3325 -0.8169 -0.2213
 3875TIP3   OH233039   5.699   0.354  11.408  0.1033 -0.0031  0.5705
 3875TIP3    H133040   5.690   0.313  11.322 -0.2015 -1.7041  1.3835
 3875TIP3    H233041   5.736   0.440  11.389 -1.6799  0.4097 -1.4303
 3876TIP3   OH233042   1.418   1.594  11.727  0.4776  0.1532 -0.0012
 3876TIP3    H133043   1.357   1.666  11.713 -0.1036 -0.4262 -0.4802
 3876TIP3    H233044   1.450   1.607  11.817  0.2580  0.9031 -0.0227
 3877TIP3   OH233045   4.588   3.955   6.689  0.8102  0.2035 -0.0351
 3877TIP3    H133046   4.563   4.015   6.618 -0.5840  0.0558  0.2996
 3877TIP3    H233047   4.570   3.868   6.654 -0.2352  0.1425  0.5975
 3878TIP3   OH233048   3.744   5.436  11.517  0.2214 -0.5031  0.5301
 3878TIP3    H133049   3.652   5.432  11.541  0.2856 -2.7339  0.5835
 3878TIP3    H233050   3.783   5.498  11.580 -0.7050 -1.7763  2.4325
 3879TIP3   OH233051   1.504   6.430   3.450  0.2237  0.3048  0.0437
 3879TIP3    H133052   1.576   6.479   3.489 -0.2225  0.3822  0.7727
 3879TIP3    H233053   1.444   6.412   3.522  0.0965 -0.8163 -0.3133
 3880TIP3   OH233054   2.010   3.187  17.015 -0.1184 -1.1210 -0.1490
 3880TIP3    H133055   1.922   3.183  16.979  0.2071  1.2809 -1.4360
 3880TIP3    H233056   2.066   3.155  16.944  0.2440  0.2460 -0.5110
 3881TIP3   OH233057   1.027   4.343   3.249  0.1827  0.1573  0.0722
 3881TIP3    H133058   0.949   4.287   3.250  0.4558 -0.2505 -0.4510
 3881TIP3    H233059   0.994   4.430   3.267 -0.1447 -0.2834  1.7405
 3882TIP3   OH233060   2.224   2.729   3.475  0.1121 -0.2567  0.0999
 3882TIP3    H133061   2.308   2.697   3.507  1.5262  0.6096 -2.4429
 3882TIP3    H233062   2.219   2.819   3.507  0.9121  0.1871 -0.9701
 3883TIP3   OH233063   2.935   1.685   1.196 -0.0532 -0.1190 -0.0241
 3883TIP3    H133064   2.841   1.672   1.205  0.0170  0.5746  2.2624
 3883TIP3    H233065   2.944   1.760   1.137 -0.9358 -0.0725 -0.1013
 3884TIP3   OH233066   4.759   4.299  16.871 -0.7739  0.1711 -0.1731
 3884TIP3    H133067   4.673   4.330  16.841 -0.7628  0.6734  0.2870
 3884TIP3    H233068   4.767   4.334  16.960 -1.2171 -2.0514  0.8098
 3885TIP3   OH233069   3.350   2.623   5.545  0.0630 -0.3180  0.4631
 3885TIP3    H133070   3.257   2.598   5.546  0.1226 -0.5462  0.9845
 3885TIP3    H233071   3.391   2.559   5.487 -0.0859 -0.2957  0.3309
 3886TIP3   OH233072   0.161   5.635   5.566  0.1606 -0.3149 -0.1198
 3886TIP3    H133073   0.214   5.585   5.504 -0.7428  0.9743 -2.0079
 3886TIP3    H233074   0.219   5.650   5.640  0.9921 -2.6540 -0.2204
 3887TIP3   OH233075   0.439   3.544   1.649  0.1368 -0.5926  0.0820
 3887TIP3    H133076   0.427   3.612   1.716  0.8504  0.4068 -0.7626
 3887TIP3    H233077   0.383   3.572   1.577 -0.7983 -1.7799  0.3197
 3888TIP3   OH233078   0.651   4.125   0.365  0.0955 -0.0907 -0.0856
 3888TIP3    H133079   0.706   4.194   0.329 -0.5649 -0.0722 -1.0981
 3888TIP3    H233080   0.603   4.166   0.436  1.7102 -0.2264  1.1572
 3889TIP3   OH233081   2.706   6.386  10.448  0.0139  0.5043  0.0902
 3889TIP3    H133082   2.769   6.418  10.384 -2.0850  0.8593 -1.8862
 3889TIP3    H233083   2.685   6.462  10.501 -0.3832  0.9192 -0.6582
 3890TIP3   OH233084   5.324   2.081  12.874  0.0989 -0.1706  0.1549
 3890TIP3    H133085   5.369   2.159  12.841  1.6395 -0.0483  2.3019
 3890TIP3    H233086   5.250   2.069  12.815  1.2713  1.4073 -1.7640
 3891TIP3   OH233087   2.532   6.371  11.308  0.0295 -0.4304 -0.0577
 3891TIP3    H133088   2.620   6.389  11.274  0.3848 -0.7441  0.6855
 3891TIP3    H233089   2.510   6.286  11.271 -0.5766  0.2901 -1.4366
 3892TIP3   OH233090   0.003   1.231   1.059 -0.2268  0.6967 -0.0357
 3892TIP3    H133091   0.081   1.201   1.013  0.4306 -1.9794  2.5693
 3892TIP3    H233092  -0.069   1.181   1.020  0.2372 -1.0645  1.2313
 3893TIP3   OH233093   2.535   6.689   3.789  0.1850  0.6613 -0.3445
 3893TIP3    H133094   2.623   6.717   3.814  0.6974  1.0988 -2.4237
 3893TIP3    H233095   2.482   6.768   3.794  0.6436  1.1047 -2.0533
 3894TIP3   OH233096   2.507   3.739   2.067 -0.0897 -0.1812 -0.3122
 3894TIP3    H133097   2.515   3.834   2.078 -2.0251 -0.0262  0.1961
 3894TIP3    H233098   2.597   3.708   2.062  0.6831  1.3745  2.1319
 3895TIP3   OH233099   6.276   1.210   4.064 -0.1543  0.2491 -0.1100
 3895TIP3    H133100   6.316   1.123   4.062  1.3006  0.8693  0.3406
 3895TIP3    H233101   6.210   1.208   3.994  1.3874 -0.5051 -1.6129
 3896TIP3   OH233102   0.164   0.747   3.871  0.8450  0.0548 -0.5216
 3896TIP3    H133103   0.250   0.788   3.862  0.7711 -0.1169 -2.1757
 3896TIP3    H233104   0.123   0.795   3.944  2.3131  0.1267  0.2976
 3897TIP3   OH233105   2.448   6.664   6.268  0.0228 -0.8133 -0.1403
 3897TIP3    H133106   2.431   6.577   6.231  0.0927 -0.4810 -0.9891
 3897TIP3    H233107   2.372   6.682   6.323  0.1102 -1.4995  0.2172
 3898TIP3   OH233108   6.028   1.825  15.954  0.4151 -0.1754  0.2105
 3898TIP3    H133109   6.034   1.814  15.859  2.2978 -0.6803  0.3505
 3898TIP3    H233110   6.072   1.748  15.991 -0.5059 -0.1195  1.5155
 3899TIP3   OH233111   6.348   0.959   3.954  0.2642 -0.2637 -0.0731
 3899TIP3    H133112   6.419   0.911   3.995  0.2213 -0.7337 -0.5243
 3899TIP3    H233113   6.282   0.892   3.934 -0.1475  0.1062  0.0099
 3900TIP3   OH233114   5.199   4.886   4.744  0.6714  0.0228  0.5064
 3900TIP3    H133115   5.275   4.828   4.743  1.9742  1.6241 -1.2392
 3900TIP3    H233116   5.171   4.890   4.652  1.2631  2.8430  0.3566
 3901TIP3   OH233117   4.966   1.387   5.429 -0.0156 -0.4963 -0.0495
 3901TIP3    H133118   4.991   1.296   5.410 -2.0495 -0.7728 -1.8671
 3901TIP3    H233119   4.995   1.401   5.519  1.3859 -2.5521 -0.0996
 3902TIP3   OH233120   3.871   6.128   0.901  0.1925 -0.3234  0.9726
 3902TIP3    H133121   3.919   6.113   0.982 -0.9823 -1.0511  1.5650
 3902TIP3    H233122   3.779   6.114   0.924 -0.2995  0.6865 -0.1909
 3903TIP3   OH233123   2.343   3.034   4.337 -0.3441 -0.1417 -0.3569
 3903TIP3    H133124   2.404   2.990   4.396 -1.3790 -1.9379 -0.5550
 3903TIP3    H233125   2.324   3.117   4.381 -1.0463 -1.3951  1.8873
 3904TIP3   OH233126   6.373   5.122  17.162  0.0928  0.2908 -0.2282
 3904TIP3    H133127   6.463   5.153  17.148 -1.0405  3.7721 -0.8470
 3904TIP3    H233128   6.353   5.148  17.252 -0.4199 -0.1354 -0.2182
 3905TIP3   OH233129   3.526   4.341   4.052 -0.4092 -0.0540 -0.2880
 3905TIP3    H133130   3.527   4.332   4.147 -0.1675  2.1941 -0.0264
 3905TIP3    H233131   3.478   4.264   4.021  0.3779 -1.3557  1.5547
 3906TIP3   OH233132   0.728   5.310   2.963  0.5501 -0.1587 -0.4345
 3906TIP3    H133133   0.784   5.308   2.885  1.0221  0.7614 -0.1240
 3906TIP3    H233134   0.739   5.223   3.002  3.4725  0.6325  0.7963
 3907TIP3   OH233135   0.046   2.805  13.519 -0.5398 -0.1563  0.8207
 3907TIP3    H133136  -0.033   2.778  13.471 -0.9157  1.2005  0.6477
 3907TIP3    H233137   0.113   2.742  13.493 -1.4721 -1.1169  0.6893
 3908TIP3   OH233138   2.175   1.108   2.107 -0.2532  0.0804  0.0477
 3908TIP3    H133139   2.189   1.016   2.129  0.1773  0.3366  0.8862
 3908TIP3    H233140   2.245   1.129   2.044 -1.5124 -0.6653 -1.6765
 3909TIP3   OH233141   2.795   5.865   5.546 -0.0081 -0.3665 -0.4131
 3909TIP3    H133142   2.790   5.789   5.487  0.9649  1.0100 -2.3795
 3909TIP3    H233143   2.862   5.841   5.610 -2.5093 -2.7292  1.5687
 3910TIP3   OH233144   0.413   0.986   0.236 -0.8650  0.0295  0.3372
 3910TIP3    H133145   0.326   1.025   0.243 -0.3829  1.5820 -1.5189
 3910TIP3    H233146   0.411   0.937   0.153 -0.3073 -0.8656  0.8364
 3911TIP3   OH233147   5.013   6.676  11.245  0.8143 -0.0449  0.1953
 3911TIP3    H133148   5.049   6.634  11.324  2.8632  1.2001  0.0098
 3911TIP3    H233149   5.025   6.770  11.260 -1.3507  0.3863 -0.4585
 3912TIP3   OH233150   4.425   0.945  17.239 -0.2153 -0.1006  0.2013
 3912TIP3    H133151   4.360   0.879  17.264  0.3236 -0.0008  2.0138
 3912TIP3    H233152   4.396   1.025  17.282  0.9703 -0.0108  0.8959
 3913TIP3   OH233153   2.353   3.854   3.071 -0.4333  0.6645  0.1807
 3913TIP3    H133154   2.273   3.824   3.114 -0.5211  0.6917  0.0369
 3913TIP3    H233155   2.423   3.803   3.111 -0.6887 -0.4769 -0.7863
 3914TIP3   OH233156   6.600   4.187  11.498  0.1600 -0.1581  0.2432
 3914TIP3    H133157   6.614   4.133  11.575  0.7808  0.2678  0.4430
 3914TIP3    H233158   6.568   4.127  11.431  0.4212 -0.6844  0.5909
 3915TIP3   OH233159   1.317   1.046  11.777  0.1464 -0.6089  0.6316
 3915TIP3    H133160   1.333   1.119  11.836 -2.5542  0.3729  0.3018
 3915TIP3    H233161   1.360   1.071  11.695  0.6791 -0.2086  1.0271
 3916TIP3   OH233162   1.596   5.741  11.910 -0.4393 -0.0797 -0.6757
 3916TIP3    H133163   1.587   5.647  11.895 -2.1258 -0.0822  0.0487
 3916TIP3    H233164   1.521   5.779  11.865 -0.1104  0.8585 -0.4407
 3917TIP3   OH233165   1.452   4.002   0.953  0.5370  0.1611 -0.0704
 3917TIP3    H133166   1.500   4.083   0.938 -0.5050  1.3265  2.2900
 3917TIP3    H233167   1.370   4.014   0.905  0.1594  0.7747  0.7049
 3918TIP3   OH233168   1.623   0.226  15.799  0.0950 -0.1204  0.1978
 3918TIP3    H133169   1.597   0.317  15.806  1.1696  0.0943  1.9102
 3918TIP3    H233170   1.685   0.223  15.726 -0.4759  0.3591 -0.3166
 3919TIP3   OH233171   3.019   0.157   0.357 -0.2146  0.4168  0.1104
 3919TIP3    H133172   3.100   0.208   0.362 -0.6599  1.0480  1.2407
 3919TIP3    H233173   3.001   0.133   0.447 -0.9524 -0.2627 -0.2149
 3920TIP3   OH233174   0.183   4.309   0.729  0.0233  0.1597  0.0188
 3920TIP3    H133175   0.177   4.225   0.773  1.8778  0.1402  0.3017
 3920TIP3    H233176   0.170   4.289   0.636 -1.2290 -0.1600  0.2368
 3921TIP3   OH233177   5.235   6.173  12.800 -0.5996 -0.1798  0.1600
 3921TIP3    H133178   5.269   6.084  12.803  0.9908  0.3005 -1.8277
 3921TIP3    H233179   5.140   6.162  12.798 -0.4430 -1.8053  0.3052
 3922TIP3   OH233180   5.677   1.859  14.880 -0.1581 -0.7963 -0.1557
 3922TIP3    H133181   5.700   1.928  14.817  2.4161 -1.0759  0.3706
 3922TIP3    H233182   5.635   1.905  14.952  0.2083  0.0263 -0.4557
 3923TIP3   OH233183   0.718   1.575   2.962  0.2186  0.0168 -0.3550
 3923TIP3    H133184   0.772   1.566   2.884 -1.5780  0.9798 -1.8253
 3923TIP3    H233185   0.637   1.528   2.941  0.5829 -1.8482  1.9674
 3924TIP3   OH233186   6.629   5.089   0.478 -0.6707 -0.2255 -0.7303
 3924TIP3    H133187   6.543   5.124   0.504 -0.5455  0.0244 -0.6544
 3924TIP3    H233188   6.686   5.107   0.553 -0.6543 -0.7864 -0.6021
 3925TIP3   OH233189   1.558   1.385   3.343  0.7167 -0.0648  0.4630
 3925TIP3    H133190   1.587   1.365   3.254  0.0657 -1.4894  0.5456
 3925TIP3    H233191   1.563   1.301   3.389 -4.0787 -0.6717  0.3133
 3926TIP3   OH233192   1.769   1.543   3.875 -0.2029  0.1428 -0.1095
 3926TIP3    H133193   1.750   1.614   3.813 -1.6122  0.0049  0.1459
 3926TIP3    H233194   1.796   1.588   3.955 -0.5881  0.3812 -0.1109
 3927TIP3   OH233195   0.732   4.993   2.919  0.6157  0.3602 -0.1761
 3927TIP3    H133196   0.735   4.929   2.990  0.0918  0.0243 -0.4480
 3927TIP3    H233197   0.817   4.984   2.875  1.2938  1.1951  0.9346
 3928TIP3   OH233198   1.102   2.309   4.022 -0.2217  0.0715  0.1039
 3928TIP3    H133199   1.108   2.323   3.927 -0.1375 -1.5368 -0.1575
 3928TIP3    H233200   1.166   2.370   4.059  0.5244 -0.0294 -0.9599
 3929TIP3   OH233201   4.069   4.482   3.991 -0.0615  0.0735  0.1682
 3929TIP3    H133202   4.078   4.431   3.911  0.6479  0.8900 -0.2924
 3929TIP3    H233203   3.980   4.466   4.021 -0.3304 -0.2414 -0.7795
 3930TIP3   OH233204   3.885   2.245  14.662  0.1568 -0.6969  0.0059
 3930TIP3    H133205   3.952   2.288  14.715  0.1736 -0.5044 -0.1718
 3930TIP3    H233206   3.933   2.179  14.612  0.0189 -1.4499  0.8433
 3931TIP3   OH233207   2.623   0.510  11.276  0.6377 -0.0130  0.4793
 3931TIP3    H133208   2.654   0.593  11.312 -0.5569  2.0651 -2.7851
 3931TIP3    H233209   2.693   0.448  11.293  2.7954  2.3494  0.7425
 3932TIP3   OH233210   3.270   3.478  11.228 -0.1869 -0.1175  0.1712
 3932TIP3    H133211   3.321   3.422  11.169  0.1214 -1.9356  2.0211
 3932TIP3    H233212   3.185   3.487  11.185 -0.0620 -1.6003 -0.4703
 3933TIP3   OH233213   1.041   2.717  15.532 -0.0726 -0.1794  0.1687
 3933TIP3    H133214   1.055   2.783  15.600 -1.6698 -0.3624  0.7317
 3933TIP3    H233215   1.118   2.661  15.537  1.3027  1.5774 -0.2951
 3934TIP3   OH233216   2.739   6.221   1.138  0.1905 -0.3419  0.0942
 3934TIP3    H133217   2.689   6.190   1.214 -0.0934  1.1302  0.5364
 3934TIP3    H233218   2.680   6.209   1.064 -0.7449  1.0820  0.5698
 3935TIP3   OH233219   2.999   3.139  12.272 -0.2886  0.7185 -0.4112
 3935TIP3    H133220   3.066   3.096  12.218 -1.7048 -1.7498 -0.3727
 3935TIP3    H233221   3.048   3.190  12.335  1.6090 -1.2411 -0.1879
 3936TIP3   OH233222   0.113   2.986  14.421 -0.4528  0.3402  0.4407
 3936TIP3    H133223   0.099   3.077  14.446  1.2824  0.5787  0.7018
 3936TIP3    H233224   0.159   2.991  14.337  0.3915 -0.2482  0.8501
 3937TIP3   OH233225   5.423   4.920   0.778 -0.1794  0.0423 -0.0700
 3937TIP3    H133226   5.327   4.913   0.774 -0.2760  0.8478  0.4068
 3937TIP3    H233227   5.439   4.967   0.860  0.6443 -0.3638  0.0051
 3938TIP3   OH233228   3.185   4.464  15.341  0.2216 -0.0556 -0.1409
 3938TIP3    H133229   3.148   4.425  15.261 -0.6029  1.9227 -0.7815
 3938TIP3    H233230   3.277   4.479  15.319  0.7631 -2.1788  0.3765
 3939TIP3   OH233231   1.526   5.874   0.482  0.3117 -0.4761  0.0689
 3939TIP3    H133232   1.531   5.951   0.539  0.9100  0.5365 -1.3045
 3939TIP3    H233233   1.485   5.905   0.402  1.7647 -1.2403 -1.0242
 3940TIP3   OH233234   2.890   5.648   6.077  0.2688  0.2252 -0.3364
 3940TIP3    H133235   2.816   5.610   6.124  0.6052  0.3769  0.3322
 3940TIP3    H233236   2.967   5.606   6.116  0.5464  0.2029 -0.8965
 3941TIP3   OH233237   4.101   0.203  13.904 -0.2704  0.7543 -0.8593
 3941TIP3    H133238   4.117   0.129  13.845 -0.3835 -0.0592  0.1062
 3941TIP3    H233239   4.186   0.219  13.947 -0.6861 -0.0697  0.3210
 3942TIP3   OH233240   3.717   4.615   4.892 -0.5097 -0.0634 -0.3584
 3942TIP3    H133241   3.752   4.608   4.803 -2.4573 -2.4558 -1.0473
 3942TIP3    H233242   3.724   4.526   4.927 -0.9772  0.5606  1.4241
 3943TIP3   OH233243   0.031   1.637   0.075  0.1225 -0.6022  0.1950
 3943TIP3    H133244  -0.003   1.708   0.129 -0.0120  1.2143 -2.0800
 3943TIP3    H233245   0.124   1.659   0.063 -0.1203 -0.2641 -1.2430
 3944TIP3   OH233246   5.287   5.124   3.098 -0.2713  0.5321  0.8199
 3944TIP3    H133247   5.374   5.150   3.067 -0.7275  1.9443  0.6875
 3944TIP3    H233248   5.304   5.056   3.163  0.8602 -0.1308 -0.1173
 3945TIP3   OH233249   3.233   6.198   2.430  0.2797 -0.3321 -0.3457
 3945TIP3    H133250   3.236   6.242   2.516  1.0464  0.7573 -0.8998
 3945TIP3    H233251   3.324   6.173   2.413  0.0320 -1.0961 -0.5724
 3946TIP3   OH233252   0.838   1.809   0.639 -0.1879 -0.2469  0.6489
 3946TIP3    H133253   0.893   1.829   0.714 -1.4250  0.9666  1.2986
 3946TIP3    H233254   0.818   1.716   0.647  0.2391 -0.2730  1.4515
 3947TIP3   OH233255   3.067   5.318  15.923  0.2928 -0.4070  0.9983
 3947TIP3    H133256   3.026   5.402  15.942 -0.0714 -0.5759  0.9657
 3947TIP3    H233257   2.994   5.261  15.897  0.7900  0.0497 -1.7634
 3948TIP3   OH233258   6.381   4.159  12.593 -0.5611 -0.0727 -0.1525
 3948TIP3    H133259   6.391   4.139  12.686 -0.7569  1.3787  0.1920
 3948TIP3    H233260   6.425   4.086  12.549  3.2372  1.1644  1.1337
 3949TIP3   OH233261   2.552   5.493  15.104  0.1568  0.3907  0.0484
 3949TIP3    H133262   2.464   5.477  15.138  0.2871  0.0991  0.2520
 3949TIP3    H233263   2.569   5.585  15.123  0.3073  0.1867  0.9646
 3950TIP3   OH233264   6.242   5.157  15.060 -0.3909 -0.5785 -0.1973
 3950TIP3    H133265   6.283   5.110  14.987 -1.5533  0.3012 -1.4711
 3950TIP3    H233266   6.159   5.189  15.024 -1.0506 -0.2073  1.5583
 3951TIP3   OH233267   2.570   6.519  12.010  0.2092 -0.7107 -0.5373
 3951TIP3    H133268   2.554   6.613  12.009  0.2624 -0.5347  2.9111
 3951TIP3    H233269   2.500   6.483  12.064  1.7479 -2.2388  0.5546
 3952TIP3   OH233270   3.860   3.206  12.201  0.3484 -0.2257  0.0137
 3952TIP3    H133271   3.835   3.121  12.165  1.2737 -0.0278 -1.1276
 3952TIP3    H233272   3.805   3.216  12.279 -3.0667  0.1198 -2.2318
 3953TIP3   OH233273   1.530   4.378   2.675 -0.9276 -0.4236 -0.4434
 3953TIP3    H133274   1.613   4.382   2.627  0.3094 -1.4505  1.4769
 3953TIP3    H233275   1.516   4.466   2.708 -0.7711 -0.1746 -1.0336
 3954TIP3   OH233276   3.396   5.239  13.123 -0.5174  0.4811  0.2857
 3954TIP3    H133277   3.369   5.177  13.056 -0.0715  2.8741 -2.2512
 3954TIP3    H233278   3.491   5.244  13.116 -0.3966  0.3758  1.4992
 3955TIP3   OH233279   2.944   3.673  11.709  0.5630  0.7944 -0.1921
 3955TIP3    H133280   2.995   3.621  11.771 -0.9155 -3.0360 -1.8799
 3955TIP3    H233281   3.008   3.729  11.665  2.6354 -0.9035  0.5162
 3956TIP3   OH233282   5.402   4.649   2.644  0.2219  0.6374  0.2304
 3956TIP3    H133283   5.455   4.570   2.640  1.0053  1.1758 -0.5958
 3956TIP3    H233284   5.457   4.717   2.604 -1.2934  1.1054 -1.2066
 3957TIP3   OH233285   3.290   4.975   4.654  0.3247 -0.1703 -0.2355
 3957TIP3    H133286   3.254   5.044   4.710  0.0581 -0.6389  0.1782
 3957TIP3    H233287   3.217   4.948   4.599  0.3560 -0.3044 -0.2119
 3958TIP3   OH233288   2.044   2.106  13.649  0.2505 -0.1786 -0.1882
 3958TIP3    H133289   2.066   2.052  13.724 -3.0438 -0.3530  0.8344
 3958TIP3    H233290   1.988   2.051  13.595 -0.0284  0.9684 -1.1163
 3959TIP3   OH233291   5.092   4.910  15.828  0.3766 -0.1035 -0.0607
 3959TIP3    H133292   5.015   4.967  15.824  0.5825  0.1154 -1.2368
 3959TIP3    H233293   5.082   4.863  15.911 -0.1014  1.2138  0.6794
 3960TIP3   OH233294   1.161   1.335  14.402  0.0958 -0.1456 -0.3682
 3960TIP3    H133295   1.215   1.269  14.357  2.3701 -0.8611  3.0166
 3960TIP3    H233296   1.093   1.357  14.339  0.7081 -3.8436 -2.6549
 3961TIP3   OH233297   5.558   2.001  15.408 -0.1962 -0.3598 -0.4591
 3961TIP3    H133298   5.523   2.086  15.380 -1.8521 -0.3909  1.3235
 3961TIP3    H233299   5.595   2.017  15.494 -2.5417 -1.8017  0.9266
 3962TIP3   OH233300   2.967   2.559   2.929 -0.5035  0.6083  0.4108
 3962TIP3    H133301   2.879   2.595   2.920 -0.4618  0.5665 -0.2695
 3962TIP3    H233302   2.960   2.470   2.895  0.0566  1.0114 -0.8130
 3963TIP3   OH233303   1.018   6.114   5.418  0.2596 -0.3588  0.3566
 3963TIP3    H133304   1.074   6.047   5.456 -1.4276 -3.0324 -1.5915
 3963TIP3    H233305   0.931   6.075   5.416 -1.0407  2.3287  0.1062
 3964TIP3   OH233306   0.637   1.401  15.109  0.2919  0.6154  0.8929
 3964TIP3    H133307   0.622   1.495  15.096  0.0758  0.4758  0.0727
 3964TIP3    H233308   0.649   1.367  15.021  0.4110 -0.1222  1.1939
 3965TIP3   OH233309   0.979   5.162  16.845  0.4627 -0.0560 -0.5796
 3965TIP3    H133310   1.069   5.139  16.819  1.3487  0.6969  1.5743
 3965TIP3    H233311   0.971   5.127  16.934 -1.1489  0.4964 -0.4824
 3966TIP3   OH233312   5.994   6.225   5.762  0.2320 -0.3394 -0.2503
 3966TIP3    H133313   6.082   6.262   5.763 -0.3536  1.0918  1.5663
 3966TIP3    H233314   6.008   6.130   5.767  1.6609 -0.1567 -0.4104
 3967TIP3   OH233315   0.776   6.537   0.163  0.8381 -0.1403  0.3828
 3967TIP3    H133316   0.823   6.587   0.096  3.1025 -1.8224  0.5844
 3967TIP3    H233317   0.826   6.553   0.243 -1.9730  2.0648  1.8768
 3968TIP3   OH233318   1.943   4.981  16.981 -0.1064 -0.0943  0.3739
 3968TIP3    H133319   1.895   5.063  16.973 -0.6710 -0.5483 -1.2800
 3968TIP3    H233320   1.902   4.936  17.055  0.4120  1.2175  1.4927
 3969TIP3   OH233321   3.117   3.813   1.314 -0.3398 -0.0049 -0.0526
 3969TIP3    H133322   3.203   3.781   1.340 -0.6520 -1.2898 -0.5425
 3969TIP3    H233323   3.099   3.770   1.230 -0.8366  1.3867 -0.6972
 3970TIP3   OH233324   4.385   6.194  14.137  0.0959 -0.1506  0.0852
 3970TIP3    H133325   4.433   6.111  14.134  1.4197  0.6080 -0.6865
 3970TIP3    H233326   4.420   6.240  14.213 -0.3457 -0.1125  0.2734
 3971TIP3   OH233327   6.132   4.121  13.765  0.0339 -0.1795 -0.8014
 3971TIP3    H133328   6.049   4.083  13.737 -0.9770  1.5707 -0.3369
 3971TIP3    H233329   6.165   4.060  13.831 -1.5628 -0.2492 -0.0164
 3972TIP3   OH233330   2.454   5.913  11.959 -0.0483  0.0152 -0.5739
 3972TIP3    H133331   2.409   5.870  11.886 -0.5910  0.6051 -0.5991
 3972TIP3    H233332   2.544   5.879  11.955 -0.1182 -0.1020 -1.4039
 3973TIP3   OH233333   5.212   0.437  11.649  0.1206 -0.0907  0.1103
 3973TIP3    H133334   5.306   0.415  11.646  0.6482  1.5999  2.0269
 3973TIP3    H233335   5.210   0.531  11.663 -1.9726  0.4884 -3.0061
 3974TIP3   OH233336   4.839   2.135  16.675  0.4343 -0.3743 -0.2154
 3974TIP3    H133337   4.913   2.150  16.733 -0.3686  0.2196  0.6889
 3974TIP3    H233338   4.787   2.067  16.720 -0.6420  0.7042  0.2301
 3975TIP3   OH233339   1.956   2.092   1.919  0.6281  0.3512 -0.2755
 3975TIP3    H133340   1.917   2.004   1.919 -0.9576  0.9869 -1.7399
 3975TIP3    H233341   2.042   2.080   1.879  1.7894 -0.9842  2.3850
 3976TIP3   OH233342   5.194   6.777  12.506 -0.2006 -0.1333  0.1062
 3976TIP3    H133343   5.258   6.713  12.536  0.3505 -0.0639 -0.8727
 3976TIP3    H233344   5.226   6.803  12.419 -1.2718  0.2944 -0.1685
 3977TIP3   OH233345   1.237   6.441   4.057 -0.2626  0.1900  0.0107
 3977TIP3    H133346   1.306   6.506   4.046  1.0810 -0.8390  1.9781
 3977TIP3    H233347   1.158   6.493   4.072  0.9409  1.4468  2.5220
 3978TIP3   OH233348   2.196   2.392   1.429 -0.6502  0.0995 -0.1195
 3978TIP3    H133349   2.141   2.379   1.352 -1.0410  1.3480 -0.0780
 3978TIP3    H233350   2.153   2.463   1.477  0.3305  0.2610  0.5489
 3979TIP3   OH233351   0.597   1.626   5.770 -0.2686  0.2675  0.1257
 3979TIP3    H133352   0.670   1.605   5.828  0.7005  0.3505 -1.0309
 3979TIP3    H233353   0.638   1.658   5.689 -1.5582 -0.2772 -0.7867
 3980TIP3   OH233354   4.242   0.751   4.559 -0.4052  0.0323  0.1617
 3980TIP3    H133355   4.186   0.780   4.631 -0.1591  0.4804  0.1717
 3980TIP3    H233356   4.297   0.683   4.598 -2.5099 -2.1420 -0.3942
 3981TIP3   OH233357   0.649   6.094   0.384 -0.3057 -0.1245 -0.2766
 3981TIP3    H133358   0.683   6.179   0.355 -0.9147 -0.7109 -2.9816
 3981TIP3    H233359   0.694   6.077   0.467  2.3567  1.2725 -1.3305
 3982TIP3   OH233360   2.569   5.735   0.787  0.8234 -0.3251 -0.0753
 3982TIP3    H133361   2.657   5.735   0.751  0.3276  1.3913 -1.4360
 3982TIP3    H233362   2.530   5.653   0.756  1.1346  0.0965 -1.6955
 3983TIP3   OH233363   6.352   0.975  13.927 -0.3162  0.0021  0.0195
 3983TIP3    H133364   6.272   1.025  13.942  0.3977  1.1728  0.0522
 3983TIP3    H233365   6.325   0.903  13.870 -1.4421  0.1995  0.2691
 3984TIP3   OH233366   0.071   3.458   1.830  0.1891  0.3172  0.0104
 3984TIP3    H133367   0.001   3.489   1.772  0.1737 -2.2830 -1.5206
 3984TIP3    H233368   0.046   3.368   1.851  1.7353  0.2290  1.6962
 3985TIP3   OH233369   1.512   0.772   5.026 -0.4670 -0.8584  0.4143
 3985TIP3    H133370   1.426   0.787   5.067 -0.0880 -0.9339  1.2440
 3985TIP3    H233371   1.491   0.746   4.936 -1.2734  0.8482  0.0665
 3986TIP3   OH233372   0.588   1.066  11.919  0.0440  0.1299  0.3024
 3986TIP3    H133373   0.537   1.052  11.999 -1.3387  0.3080 -0.5171
 3986TIP3    H233374   0.525   1.099  11.856  1.3164  0.9428 -0.5891
 3987TIP3   OH233375   2.705   6.305   2.060 -0.0343  0.0957 -0.4653
 3987TIP3    H133376   2.734   6.226   2.107 -0.8184  1.7120  3.0883
 3987TIP3    H233377   2.733   6.290   1.970  1.7121 -3.3092  0.4338
 3988TIP3   OH233378   4.440   5.749   3.406 -0.2523 -0.0957  0.5366
 3988TIP3    H133379   4.394   5.753   3.322  0.9358 -1.2387 -0.2029
 3988TIP3    H233380   4.501   5.676   3.397 -0.6050 -0.7249  2.6680
 3989TIP3   OH233381   4.586   6.707  10.711  0.4013  0.1202  0.5473
 3989TIP3    H133382   4.643   6.735  10.783  0.9963  0.8335 -0.1780
 3989TIP3    H233383   4.511   6.667  10.755 -0.0208  1.9674  1.6412
 3990TIP3   OH233384   5.324   5.089   6.175  0.4783 -0.1004  0.1252
 3990TIP3    H133385   5.365   5.010   6.210  1.1836  0.5945  0.9076
 3990TIP3    H233386   5.307   5.068   6.083  0.6178 -1.1754  0.3330
 3991TIP3   OH233387   5.373   5.065  16.990 -0.8709  0.0759  0.3144
 3991TIP3    H133388   5.344   5.007  17.060  1.2708 -1.6066 -0.0634
 3991TIP3    H233389   5.339   5.025  16.910 -1.0610  0.4727  0.1958
 3992TIP3   OH233390   0.742   0.131  12.518 -0.0155 -0.4446 -0.0700
 3992TIP3    H133391   0.672   0.196  12.511  0.0450 -0.3615  0.0863
 3992TIP3    H233392   0.700   0.054  12.557 -0.2366 -0.7312 -0.8537
 3993TIP3   OH233393   6.333   6.058   5.470 -0.1634 -0.2100  0.0639
 3993TIP3    H133394   6.239   6.046   5.487 -0.5669 -0.7319 -2.3035
 3993TIP3    H233395   6.367   6.093   5.553 -2.2961 -0.6784  1.2166
 3994TIP3   OH233396   1.330   3.999   5.193  0.4118  0.1121  0.2268
 3994TIP3    H133397   1.269   3.999   5.266 -1.0251 -1.4922 -0.8704
 3994TIP3    H233398   1.415   3.978   5.232  0.0382  1.0562  1.6187
 3995TIP3   OH233399   1.946   3.319  15.120  0.5253  0.1636  0.3618
 3995TIP3    H133400   1.977   3.378  15.051  0.8792 -1.7096 -1.1621
 3995TIP3    H233401   2.024   3.302  15.173  0.4689  0.8717  0.6858
 3996TIP3   OH233402   3.030   0.415  11.485 -0.2867 -0.0582 -0.2846
 3996TIP3    H133403   3.041   0.352  11.414 -1.0587  1.6965 -2.0330
 3996TIP3    H233404   2.976   0.369  11.549  0.0281 -1.5223 -1.0186
 3997TIP3   OH233405   4.512   3.617   2.845 -0.4810  0.1136  0.0004
 3997TIP3    H133406   4.502   3.523   2.833  0.2488 -0.0536  0.6223
 3997TIP3    H233407   4.432   3.644   2.889 -0.7805 -0.1774 -0.3563
 3998TIP3   OH233408   1.723   0.799  16.312  0.0492  0.1055 -0.5844
 3998TIP3    H133409   1.639   0.754  16.307  0.2276 -0.7915  2.3834
 3998TIP3    H233410   1.703   0.890  16.293 -1.7734  0.0463  0.7724
 3999TIP3   OH233411   4.174   4.039   5.096  0.3843  0.3784  0.3948
 3999TIP3    H133412   4.100   4.080   5.140  0.0167  1.2415 -0.9646
 3999TIP3    H233413   4.141   4.016   5.010  1.4849  0.0554  0.0443
 4000TIP3   OH233414   3.922   6.402  11.682  0.0582  0.3164 -0.0134
 4000TIP3    H133415   3.951   6.335  11.744  1.6010 -0.6243 -1.6605
 4000TIP3    H233416   3.992   6.467  11.683  0.0683  0.3178 -0.7312
 4001TIP3   OH233417   4.653   2.110   0.500 -0.0011 -0.0339  0.5143
 4001TIP3    H133418   4.744   2.092   0.525  0.0243 -1.1035 -0.2636
 4001TIP3    H233419   4.658   2.194   0.454  0.7644 -0.4794 -0.2735
 4002TIP3   OH233420   5.879   4.163  12.578  0.2172  0.6778  0.3650
 4002TIP3    H133421   5.819   4.115  12.636  0.0603 -0.6727 -0.8770
 4002TIP3    H233422   5.873   4.118  12.494  1.1055  2.0649 -0.4782
 4003TIP3   OH233423   6.417   1.651  12.719  0.3675  0.1391 -0.0272
 4003TIP3    H133424   6.328   1.628  12.745  0.4958 -0.2936  0.0272
 4003TIP3    H233425   6.473   1.618  12.789  0.4782  1.4943  0.5607
 4004TIP3   OH233426   6.422   4.916   2.380 -0.0260 -0.7642  0.0693
 4004TIP3    H133427   6.485   4.853   2.346 -0.8890 -1.4053 -0.3808
 4004TIP3    H233428   6.348   4.863   2.410 -0.6710  0.0091 -0.0996
 4005TIP3   OH233429   6.292   5.439  10.533 -0.2328  0.2007 -0.2901
 4005TIP3    H133430   6.346   5.507  10.574  1.2800 -1.1248  0.0209
 4005TIP3    H233431   6.279   5.374  10.601 -3.2235  0.9538 -0.0246
 4006TIP3   OH233432   3.108   1.539  14.300  0.2014  0.4781 -0.4252
 4006TIP3    H133433   3.124   1.456  14.345  2.2625  1.7383  1.2748
 4006TIP3    H233434   3.013   1.538  14.284 -0.4516 -0.6786  2.6990
 4007TIP3   OH233435   2.913   0.919   3.614 -0.5811 -0.5612 -0.0232
 4007TIP3    H133436   2.905   0.853   3.683  1.5098 -1.5208 -0.6173
 4007TIP3    H233437   2.936   1.000   3.661 -0.3231 -0.9400  0.5135
 4008TIP3   OH233438   2.096   5.188   4.926  0.7086 -0.0615 -0.2419
 4008TIP3    H133439   2.156   5.118   4.901  0.3211 -1.0017  1.3402
 4008TIP3    H233440   2.052   5.212   4.844  0.4255 -2.1044 -0.7444
 4009TIP3   OH233441   2.848   2.752   2.535 -0.1412  1.2635 -0.5799
 4009TIP3    H133442   2.791   2.784   2.465 -1.1607  1.8429  0.4902
 4009TIP3    H233443   2.854   2.824   2.597  1.3223  1.0113 -0.3731
 4010TIP3   OH233444   6.279   3.748  11.898  0.5562 -0.0163  0.2427
 4010TIP3    H133445   6.208   3.730  11.836  0.5851 -1.3081  0.5633
 4010TIP3    H233446   6.253   3.829  11.941 -0.4476 -0.1635 -0.0619
 4011TIP3   OH233447   0.099   0.963   0.054 -0.4350 -0.2777  0.1137
 4011TIP3    H133448   0.112   1.057   0.062  3.3055 -0.6247  0.2869
 4011TIP3    H233449   0.039   0.940   0.125 -0.1177  1.8065  1.1282
 4012TIP3   OH233450   3.347   4.570  12.385  0.0066  0.1424  0.6969
 4012TIP3    H133451   3.423   4.516  12.363  0.5586  0.6302  1.3653
 4012TIP3    H233452   3.318   4.607  12.301 -0.6031 -1.4423  0.1691
 4013TIP3   OH233453   1.442   2.882  12.235 -0.2476 -0.2692  0.5077
 4013TIP3    H133454   1.418   2.827  12.160 -3.9996 -1.1394  2.1105
 4013TIP3    H233455   1.473   2.820  12.301 -0.3618  0.0470  0.8598
 4014TIP3   OH233456   0.669   5.729   3.554 -0.5327 -0.3336  0.2693
 4014TIP3    H133457   0.580   5.696   3.569 -0.9287  0.8765  0.7145
 4014TIP3    H233458   0.670   5.756   3.463 -0.5659 -0.5124  0.2157
 4015TIP3   OH233459   6.348   5.053  14.814  0.6273 -0.3638  0.2881
 4015TIP3    H133460   6.361   4.962  14.786  0.2534 -0.6628  1.0596
 4015TIP3    H233461   6.396   5.105  14.749 -0.8998 -0.9738 -1.4170
 4016TIP3   OH233462   6.045   3.813  16.609 -0.5233 -0.1509  0.0031
 4016TIP3    H133463   6.043   3.815  16.513  0.4833 -1.5188 -0.0702
 4016TIP3    H233464   5.953   3.807  16.634 -0.7781 -0.1908 -0.8883
 4017TIP3   OH233465   2.776   3.348   1.530  0.3225  0.3415  0.2562
 4017TIP3    H133466   2.734   3.268   1.562 -1.0382  1.2624  0.8652
 4017TIP3    H233467   2.863   3.320   1.502 -0.3245 -1.4543 -0.0788
 4018TIP3   OH233468   6.017   0.317  13.653  0.6795  0.3795  0.5231
 4018TIP3    H133469   6.053   0.336  13.567 -0.2445 -2.5767 -0.6371
 4018TIP3    H233470   6.011   0.222  13.657 -1.2457  0.4783  3.0453
 4019TIP3   OH233471   1.417   5.880   3.492 -0.1293 -0.4141 -0.5881
 4019TIP3    H133472   1.510   5.867   3.476 -0.7731 -3.0842 -2.8948
 4019TIP3    H233473   1.387   5.937   3.421 -0.4010 -0.1165 -0.2445
 4020TIP3   OH233474   4.591   6.736   3.455 -0.0454 -0.3514  0.1600
 4020TIP3    H133475   4.629   6.730   3.367  0.0229  0.6952  0.1045
 4020TIP3    H233476   4.622   6.658   3.500 -0.1582 -0.9498 -0.7758
 4021TIP3   OH233477   3.066   5.967  16.844 -0.4777 -0.2942  0.2615
 4021TIP3    H133478   3.005   5.894  16.846  0.2377 -0.9060  0.3075
 4021TIP3    H233479   3.063   5.999  16.754 -1.2048 -0.0060  0.3766
 4022TIP3   OH233480   6.767   1.960   1.993 -0.1661  0.1189  0.2547
 4022TIP3    H133481   6.780   2.055   1.992  0.7782 -0.0050 -0.0063
 4022TIP3    H233482   6.726   1.941   1.909  0.0479  0.2492  0.1175
 4023TIP3   OH233483   0.844   3.950   1.307  0.0855 -0.7243 -0.0456
 4023TIP3    H133484   0.795   4.024   1.343 -0.0245 -0.5119 -0.6171
 4023TIP3    H233485   0.929   3.987   1.283  0.1168 -0.8358 -0.1065
 4024TIP3   OH233486   4.249   3.076  16.075  0.1383 -0.6133  0.3236
 4024TIP3    H133487   4.162   3.110  16.095 -0.4476 -1.9027  0.0411
 4024TIP3    H233488   4.261   3.003  16.136 -0.2124 -2.3457 -1.5836
 4025TIP3   OH233489   0.905   4.127  16.833  0.0729  0.5297  0.0477
 4025TIP3    H133490   0.829   4.074  16.857  1.5168 -1.7998 -0.2076
 4025TIP3    H233491   0.872   4.189  16.768 -1.5802 -0.5090 -0.1505
 4026TIP3   OH233492   1.625   3.064  16.544 -0.9074  0.3548 -0.5014
 4026TIP3    H133493   1.623   2.969  16.542  1.4067  0.2254  0.5059
 4026TIP3    H233494   1.630   3.089  16.451  0.3853 -0.6142 -0.7263
 4027TIP3   OH233495   3.980   0.327  15.830  0.0616 -0.0682 -0.0385
 4027TIP3    H133496   4.022   0.327  15.744  0.7552 -0.6771  0.2954
 4027TIP3    H233497   3.955   0.236  15.844  1.1866 -0.2405  0.9918
 4028TIP3   OH233498   4.179   0.145  12.060  0.5213  0.0225 -0.1815
 4028TIP3    H133499   4.192   0.220  12.118  0.9249  0.0599 -0.3132
 4028TIP3    H233500   4.098   0.105  12.090  0.5556  0.2330  0.1997
 4029TIP3   OH233501   2.550   1.399  16.737 -0.3060  0.1279  0.1933
 4029TIP3    H133502   2.624   1.339  16.725 -0.5413 -0.8537  2.9430
 4029TIP3    H233503   2.579   1.481  16.697  0.9037 -1.1386 -1.7240
 4030TIP3   OH233504   1.436   5.968  12.850  0.3022 -0.2168 -0.3086
 4030TIP3    H133505   1.504   6.022  12.810  1.2548 -1.4484 -0.4426
 4030TIP3    H233506   1.356   6.019  12.842  1.3797  1.7743  0.8422
 4031TIP3   OH233507   3.030   4.524  14.880 -0.0158 -0.2151 -0.2709
 4031TIP3    H133508   2.988   4.585  14.819  1.5907 -0.7636 -2.0451
 4031TIP3    H233509   3.115   4.564  14.898 -0.3677 -0.1903  1.4759
 4032TIP3   OH233510   2.170   4.690   0.043 -1.0482  0.0053 -0.1855
 4032TIP3    H133511   2.099   4.708  -0.019 -1.7919  1.3172  0.9920
 4032TIP3    H233512   2.141   4.729   0.125  0.8563  0.2141  0.4418
 4033TIP3   OH233513   0.733   5.821   2.366 -0.3913  0.7045  0.5178
 4033TIP3    H133514   0.824   5.811   2.395  0.3640 -0.6794 -1.9523
 4033TIP3    H233515   0.722   5.915   2.353  0.3340  0.9885  1.8191
 4034TIP3   OH233516   1.033   3.500  16.513  0.4890  0.5750 -0.0824
 4034TIP3    H133517   0.978   3.544  16.449  0.3396  3.1015  1.6445
 4034TIP3    H233518   0.972   3.470  16.581  0.9884  1.3696  0.7335
 4035TIP3   OH233519   2.498   2.053   1.485 -0.1123  0.3994  0.5108
 4035TIP3    H133520   2.591   2.053   1.467 -0.3882  1.4564 -1.1271
 4035TIP3    H233521   2.478   2.144   1.508 -1.0673  0.6627 -1.2138
 4036TIP3   OH233522   2.563   3.328   5.385 -0.9953  0.2107 -0.0114
 4036TIP3    H133523   2.492   3.275   5.421 -0.9046  0.8711  1.1957
 4036TIP3    H233524   2.522   3.411   5.362 -0.8277  0.1898 -0.3957
 4037TIP3   OH233525   1.722   3.597   0.614  0.5079 -0.3797 -0.1165
 4037TIP3    H133526   1.751   3.654   0.685  0.8190 -0.8183  0.1122
 4037TIP3    H233527   1.645   3.553   0.649  1.5467 -1.7503  0.5379
 4038TIP3   OH233528   0.878   2.117  13.555  0.2851  0.1292 -0.7804
 4038TIP3    H133529   0.966   2.098  13.523  0.7040  0.7839 -0.0645
 4038TIP3    H233530   0.877   2.083  13.645  0.3440  1.5163 -0.2296
 4039TIP3   OH233531   1.697   5.869  13.525  0.1782 -0.1212 -0.6842
 4039TIP3    H133532   1.707   5.908  13.612 -0.0233 -1.4390 -0.0396
 4039TIP3    H233533   1.631   5.922  13.481 -1.0592 -0.5074  0.6515
 4040TIP3   OH233534   2.374   0.766   5.408  0.2820  0.4337 -0.1834
 4040TIP3    H133535   2.378   0.725   5.494  0.9210 -0.9373 -0.8429
 4040TIP3    H233536   2.358   0.859   5.426 -0.7551 -0.0271  1.3541
 4041TIP3   OH233537   2.813   0.725   3.769 -0.9870  0.1638  0.3351
 4041TIP3    H133538   2.852   0.639   3.783  0.7690  0.6988 -0.9467
 4041TIP3    H233539   2.733   0.724   3.823 -0.7124 -2.0238  0.7998
 4042TIP3   OH233540   3.789   4.729   6.277  0.5561  0.0689  0.3202
 4042TIP3    H133541   3.757   4.740   6.188  1.1639 -1.5157 -0.1424
 4042TIP3    H233542   3.731   4.663   6.315  0.6467  0.3245  0.9031
 4043TIP3   OH233543   3.809   6.635  14.578  0.0945  0.0287  0.2667
 4043TIP3    H133544   3.882   6.697  14.568 -0.0398  0.1981  0.3237
 4043TIP3    H233545   3.742   6.669  14.519 -0.1591  0.2077  0.6519
 4044TIP3   OH233546   4.208   3.317   3.616 -0.6006  0.1111  0.1151
 4044TIP3    H133547   4.154   3.297   3.692  1.0475 -0.4679  1.1841
 4044TIP3    H233548   4.244   3.232   3.589  0.3241  0.5592 -0.1159
 4045TIP3   OH233549   5.123   3.530  17.012  0.2624 -0.0916  0.2082
 4045TIP3    H133550   5.029   3.546  17.000  0.5484 -0.1656 -3.0782
 4045TIP3    H233551   5.130   3.436  17.027 -0.2225  0.1032  1.8591
 4046TIP3   OH233552   5.028   1.395  14.988  0.2750 -0.0746  0.3222
 4046TIP3    H133553   5.061   1.386  15.077 -1.2808 -0.5041  0.8959
 4046TIP3    H233554   4.952   1.336  14.984  0.2287  0.0370 -1.2451
 4047TIP3   OH233555   6.063   4.390  15.436 -0.6321 -0.0757  0.3230
 4047TIP3    H133556   5.981   4.380  15.484 -0.7643  1.2824  0.4139
 4047TIP3    H233557   6.044   4.457  15.370 -0.5834 -2.1510 -1.9220
 4048TIP3   OH233558   4.949   0.108  12.460 -0.1535 -0.3166 -0.1666
 4048TIP3    H133559   4.954   0.071  12.548 -1.5489 -0.6133 -0.1933
 4048TIP3    H233560   5.020   0.065  12.412  0.2721 -0.5579  0.6615
 4049TIP3   OH233561   6.211   2.594  17.222  0.1827  0.2223  0.0302
 4049TIP3    H133562   6.286   2.610  17.165  0.8156 -0.0726  0.7615
 4049TIP3    H233563   6.188   2.503  17.206  0.1534  0.2345  0.0038
 4050TIP3   OH233564   5.053   5.111  14.526  0.0472  0.0785 -0.2185
 4050TIP3    H133565   4.959   5.102  14.544  0.0906 -0.7681 -0.3593
 4050TIP3    H233566   5.093   5.036  14.570  0.1136 -2.3059 -3.9002
 4051TIP3   OH233567   2.998   0.514  15.798 -0.1129 -0.0686  0.0533
 4051TIP3    H133568   2.911   0.553  15.811 -0.7750 -0.0470 -3.4736
 4051TIP3    H233569   3.053   0.557  15.863 -2.1910  1.9797  0.6027
 4052TIP3   OH233570   4.213   5.893   4.060  0.3786  0.1597 -0.1213
 4052TIP3    H133571   4.249   5.971   4.018 -0.4540  0.4849 -0.2584
 4052TIP3    H233572   4.144   5.864   4.001  0.8912 -0.8700 -0.2231
 4053TIP3   OH233573   0.546   5.275   2.118  0.8643 -0.0609  0.4589
 4053TIP3    H133574   0.640   5.282   2.135  1.1758 -2.1477 -0.0896
 4053TIP3    H233575   0.520   5.197   2.166 -1.2293  1.9740  2.9250
 4054TIP3   OH233576   2.895   6.382   4.906  0.5332 -0.3764 -0.4370
 4054TIP3    H133577   2.929   6.313   4.964  1.6255 -0.5527 -1.2535
 4054TIP3    H233578   2.823   6.342   4.859  0.7287 -0.7480 -0.4188
 4055TIP3   OH233579   6.137   1.745  10.948  0.3888  0.3037 -0.2213
 4055TIP3    H133580   6.206   1.808  10.928  1.1740 -0.1122  1.0817
 4055TIP3    H233581   6.171   1.662  10.915  0.6798  0.0353  0.7283
 4056TIP3   OH233582   5.943   6.568  16.884 -0.6844  0.0841 -0.4667
 4056TIP3    H133583   6.019   6.615  16.850 -0.3249 -0.5956 -0.6263
 4056TIP3    H233584   5.917   6.509  16.813 -0.5043 -0.6741  0.0850
 4057TIP3   OH233585   4.664   2.302   3.485 -0.5713 -0.1193 -0.4650
 4057TIP3    H133586   4.649   2.386   3.442 -1.0665  0.2210  0.3729
 4057TIP3    H233587   4.639   2.237   3.419 -0.8403  0.3887 -0.8700
 4058TIP3   OH233588   5.063   0.296   4.500  0.1195 -0.4988  0.4420
 4058TIP3    H133589   5.023   0.301   4.414 -0.0738 -0.1271  0.5481
 4058TIP3    H233590   5.095   0.206   4.507  0.3412 -0.4649 -0.1039
 4059TIP3   OH233591   3.330   6.283  14.173 -0.3431 -0.2130  0.0526
 4059TIP3    H133592   3.246   6.249  14.204 -0.7658 -0.4251 -1.2559
 4059TIP3    H233593   3.339   6.248  14.085  1.1206 -0.1613  0.1558
 4060TIP3   OH233594   0.334   0.621   2.889  0.4000 -0.1671 -0.3224
 4060TIP3    H133595   0.314   0.561   2.817 -0.2643 -0.2823 -0.0504
 4060TIP3    H233596   0.425   0.601   2.913  1.9029  2.1729 -3.3548
 4061TIP3   OH233597   2.661   4.398   3.116 -0.6225 -0.3192  0.2069
 4061TIP3    H133598   2.732   4.450   3.078  0.4028 -1.8069 -0.0276
 4061TIP3    H233599   2.674   4.405   3.210  1.1156 -2.1260  0.1787
 4062TIP3   OH233600   2.731   0.816   1.703  0.0146  0.0330 -0.1953
 4062TIP3    H133601   2.818   0.857   1.710  0.6089 -1.3488  1.0784
 4062TIP3    H233602   2.741   0.732   1.748 -2.1740  0.1316  0.5621
 4063TIP3   OH233603   0.793   0.821   3.522  0.0846 -0.4969 -0.4057
 4063TIP3    H133604   0.734   0.788   3.589 -0.8411 -0.2072 -1.0484
 4063TIP3    H233605   0.787   0.916   3.530 -0.3589 -0.4531 -1.1519
 4064TIP3   OH233606   6.546   4.660   2.076 -0.1496 -0.0768 -0.2278
 4064TIP3    H133607   6.528   4.626   2.164 -0.1362 -1.2896 -0.6663
 4064TIP3    H233608   6.594   4.589   2.033  5.1048  2.5343  0.5642
 4065TIP3   OH233609   0.037   0.966  13.589  0.0480  0.6199 -0.4133
 4065TIP3    H133610   0.086   0.993  13.667 -1.7088 -1.2202  1.4578
 4065TIP3    H233611   0.035   1.045  13.534  2.7846  1.5042  0.5742
 4066TIP3   OH233612   0.771   4.007   2.602 -0.4818  0.1370  0.5073
 4066TIP3    H133613   0.693   3.952   2.597 -0.5551  0.3537 -2.2073
 4066TIP3    H233614   0.844   3.947   2.587 -0.1589  0.1062  2.0259
 4067TIP3   OH233615   2.094   3.330   1.237  0.1668 -0.3915 -0.3845
 4067TIP3    H133616   2.029   3.398   1.247 -1.1963 -2.0142  3.2457
 4067TIP3    H233617   2.048   3.248   1.256  3.1464 -1.6277  2.6143
 4068TIP3   OH233618   1.188   5.634   6.689  0.0554  0.6728 -0.5330
 4068TIP3    H133619   1.279   5.664   6.681  0.1793  0.5867  0.3638
 4068TIP3    H233620   1.191   5.542   6.664  0.3404  0.5093  0.0685
 4069TIP3   OH233621   4.457   4.776   5.160 -0.1665  0.5458  0.4273
 4069TIP3    H133622   4.388   4.810   5.103 -1.2006 -0.8663  0.7657
 4069TIP3    H233623   4.410   4.740   5.235  0.7531 -1.8925 -0.0728
 4070TIP3   OH233624   0.198   5.058  15.335  0.7011  0.1623  0.2265
 4070TIP3    H133625   0.222   5.133  15.390 -0.5394 -0.3646  1.5541
 4070TIP3    H233626   0.112   5.031  15.368  0.0783 -0.4154 -1.7555
 4071TIP3   OH233627   5.090   2.569   0.563  1.2698 -0.7869 -0.5772
 4071TIP3    H133628   5.134   2.495   0.521 -0.6224 -0.7281 -2.9326
 4071TIP3    H233629   5.054   2.619   0.489 -2.1926 -0.5634  1.0894
 4072TIP3   OH233630   0.670   1.737  15.746 -0.6551 -0.1146  0.1178
 4072TIP3    H133631   0.741   1.711  15.805 -0.7057  0.8183  0.6028
 4072TIP3    H233632   0.685   1.685  15.667 -0.4540 -1.2272  0.8529
 4073TIP3   OH233633   4.447   0.794   0.854  0.6830  0.0485 -0.1701
 4073TIP3    H133634   4.477   0.883   0.867  1.5229 -0.4106  1.2121
 4073TIP3    H233635   4.356   0.794   0.885  0.5991  0.4643 -0.4087
 4074TIP3   OH233636   3.805   3.026   5.575  0.4677 -0.2744 -0.2646
 4074TIP3    H133637   3.854   2.944   5.575 -1.1635 -1.3261  1.3718
 4074TIP3    H233638   3.828   3.068   5.658  0.2314  0.2520 -0.4590
 4075TIP3   OH233639   5.639   1.149   0.553  0.0786  0.0412  1.0487
 4075TIP3    H133640   5.722   1.135   0.599  1.6552 -0.3332 -1.7345
 4075TIP3    H233641   5.610   1.062   0.528  0.0001  0.3361  0.1004
 4076TIP3   OH233642   2.132   0.591   4.190  0.7627  0.3259  0.2081
 4076TIP3    H133643   2.217   0.634   4.202  0.6315  0.6591 -0.0637
 4076TIP3    H233644   2.068   0.660   4.206  0.4749 -0.3962  2.5386
 4077TIP3   OH233645   1.162   2.474  14.850 -0.4338  0.1466  0.0772
 4077TIP3    H133646   1.245   2.493  14.807 -0.2554 -0.6077  0.0750
 4077TIP3    H233647   1.155   2.539  14.919 -0.9630  1.7052 -1.3794
 4078TIP3   OH233648   5.109   3.025  14.300  0.2260  0.1525  0.2418
 4078TIP3    H133649   5.135   3.117  14.300 -2.3902  1.0229 -1.7125
 4078TIP3    H233650   5.125   2.996  14.390 -0.8271  3.1738  1.5672
 4079TIP3   OH233651   4.689   3.228   2.571 -0.1409 -0.1164 -0.1912
 4079TIP3    H133652   4.713   3.141   2.602 -0.6854  0.6157  2.5852
 4079TIP3    H233653   4.762   3.254   2.514  2.0545 -0.8704  2.0780
 4080TIP3   OH233654   2.454   2.775   2.069 -0.3435 -0.6119  0.0015
 4080TIP3    H133655   2.368   2.769   2.111  0.7641  0.6227  2.6653
 4080TIP3    H233656   2.456   2.862   2.030  0.3989  0.2464  1.8285
 4081TIP3   OH233657   3.672   4.653  12.393  0.9406  0.1295 -0.1239
 4081TIP3    H133658   3.653   4.559  12.385 -0.4885  0.4945 -1.7854
 4081TIP3    H233659   3.613   4.684  12.462  0.1418  0.0944 -0.7777
 4082TIP3   OH233660   4.925   2.949  17.012  0.0624 -0.0619  0.4146
 4082TIP3    H133661   4.946   2.986  17.098  1.7661  0.2080 -0.0643
 4082TIP3    H233662   4.932   3.023  16.952  0.9697 -0.6293 -0.2128
 4083TIP3   OH233663   5.010   5.455   0.214  0.3595  0.5459 -0.7325
 4083TIP3    H133664   4.922   5.481   0.242 -0.3737 -1.6915 -0.7376
 4083TIP3    H233665   5.060   5.448   0.296 -0.2222 -0.6284 -0.4508
 4084TIP3   OH233666   4.139   1.278  16.685  0.1805  0.5244  0.1573
 4084TIP3    H133667   4.214   1.224  16.659  0.2534  0.7798 -0.1602
 4084TIP3    H233668   4.067   1.247  16.630 -0.2157 -0.4300  1.1793
 4085TIP3   OH233669   1.946   1.583  15.665  0.4405 -0.3097 -0.0662
 4085TIP3    H133670   1.862   1.540  15.685  0.0488  0.6587  0.3939
 4085TIP3    H233671   1.945   1.663  15.717  1.5671 -0.1835 -0.2284
 4086TIP3   OH233672   5.124   0.893  14.711 -0.0019  0.2926  0.0201
 4086TIP3    H133673   5.215   0.905  14.685 -1.2454  2.4158 -4.4637
 4086TIP3    H233674   5.091   0.982  14.725 -1.7380 -0.2735 -0.2216
 4087TIP3   OH233675   1.359   6.254   2.839  0.2402 -0.2456  0.0173
 4087TIP3    H133676   1.390   6.311   2.910 -0.3429  0.5440 -0.3396
 4087TIP3    H233677   1.438   6.222   2.796  0.6345  2.2668 -1.3125
 4088TIP3   OH233678   3.880   1.587  11.688  0.1687 -0.3803 -0.0269
 4088TIP3    H133679   3.949   1.618  11.630 -0.0866  0.8258  0.2954
 4088TIP3    H233680   3.924   1.523  11.745  0.5858 -1.0128 -1.0248
 4089TIP3   OH233681   3.522   0.446   1.182  0.5504 -0.4404 -0.1362
 4089TIP3    H133682   3.550   0.534   1.158  0.4691 -0.3974 -0.0699
 4089TIP3    H233683   3.562   0.390   1.116  0.3377 -0.3235 -0.3619
 4090TIP3   OH233684   4.925   5.922  13.775 -0.5030  0.5162 -0.1607
 4090TIP3    H133685   4.851   5.924  13.714 -1.0515 -3.0954  0.1518
 4090TIP3    H233686   4.884   5.919  13.862  0.0431  0.1308  0.0941
 4091TIP3   OH233687   3.709   1.479   1.222  0.3216  0.6188  0.4829
 4091TIP3    H133688   3.731   1.490   1.129 -1.3246 -1.5915 -0.2540
 4091TIP3    H233689   3.794   1.463   1.264  0.8662 -1.6945 -1.2421
 4092TIP3   OH233690   4.763   6.696  12.495 -0.0725 -0.2171  0.1104
 4092TIP3    H133691   4.710   6.752  12.439 -1.9292 -0.5387  1.4376
 4092TIP3    H233692   4.818   6.756  12.545 -0.6515  0.2948  0.1419
 4093TIP3   OH233693   4.645   3.163  15.559 -0.1263 -0.7744  0.2332
 4093TIP3    H133694   4.728   3.124  15.536  0.1979 -0.4316  0.7901
 4093TIP3    H233695   4.668   3.249  15.594 -0.7091 -0.6920  0.4258
 4094TIP3   OH233696   6.331   2.455  15.524 -0.4052 -0.3680  0.0600
 4094TIP3    H133697   6.413   2.460  15.573  0.2694  0.9694 -1.1192
 4094TIP3    H233698   6.262   2.459  15.591  0.4572 -1.6965  1.0804
 4095TIP3   OH233699   6.584   1.469  13.775  0.0817 -0.2442  0.5286
 4095TIP3    H133700   6.672   1.499  13.753  0.9412 -1.6388  1.8600
 4095TIP3    H233701   6.528   1.506  13.707  2.0178 -1.1726 -1.6821
 4096TIP3   OH233702   0.128   4.992   5.730  0.3627  0.6620 -0.2266
 4096TIP3    H133703   0.073   5.026   5.800  0.6163 -0.9505  0.7869
 4096TIP3    H233704   0.086   5.022   5.649 -0.1576  2.1913  0.5788
 4097TIP3   OH233705   1.144   5.299  13.232  0.1682  0.3417  0.1216
 4097TIP3    H133706   1.210   5.242  13.272  1.0629  1.1819 -0.1198
 4097TIP3    H233707   1.123   5.363  13.301  1.3451  1.4903 -0.5566
 4098TIP3   OH233708   2.874   6.566   4.583  0.0274 -0.4489  0.1783
 4098TIP3    H133709   2.916   6.481   4.576 -0.1835 -0.5020 -0.6220
 4098TIP3    H233710   2.880   6.603   4.495 -3.4825 -1.3892 -0.6293
 4099TIP3   OH233711   0.677   5.818   2.654  0.3993  0.4129  0.0053
 4099TIP3    H133712   0.721   5.781   2.578  2.0090  1.2585  0.4705
 4099TIP3    H233713   0.740   5.808   2.726 -1.3744 -1.0857  1.4535
 4100TIP3   OH233714   2.626   2.756  17.004 -0.0560 -0.3500 -0.2135
 4100TIP3    H133715   2.638   2.813  17.080 -1.4097  0.3228 -0.4852
 4100TIP3    H233716   2.542   2.783  16.967  0.4327 -0.9015 -1.7606
 4101TIP3   OH233717   3.498   2.490   5.346 -0.0202 -0.2804 -0.0117
 4101TIP3    H133718   3.545   2.523   5.270 -1.6938  0.4718 -0.7580
 4101TIP3    H233719   3.566   2.447   5.399  1.1680 -0.9079 -1.9427
 4102TIP3   OH233720   1.057   2.997   1.219 -0.1159  0.6810  0.2573
 4102TIP3    H133721   1.073   3.063   1.286  0.9225  1.8805 -1.1007
 4102TIP3    H233722   1.116   3.020   1.147 -0.7380 -0.9046 -0.8406
 4103TIP3   OH233723   1.111   6.129  16.392  0.0943  0.0406 -0.1191
 4103TIP3    H133724   1.038   6.174  16.349  1.1552  0.2597 -1.7701
 4103TIP3    H233725   1.184   6.136  16.330  0.6318 -2.9940  0.0132
 4104TIP3   OH233726   2.332   3.713   6.191  0.1488  0.3542 -0.0106
 4104TIP3    H133727   2.403   3.773   6.212  0.0201  0.3921  0.3196
 4104TIP3    H233728   2.344   3.639   6.251 -0.1626  0.4162  0.1260
 4105TIP3   OH233729   0.132   0.219  11.930 -0.2969  0.1489  0.5152
 4105TIP3    H133730   0.117   0.125  11.943 -1.0146 -0.0895 -1.6316
 4105TIP3    H233731   0.071   0.262  11.990  0.0886 -0.7327  1.5689
 4106TIP3   OH233732   5.476   5.296   5.384 -0.4976  0.2098 -0.0815
 4106TIP3    H133733   5.544   5.304   5.451 -0.2893 -0.1414 -0.2467
 4106TIP3    H233734   5.397   5.276   5.433 -0.4055  0.2421  0.0822
 4107TIP3   OH233735   5.092   5.748   3.568  0.1945 -0.1995 -0.3807
 4107TIP3    H133736   5.091   5.810   3.640  0.4278  2.3320 -2.4251
 4107TIP3    H233737   5.006   5.706   3.570  0.2579 -0.2831  1.3998
 4108TIP3   OH233738   1.720   5.808  14.223 -0.2068  0.3947 -0.0223
 4108TIP3    H133739   1.769   5.740  14.177 -1.5177 -0.1903 -0.5957
 4108TIP3    H233740   1.779   5.883  14.225  0.6831 -0.2669 -0.7354
 4109TIP3   OH233741   1.580   1.283   2.466  0.0068  0.2369 -0.7707
 4109TIP3    H133742   1.502   1.315   2.420 -0.0345  0.1458 -0.7650
 4109TIP3    H233743   1.615   1.360   2.510 -0.2624  0.2143 -0.5122
 4110TIP3   OH233744   3.774   1.786   0.534 -0.1496  0.4804  0.4447
 4110TIP3    H133745   3.861   1.747   0.543  0.4137  1.3286 -1.0950
 4110TIP3    H233746   3.776   1.864   0.590 -0.2293  0.0514  1.0630
 4111TIP3   OH233747   0.382   5.793   2.352  0.1175 -0.2481  0.2608
 4111TIP3    H133748   0.301   5.746   2.372 -0.2048  0.8779  1.8036
 4111TIP3    H233749   0.449   5.725   2.344 -0.8388 -1.1436 -0.4045
 4112TIP3   OH233750   0.379   1.491  11.817 -1.0296 -0.0068  0.3938
 4112TIP3    H133751   0.398   1.448  11.900  0.3903 -0.0787  0.0567
 4112TIP3    H233752   0.338   1.423  11.763  1.3549 -1.0784 -0.1976
 4113TIP3   OH233753   2.909   0.468   5.654  0.2823 -0.2755 -0.3410
 4113TIP3    H133754   2.894   0.375   5.671  1.0155 -0.5487 -1.0856
 4113TIP3    H233755   2.848   0.490   5.583 -1.4122  0.3780  1.2404
 4114TIP3   OH233756   3.279   2.107  15.776  0.2938 -0.0300 -0.2842
 4114TIP3    H133757   3.190   2.135  15.754  0.3399  1.6863  1.5034
 4114TIP3    H233758   3.332   2.135  15.702 -0.6095 -1.0119 -1.3423
 4115TIP3   OH233759   0.987   6.768   2.506 -0.5171  0.8124  0.6108
 4115TIP3    H133760   1.073   6.807   2.523 -0.1559 -0.2985  1.4647
 4115TIP3    H233761   0.991   6.682   2.548 -1.8711  0.5333  0.2156
 4116TIP3   OH233762   2.251   3.503   2.802 -0.9629  0.0014 -1.0808
 4116TIP3    H133763   2.267   3.528   2.893 -2.6250  1.8805 -1.2309
 4116TIP3    H233764   2.275   3.410   2.798  1.8647  0.5457  0.5336
 4117TIP3   OH233765   2.978   5.927   6.079  0.4818  0.2023  0.2483
 4117TIP3    H133766   2.956   5.949   6.169 -0.8028  0.8400 -0.2039
 4117TIP3    H233767   2.966   5.832   6.074  0.0321  0.2406  0.5969
 4118TIP3   OH233768   4.886   5.611  15.112  0.2599 -0.1676  0.2910
 4118TIP3    H133769   4.870   5.703  15.133  0.1391  0.1242 -0.9850
 4118TIP3    H233770   4.799   5.570  15.115  0.0078  0.2019 -1.0415
 4119TIP3   OH233771   2.930   4.396   6.052 -0.1833  0.9782  0.4306
 4119TIP3    H133772   3.016   4.383   6.011  0.4799 -0.7911  2.2380
 4119TIP3    H233773   2.869   4.353   5.992  0.3545  1.0029 -0.1540
 4120TIP3   OH233774   3.034   4.679  15.134 -0.2335  0.0375  0.0773
 4120TIP3    H133775   2.970   4.706  15.068 -0.8054  2.1797  1.4078
 4120TIP3    H233776   3.115   4.663  15.085 -0.8387  0.8652 -1.2236
 4121TIP3   OH233777   2.444   1.163   5.707 -0.2594  0.5080 -0.1345
 4121TIP3    H133778   2.525   1.197   5.669  0.0058  0.0264 -0.0085
 4121TIP3    H233779   2.375   1.213   5.663 -0.0462 -0.9141 -2.2202
 4122TIP3   OH233780   4.873   0.302   4.289 -0.0573 -0.3738  0.4934
 4122TIP3    H133781   4.818   0.329   4.215  2.2339  0.5897 -0.9856
 4122TIP3    H233782   4.825   0.232   4.331 -1.4952 -0.9442 -1.9204
 4123TIP3   OH233783   4.623   1.004  13.605  0.0156  0.2300  0.0171
 4123TIP3    H133784   4.686   1.051  13.660  0.0961 -1.0299  1.0281
 4123TIP3    H233785   4.601   0.925  13.654 -1.6259  0.1559 -0.7567
 4124TIP3   OH233786   3.214   4.129   3.038  0.3426 -0.3452 -0.4442
 4124TIP3    H133787   3.293   4.184   3.042 -1.7241  2.7923  2.4210
 4124TIP3    H233788   3.185   4.136   2.947  1.8935  0.5975 -0.9165
 4125TIP3   OH233789   4.032   5.348  15.477 -0.0592  0.3979  0.6213
 4125TIP3    H133790   4.038   5.434  15.519 -0.8562  1.6062 -1.5588
 4125TIP3    H233791   4.113   5.340  15.427  0.5304 -0.6719  1.7048
 4126TIP3   OH233792   4.406   6.415   5.171  0.3438  0.7913 -0.1964
 4126TIP3    H133793   4.400   6.361   5.250 -1.7710  1.8826  0.4604
 4126TIP3    H233794   4.470   6.483   5.193 -0.6068  1.3916  0.8003
 4127TIP3   OH233795   4.328   5.768   0.729  0.2373  0.3657  0.2095
 4127TIP3    H133796   4.260   5.835   0.737  2.0599  2.2393  0.8724
 4127TIP3    H233797   4.393   5.792   0.795  1.6030 -1.3050 -0.4498
 4128TIP3   OH233798   5.347   2.247   0.053  0.4193 -0.9684 -0.4166
 4128TIP3    H133799   5.303   2.274  -0.027  0.3949 -0.6816 -0.3072
 4128TIP3    H233800   5.424   2.199   0.023 -0.6248 -2.6195 -0.6248
 4129TIP3   OH233801   1.321   2.350   0.304  0.0188 -0.2916  0.1672
 4129TIP3    H133802   1.260   2.423   0.310 -0.6529 -0.6165 -1.9165
 4129TIP3    H233803   1.404   2.389   0.278  0.2665 -0.0575  1.2443
 4130TIP3   OH233804   6.383   6.397  15.169 -0.4181  0.3374 -0.1691
 4130TIP3    H133805   6.464   6.448  15.171  0.0637 -0.3808 -0.7768
 4130TIP3    H233806   6.313   6.463  15.162  0.1049  0.9623  0.3715
 4131TIP3   OH233807   5.129   4.289  13.477  0.6793  0.2163 -0.3972
 4131TIP3    H133808   5.173   4.247  13.551 -0.9449  0.9619  1.0606
 4131TIP3    H233809   5.200   4.324  13.424  1.9164 -0.6591  0.6093
 4132TIP3   OH233810   1.414   6.228   4.448  0.2392 -0.8633 -0.4646
 4132TIP3    H133811   1.400   6.178   4.528  0.5819 -0.7264 -0.3180
 4132TIP3    H233812   1.503   6.204   4.420  0.8690  0.5532  0.2520
 4133TIP3   OH233813   3.029   0.102  16.960  0.2831  0.8276  0.5386
 4133TIP3    H133814   3.112   0.061  16.936 -1.2206 -1.9505 -0.4120
 4133TIP3    H233815   3.008   0.159  16.886  1.2916  1.5423  0.7789
 4134TIP3   OH233816   5.107   4.648   2.669 -0.5265 -0.1395  0.4936
 4134TIP3    H133817   5.201   4.665   2.660 -0.7704  0.1742 -3.7152
 4134TIP3    H233818   5.079   4.701   2.743  2.2891  1.2081  0.7135
 4135TIP3   OH233819   0.849   1.297   4.502 -0.3356  0.6902 -0.0645
 4135TIP3    H133820   0.808   1.358   4.441 -0.3837 -0.1505 -0.9015
 4135TIP3    H233821   0.870   1.350   4.578 -0.6774  1.6774 -0.6348
 4136TIP3   OH233822   1.304   0.313   0.573 -0.2096 -0.3265  0.5395
 4136TIP3    H133823   1.386   0.356   0.598 -0.8125  0.4929  1.1722
 4136TIP3    H233824   1.330   0.245   0.511  0.8229  0.7273 -0.2221
 4137TIP3   OH233825   3.535   5.415   2.472  0.3579 -0.1927  0.2529
 4137TIP3    H133826   3.539   5.441   2.563  0.5039  0.7269 -0.0061
 4137TIP3    H233827   3.605   5.351   2.462 -2.0270 -3.3100  1.6760
 4138TIP3   OH233828   3.960   1.263  15.048 -0.3537 -0.6660  0.0088
 4138TIP3    H133829   4.049   1.278  15.079 -1.0836 -0.0587  1.9141
 4138TIP3    H233830   3.906   1.323  15.099 -1.7133  0.1569 -2.2200
 4139TIP3   OH233831   5.869   1.601  16.177  0.0884 -0.2230  0.2790
 4139TIP3    H133832   5.794   1.633  16.127  0.6577  1.1154  0.2466
 4139TIP3    H233833   5.887   1.669  16.242  0.3947 -1.1818  1.2408
 4140TIP3   OH233834   6.382   5.571  16.066 -0.7060  0.2475 -0.5015
 4140TIP3    H133835   6.348   5.515  15.996 -2.1348  1.1617 -0.5930
 4140TIP3    H233836   6.309   5.581  16.127  0.1538  0.4041  0.5339
 4141TIP3   OH233837   0.390   3.445  12.335  0.1644 -0.0576 -0.2415
 4141TIP3    H133838   0.369   3.448  12.242  0.6135 -0.6229 -0.3632
 4141TIP3    H233839   0.482   3.421  12.338  0.1791  0.0648  0.3463
 4142TIP3   OH233840   5.972   2.943  13.714  0.6991  0.3734 -0.2125
 4142TIP3    H133841   5.882   2.945  13.680  0.4564  0.1161  0.4038
 4142TIP3    H233842   6.020   2.887  13.653  0.0206 -0.9600  0.4422
 4143TIP3   OH233843   2.126   5.265   1.411 -0.0022 -0.3554 -0.1271
 4143TIP3    H133844   2.059   5.201   1.383 -0.4793 -0.2397  0.7278
 4143TIP3    H233845   2.166   5.294   1.329 -0.5276 -0.9431 -0.6075
 4144TIP3   OH233846   5.032   2.824   1.229  0.3777  0.2046  0.2790
 4144TIP3    H133847   4.996   2.891   1.287  1.2227 -0.3939  1.5550
 4144TIP3    H233848   5.112   2.795   1.273  1.9350  0.7976 -1.9497
 4145TIP3   OH233849   1.428   4.198   3.195  0.2458 -0.4957  0.5498
 4145TIP3    H133850   1.383   4.125   3.237 -0.0289 -1.6565 -1.6379
 4145TIP3    H233851   1.468   4.160   3.117  0.2196  1.6494 -0.5780
 4146TIP3   OH233852   4.223   5.484  13.900 -0.3012 -0.0761 -0.7695
 4146TIP3    H133853   4.223   5.513  13.809  0.9053 -1.6543 -1.3116
 4146TIP3    H233854   4.159   5.412  13.902 -2.8441  2.0233  0.4328
 4147TIP3   OH233855   3.346   2.669   6.390  0.4588  0.0303 -0.0547
 4147TIP3    H133856   3.431   2.648   6.428 -0.5486 -1.0386  1.7403
 4147TIP3    H233857   3.318   2.587   6.349 -0.2992 -0.0375  0.5848
 4148TIP3   OH233858   1.607   5.030  17.231 -0.4449  0.6496 -0.1724
 4148TIP3    H133859   1.658   5.101  17.191  1.6966 -0.1885  0.8774
 4148TIP3    H233860   1.576   5.067  17.314 -0.7342  0.8534 -0.3688
 4149TIP3   OH233861   2.759   1.283   0.009  0.3065 -0.4697 -0.6132
 4149TIP3    H133862   2.762   1.376   0.030 -0.8461 -0.5267 -0.1304
 4149TIP3    H233863   2.837   1.269  -0.046 -0.2728  1.0704 -1.9202
 4150TIP3   OH233864   1.516   5.188   3.334 -0.0670  0.2077  0.2000
 4150TIP3    H133865   1.580   5.118   3.321 -0.2412  0.0161  0.3726
 4150TIP3    H233866   1.568   5.263   3.362  0.1241  0.1564 -0.0182
 4151TIP3   OH233867   1.349   2.933  16.686 -0.2558 -0.1824  0.2538
 4151TIP3    H133868   1.356   2.983  16.768  0.4347 -0.2296  0.2318
 4151TIP3    H233869   1.430   2.882  16.683 -0.7949 -1.0453  0.1015
 4152TIP3   OH233870   2.373   1.773   0.424 -0.6080 -0.6241  0.1760
 4152TIP3    H133871   2.379   1.696   0.480  1.4155 -0.3706  0.3995
 4152TIP3    H233872   2.401   1.743   0.337  0.0973 -0.2019  0.2411
 4153TIP3   OH233873   6.058   0.924   0.837 -0.1727  0.2455  0.2021
 4153TIP3    H133874   6.122   0.859   0.808 -0.7986  0.1169 -0.9386
 4153TIP3    H233875   6.017   0.955   0.757 -0.4685  1.4568  0.8043
 4154TIP3   OH233876   1.642   2.533   6.090 -0.2313 -0.3272 -0.5998
 4154TIP3    H133877   1.681   2.445   6.088 -0.6656 -0.5619  0.7492
 4154TIP3    H233878   1.675   2.572   6.170  1.7036  1.5950 -2.2102
 4155TIP3   OH233879   0.310   0.908  16.754 -1.0263 -0.1583 -0.4554
 4155TIP3    H133880   0.279   0.925  16.843 -1.1286  0.9520 -0.6898
 4155TIP3    H233881   0.286   0.987  16.705 -0.5724 -0.5717 -1.3609
 4156TIP3   OH233882   4.207   0.959   0.661  0.1942  0.7261 -0.4670
 4156TIP3    H133883   4.271   0.998   0.721 -0.5385  0.9845  0.1672
 4156TIP3    H233884   4.125   0.960   0.710 -0.2399  0.1375 -1.1619
 4157TIP3   OH233885   0.669   3.158  16.248 -0.1180 -0.4137 -0.2046
 4157TIP3    H133886   0.714   3.113  16.319 -1.4382  1.0317  1.6389
 4157TIP3    H233887   0.718   3.239  16.236 -1.2368  0.4291  0.7182
 4158TIP3   OH233888   3.592   2.290  17.124 -0.5585  0.4683  0.4087
 4158TIP3    H133889   3.641   2.303  17.043 -2.2212  0.4859 -0.6337
 4158TIP3    H233890   3.569   2.379  17.153 -1.3930  0.4002 -0.0231
 4159TIP3   OH233891   3.899   3.895  16.236  0.3464  0.2665 -0.0732
 4159TIP3    H133892   3.963   3.889  16.165  0.4787 -0.7911  0.1143
 4159TIP3    H233893   3.847   3.815  16.228  0.9437 -0.3294  1.5560
 4160TIP3   OH233894   4.076   1.921  15.061 -0.0784 -0.1003 -0.4264
 4160TIP3    H133895   4.018   1.845  15.065 -0.6560  0.0731 -3.3971
 4160TIP3    H233896   4.157   1.887  15.022  0.0844  0.5674 -0.6859
 4161TIP3   OH233897   6.676   5.246  15.314 -0.0615  0.7650  0.7910
 4161TIP3    H133898   6.604   5.304  15.292 -0.4551  0.7988  2.0998
 4161TIP3    H233899   6.671   5.235  15.409  1.6349  0.7513  0.9176
 4162TIP3   OH233900   3.887   2.529  14.569  0.1695  0.0207  0.5357
 4162TIP3    H133901   3.817   2.463  14.572 -3.0479  3.1163  2.0472
 4162TIP3    H233902   3.908   2.544  14.661  1.0164  0.9054  0.2048
 4163TIP3   OH233903   4.663   0.638   0.613  0.4519 -0.3662  0.3325
 4163TIP3    H133904   4.653   0.717   0.665 -0.2285 -1.1722  1.4594
 4163TIP3    H233905   4.695   0.670   0.528 -4.0348  1.6796 -0.8878
 4164TIP3   OH233906   2.027   1.766   5.574 -0.0663  0.3856  0.2541
 4164TIP3    H133907   2.074   1.795   5.652  0.8393  0.7247 -0.4055
 4164TIP3    H233908   2.053   1.827   5.505 -0.1448 -0.4424 -0.5359
 4165TIP3   OH233909   0.968   0.762  12.143 -0.4447  0.5522  0.2733
 4165TIP3    H133910   1.028   0.808  12.201 -0.9536  2.4189 -0.6119
 4165TIP3    H233911   0.882   0.801  12.161 -0.8014  0.3560 -0.8948
 4166TIP3   OH233912   2.864   4.628   0.032 -0.1018  0.0043  0.3554
 4166TIP3    H133913   2.953   4.656   0.051 -0.0358 -1.6791  3.0308
 4166TIP3    H233914   2.809   4.701   0.061  0.3278  0.3806  0.2259
 4167TIP3   OH233915   5.900   5.507  14.209 -0.3212 -0.2363  0.0492
 4167TIP3    H133916   5.864   5.490  14.122  1.7853 -0.3309 -0.8541
 4167TIP3    H233917   5.872   5.596  14.229  1.3566  0.8321 -1.9543
 4168TIP3   OH233918   2.876   4.478   2.831 -0.7297 -0.3539  0.1917
 4168TIP3    H133919   2.890   4.546   2.764 -2.6300 -0.5106 -0.4349
 4168TIP3    H233920   2.860   4.398   2.781  2.9355 -1.7204  0.9199
 4169TIP3   OH233921   4.283   3.433   2.408  0.7005  0.2209 -0.1502
 4169TIP3    H133922   4.266   3.511   2.356 -1.4366 -0.6269 -0.8512
 4169TIP3    H233923   4.369   3.402   2.379  0.0593  0.4002 -2.4190
 4170TIP3   OH233924   3.731   6.457   5.781 -0.7326 -0.4498 -0.2781
 4170TIP3    H133925   3.738   6.553   5.780 -1.4836 -0.3705 -2.3690
 4170TIP3    H233926   3.819   6.428   5.804 -0.2308  0.7476 -0.5748
 4171TIP3   OH233927   4.609   2.778   2.874  0.0922  0.2499 -0.4671
 4171TIP3    H133928   4.680   2.824   2.830 -0.4643  0.9355 -0.6749
 4171TIP3    H233929   4.537   2.841   2.877 -0.7372 -0.6333 -0.8597
 4172TIP3   OH233930   5.052   2.119   0.421  0.3264 -0.2043  0.4285
 4172TIP3    H133931   4.999   2.080   0.351  1.9309 -1.0852 -0.3693
 4172TIP3    H233932   5.108   2.048   0.451  2.0833  1.0030  0.1932
 4173TIP3   OH233933   4.147   3.876  12.156  0.1498 -0.1688  0.0829
 4173TIP3    H133934   4.114   3.788  12.136 -1.5179  0.6611 -1.0063
 4173TIP3    H233935   4.120   3.891  12.247 -0.3320 -0.4589 -0.0065
 4174TIP3   OH233936   5.167   0.829   4.535  0.3166  0.3872  0.0332
 4174TIP3    H133937   5.121   0.791   4.609  1.0537  3.0268  2.0049
 4174TIP3    H233938   5.249   0.779   4.529 -0.2022 -0.5091  0.3099
 4175TIP3   OH233939   1.220   3.969  12.731 -0.0978  0.5070  0.1201
 4175TIP3    H133940   1.233   4.058  12.764  0.7343  0.2878  0.3912
 4175TIP3    H233941   1.140   3.939  12.775  0.0704  0.8231  0.6490
 4176TIP3   OH233942   2.335   3.505  15.593 -0.2902  0.0484  0.4773
 4176TIP3    H133943   2.421   3.528  15.629 -1.4352  0.7504  2.9553
 4176TIP3    H233944   2.335   3.410  15.590  0.6706  0.0462  0.1528
 4177TIP3   OH233945   0.973   1.036   1.828  0.6582  0.0099 -0.0508
 4177TIP3    H133946   1.050   1.087   1.803  1.4418  0.5777  3.0891
 4177TIP3    H233947   1.008   0.957   1.868 -0.5213 -1.5989 -2.0523
 4178TIP3   OH233948   3.253   1.193   1.768 -0.3340 -0.5196  0.0095
 4178TIP3    H133949   3.163   1.222   1.781  0.1319  1.7072 -1.2032
 4178TIP3    H233950   3.246   1.119   1.709 -1.3307  0.2653 -0.9022
 4179TIP3   OH233951   2.580   5.689  10.868  0.7517  0.5776  0.2758
 4179TIP3    H133952   2.487   5.706  10.850 -0.2076  0.4482  4.2127
 4179TIP3    H233953   2.619   5.775  10.881  0.6108  0.5677  0.8033
 4180TIP3   OH233954   0.817   3.381  16.618  0.3506 -0.0028 -0.3880
 4180TIP3    H133955   0.728   3.349  16.630  1.0505 -1.8974  0.0433
 4180TIP3    H233956   0.852   3.390  16.707  0.9906 -0.5103 -0.5818
 4181TIP3   OH233957   0.635   3.641   1.272 -0.3137  0.2003  0.4631
 4181TIP3    H133958   0.581   3.624   1.349 -1.7199  1.4807 -0.1767
 4181TIP3    H233959   0.669   3.556   1.247 -2.3652 -0.7657  0.6972
 4182TIP3   OH233960   2.327   3.440  11.206  0.2623  0.2695  0.0164
 4182TIP3    H133961   2.331   3.499  11.281  1.2302 -1.1071  1.1027
 4182TIP3    H233962   2.389   3.477  11.143 -1.8166  2.4117 -0.9274
 4183TIP3   OH233963   5.154   5.258   0.666 -0.6603 -0.2393 -0.4341
 4183TIP3    H133964   5.246   5.247   0.639  0.1018  0.4818  1.6458
 4183TIP3    H233965   5.121   5.168   0.674  0.8916 -0.7090  1.8272
 4184TIP3   OH233966   2.686   5.844  12.697 -0.0205 -0.5683  0.3478
 4184TIP3    H133967   2.768   5.824  12.653  0.3360  0.7140  0.3873
 4184TIP3    H233968   2.699   5.812  12.787 -0.1696 -1.7813 -0.0484
 4185TIP3   OH233969   3.299   3.041   1.381  0.0564  0.2293  0.5859
 4185TIP3    H133970   3.240   2.968   1.363  0.6598 -0.4375  1.2249
 4185TIP3    H233971   3.277   3.107   1.316 -1.8221  0.2495  1.2063
 4186TIP3   OH233972   1.035   2.660  11.723  0.0380 -0.6143  0.3631
 4186TIP3    H133973   1.000   2.606  11.795  1.2504  0.5284  1.8658
 4186TIP3    H233974   0.979   2.737  11.722  0.6830 -0.1385  0.8005
 4187TIP3   OH233975   1.695   2.189  17.001 -0.1274 -0.3219 -0.1980
 4187TIP3    H133976   1.744   2.108  17.011  1.9595  0.6263 -1.8361
 4187TIP3    H233977   1.699   2.231  17.087  0.7758 -0.9163  0.0654
 4188TIP3   OH233978   0.115   0.713   3.027 -0.0099  0.2985  0.2851
 4188TIP3    H133979   0.174   0.647   2.991  0.3157  1.6858 -1.8488
 4188TIP3    H233980   0.163   0.795   3.020 -1.1491  1.0719  1.1227
 4189TIP3   OH233981   6.003   4.030  12.914  0.2633  0.3010  0.4234
 4189TIP3    H133982   6.032   4.022  12.824 -0.8580 -0.6002  0.1210
 4189TIP3    H233983   5.990   4.124  12.928 -0.4684  0.3720 -0.6568
 4190TIP3   OH233984   5.269   2.361  15.066  0.2477 -0.4080  0.3077
 4190TIP3    H133985   5.207   2.434  15.068  0.4843 -0.1666 -0.5830
 4190TIP3    H233986   5.234   2.298  15.129 -0.4207  0.1065  0.4667
 4191TIP3   OH233987   3.103   4.714   1.285  0.7836 -0.2237  0.0450
 4191TIP3    H133988   3.097   4.661   1.206  0.0495  0.4529 -0.3634
 4191TIP3    H233989   3.158   4.788   1.260  1.1789 -0.3955  0.3940
 4192TIP3   OH233990   5.517   2.247   2.937  0.0232  0.1832  0.1817
 4192TIP3    H133991   5.427   2.277   2.922 -0.1057 -0.0729  0.4339
 4192TIP3    H233992   5.519   2.158   2.902 -0.0154 -0.0634  0.7906
 4193TIP3   OH233993   4.688   2.178  12.597  0.1362  0.1315 -0.1729
 4193TIP3    H133994   4.605   2.226  12.599  0.5186  0.8010  0.4414
 4193TIP3    H233995   4.713   2.175  12.505 -0.0826  0.8119 -0.2624
 4194TIP3   OH233996   1.723   3.997   4.721 -0.2352 -1.0607  0.1865
 4194TIP3    H133997   1.705   3.904   4.713 -0.6664 -1.0642  1.0302
 4194TIP3    H233998   1.667   4.026   4.794 -3.1488  0.6586 -2.4350
 4195TIP3   OH233999   2.874   2.272  12.783 -0.2065  0.3575 -0.0149
 4195TIP3    H134000   2.932   2.201  12.808 -1.3735  0.1252  2.3398
 4195TIP3    H234001   2.903   2.298  12.696  1.7326 -1.4306  0.0308
 4196TIP3   OH234002   1.479   0.235  11.222  0.1233  0.2441 -0.5225
 4196TIP3    H134003   1.406   0.294  11.208  0.5620  0.6869 -1.0048
 4196TIP3    H234004   1.499   0.200  11.135  1.3886  1.2297 -0.6707
 4197TIP3   OH234005   3.185   5.242   5.381  0.4606  0.2485 -0.2086
 4197TIP3    H134006   3.228   5.156   5.383 -0.1233 -0.1563 -2.3581
 4197TIP3    H234007   3.092   5.222   5.369  0.2774  1.1850 -0.4351
 4198TIP3   OH234008   2.842   0.758   5.696  0.1269  0.1475 -0.1872
 4198TIP3    H134009   2.826   0.665   5.711 -0.2712  0.1538 -0.5461
 4198TIP3    H234010   2.800   0.803   5.769 -0.1759  0.0760 -0.3174
 4199TIP3   OH234011   3.487   5.581  11.857 -0.0754 -0.2285  0.7796
 4199TIP3    H134012   3.510   5.495  11.823  1.9044 -0.4863  2.6436
 4199TIP3    H234013   3.537   5.642  11.803 -0.5834 -0.2778  0.2285
 4200TIP3   OH234014   5.069   4.473   0.332 -0.5467  0.3711  0.0008
 4200TIP3    H134015   5.132   4.411   0.370 -0.5390  1.9506  2.8504
 4200TIP3    H234016   5.115   4.509   0.256  0.3058 -1.4589 -0.4230
 4201TIP3   OH234017   2.480   6.330   5.215  0.1288 -0.0710  0.1461
 4201TIP3    H134018   2.515   6.245   5.239 -1.2336 -1.0738 -1.2062
 4201TIP3    H234019   2.553   6.376   5.175  1.0577 -0.3228  1.5170
 4202TIP3   OH234020   6.413   0.569   4.545  0.4104 -0.9469 -0.3428
 4202TIP3    H134021   6.407   0.502   4.613  0.3273 -2.7841 -2.0292
 4202TIP3    H234022   6.359   0.641   4.576  1.4329 -1.1479  2.0806
 4203TIP3   OH234023   3.388   0.915  16.866 -0.0411 -0.0281  0.1793
 4203TIP3    H134024   3.314   0.935  16.808  1.0232 -0.7763 -1.5070
 4203TIP3    H234025   3.461   0.965  16.830  0.7352 -0.8011  0.6416
 4204TIP3   OH234026   0.176   3.165   4.185  0.4544  0.4160  0.5882
 4204TIP3    H134027   0.110   3.143   4.251 -1.2122  0.7184 -0.8899
 4204TIP3    H234028   0.190   3.259   4.196 -0.1235  0.5454  0.2807
 4205TIP3   OH234029   3.580   5.072   5.346 -0.1656  0.6625 -0.0347
 4205TIP3    H134030   3.632   5.134   5.295  0.0782 -0.3264 -1.0363
 4205TIP3    H234031   3.644   5.008   5.378 -0.2675  1.4192  1.8051
 4206TIP3   OH234032   4.981   3.885  13.004  0.3957  0.0093 -0.1575
 4206TIP3    H134033   4.986   3.817  13.071 -0.7918 -0.0252 -0.0832
 4206TIP3    H234034   4.905   3.861  12.951  0.0838  1.1600 -0.2537
 4207TIP3   OH234035   6.680   6.669   1.753 -0.3591 -0.1389 -0.1212
 4207TIP3    H134036   6.653   6.689   1.663 -2.2130 -1.0778  0.1766
 4207TIP3    H234037   6.697   6.755   1.792 -2.0193  0.4736 -0.6615
 4208TIP3   OH234038   0.073   0.683  13.543 -0.1178 -0.1534 -0.1228
 4208TIP3    H134039   0.055   0.776  13.559 -0.3776 -0.2579  0.1883
 4208TIP3    H234040  -0.003   0.637  13.577  0.9206 -0.6484  1.6907
 4209TIP3   OH234041   2.802   1.533   2.194  0.1526 -0.4336 -0.4775
 4209TIP3    H134042   2.790   1.446   2.156  2.0149  0.4608 -3.4845
 4209TIP3    H234043   2.892   1.532   2.227 -0.1652  0.0730  0.4479
 4210TIP3   OH234044   4.065   5.224   6.263 -0.2181  0.5441  0.0768
 4210TIP3    H134045   4.072   5.225   6.168 -0.2335 -1.7017  0.0051
 4210TIP3    H234046   4.153   5.202   6.293 -0.7870 -1.3414  0.4343
 4211TIP3   OH234047   1.523   1.659  13.749  0.5165 -0.5115  0.2654
 4211TIP3    H134048   1.491   1.700  13.829  0.5834  0.8827 -0.3838
 4211TIP3    H234049   1.618   1.669  13.753  0.5074 -0.2439 -0.0666
 4212TIP3   OH234050   1.466   2.551   0.173 -0.0442  0.2923 -0.1840
 4212TIP3    H134051   1.383   2.598   0.160  0.5862  1.5971  0.3977
 4212TIP3    H234052   1.524   2.615   0.213  0.2854 -1.5138  2.4324
 4213TIP3   OH234053   0.631   0.188   3.101  0.5840  0.3030  0.2171
 4213TIP3    H134054   0.627   0.246   3.025 -0.7476  0.3084  0.2743
 4213TIP3    H234055   0.684   0.114   3.072  0.8141  0.7138 -0.4287
 4214TIP3   OH234056   5.058   2.365  10.957 -0.2260 -0.1872  0.3454
 4214TIP3    H134057   5.120   2.354  10.885  0.2028 -0.0225  0.6835
 4214TIP3    H234058   5.036   2.458  10.955 -0.6240 -0.2858  0.0962
 4215TIP3   OH234059   4.701   1.646   2.775  0.0107 -0.3131  0.0298
 4215TIP3    H134060   4.764   1.716   2.793 -0.0496  0.3448 -2.0020
 4215TIP3    H234061   4.747   1.565   2.800 -0.2642  0.4077  3.3202
 4216TIP3   OH234062   1.552   2.552  14.251 -0.4790  0.2697  0.3532
 4216TIP3    H134063   1.587   2.637  14.279  1.5481  0.2712 -1.8919
 4216TIP3    H234064   1.562   2.496  14.327  1.4186  1.1841  0.8519
 4217TIP3   OH234065   3.364   2.895  12.553  0.2992  0.5494  0.0882
 4217TIP3    H134066   3.269   2.890  12.541  0.2056  0.7406  0.7330
 4217TIP3    H234067   3.389   2.977  12.510  0.1941  0.4422 -0.1827
 4218TIP3   OH234068   5.564   4.177  11.609  0.1181  0.1419 -0.1276
 4218TIP3    H134069   5.556   4.090  11.571 -1.5292 -0.2919  1.1056
 4218TIP3    H234070   5.478   4.195  11.646  0.5848  2.0779  0.1278
 4219TIP3   OH234071   5.018   5.915  12.361 -0.2778  0.6658 -0.0024
 4219TIP3    H134072   5.080   5.985  12.345 -0.2603  0.2555 -1.8847
 4219TIP3    H234073   4.938   5.943  12.317 -0.2857 -0.4523 -0.7294
 4220TIP3   OH234074   6.478   0.032  15.070 -0.1817 -0.2408  0.5611
 4220TIP3    H134075   6.568   0.051  15.098 -0.8230  1.7196  1.4903
 4220TIP3    H234076   6.424   0.054  15.146 -1.5055 -0.7535 -0.1971
 4221TIP3   OH234077   5.470   1.741  15.505  0.5698  0.3045  0.1544
 4221TIP3    H134078   5.478   1.684  15.428 -0.6544  0.8303 -0.3878
 4221TIP3    H234079   5.469   1.829  15.469  0.4810  0.5754  0.8137
 4222TIP3   OH234080   6.346   1.535  15.170  0.1176 -0.4085  0.4373
 4222TIP3    H134081   6.310   1.618  15.139 -0.5050 -0.4382  1.0563
 4222TIP3    H234082   6.293   1.513  15.247  0.7228 -1.0337  0.6862
 4223TIP3   OH234083   0.047   0.321  15.004 -0.5530  0.5815 -0.4533
 4223TIP3    H134084   0.140   0.343  15.010 -0.4517  0.1080 -0.3108
 4223TIP3    H234085   0.009   0.395  14.957 -0.2850  1.2678  0.3893
 4224TIP3   OH234086   3.966   0.491   3.748 -0.1362  0.4566  0.2022
 4224TIP3    H134087   4.010   0.572   3.724 -1.1216  0.8959 -0.1368
 4224TIP3    H234088   3.939   0.504   3.839 -0.7193  0.7027 -0.0030
 4225TIP3   OH234089   0.121   0.232   2.293 -0.0410  1.1043 -0.2730
 4225TIP3    H134090   0.201   0.188   2.319 -1.0792 -0.3116  0.7071
 4225TIP3    H234091   0.115   0.219   2.198  1.5763  2.4916 -0.6093
 4226TIP3   OH234092   1.639   1.139   3.454 -0.0424  0.0968  0.3875
 4226TIP3    H134093   1.707   1.139   3.387  0.3562  0.5053  0.7821
 4226TIP3    H234094   1.612   1.047   3.460 -2.2756  0.4316 -2.4713
 4227TIP3   OH234095   3.611   3.562   4.210 -0.3228  0.3080 -0.7120
 4227TIP3    H134096   3.596   3.576   4.116 -1.4070  0.5631 -0.5131
 4227TIP3    H234097   3.609   3.650   4.247  0.9994  0.2927 -0.5514
 4228TIP3   OH234098   5.236   1.764  11.116  0.0249 -0.2201 -0.1628
 4228TIP3    H134099   5.149   1.734  11.087 -0.3144 -0.2982  0.8969
 4228TIP3    H234100   5.297   1.717  11.059 -0.6022 -0.7441 -0.4239
 4229TIP3   OH234101   1.276   5.573  11.763  0.1331  0.3581 -0.0302
 4229TIP3    H134102   1.242   5.485  11.747  1.1722 -0.0506 -0.0743
 4229TIP3    H234103   1.237   5.626  11.693 -0.4600 -0.0664 -0.0333
 4230TIP3   OH234104   3.586   0.824   3.442 -0.7501  0.1211  0.3329
 4230TIP3    H134105   3.558   0.908   3.406 -1.1838 -0.2831 -0.3095
 4230TIP3    H234106   3.682   0.824   3.432 -0.9059 -0.2555 -1.5143
 4231TIP3   OH234107   0.074   3.755  13.385 -0.0181 -0.2361  0.5911
 4231TIP3    H134108   0.022   3.778  13.308  1.3708  1.1062 -0.0159
 4231TIP3    H234109   0.132   3.686  13.355 -0.1103 -0.3566  0.6920
 4232TIP3   OH234110   4.514   4.450  14.970 -0.2565 -0.3510 -0.2654
 4232TIP3    H134111   4.582   4.404  15.018 -1.1293 -0.3890  1.0023
 4232TIP3    H234112   4.436   4.394  14.979 -1.0029  0.7205  0.2023
 4233TIP3   OH234113   0.439   4.975  14.700  0.2355  0.4514  0.1377
 4233TIP3    H134114   0.481   4.994  14.617  0.3018  0.2997  0.1357
 4233TIP3    H234115   0.346   4.967  14.679  0.4050 -0.9785 -0.1752
 4234TIP3   OH234116   3.371   4.091  12.482 -0.0982  0.5736 -0.5896
 4234TIP3    H134117   3.362   4.159  12.549  0.8490  1.0456 -0.9271
 4234TIP3    H234118   3.463   4.095  12.456 -0.6865  1.2818 -2.8111
 4235TIP3   OH234119   5.127   1.431  16.469  0.1402  0.1856  0.5753
 4235TIP3    H134120   5.083   1.475  16.397  0.1071 -0.5795  0.1120
 4235TIP3    H234121   5.208   1.397  16.431 -0.2127 -0.8339  0.7035
 4236TIP3   OH234122   2.770   3.284  12.175  0.3842  0.5343 -0.5667
 4236TIP3    H134123   2.786   3.202  12.129 -2.0177 -0.2419 -0.1622
 4236TIP3    H234124   2.848   3.298  12.229  1.3616 -0.8109 -1.5910
 4237TIP3   OH234125   0.154   3.669   0.002 -0.8252 -0.0475 -0.1581
 4237TIP3    H134126   0.098   3.741  -0.027 -0.3927  2.1093  3.7611
 4237TIP3    H234127   0.093   3.606   0.041 -0.9213 -0.4681 -0.9455
 4238TIP3   OH234128   2.474   0.693  14.919  0.2345 -0.0311  0.5335
 4238TIP3    H134129   2.402   0.636  14.948 -0.2745  0.3299  0.0093
 4238TIP3    H234130   2.550   0.663  14.969  0.0792 -1.4509 -0.0318
 4239TIP3   OH234131   6.465   4.881  12.827  0.3347  0.0155  0.1832
 4239TIP3    H134132   6.522   4.842  12.894  0.2391  0.1816  0.3625
 4239TIP3    H234133   6.446   4.968  12.860 -1.0312 -0.4655  0.7461
 4240TIP3   OH234134   4.706   1.086  12.734  0.3595 -0.2141  0.1595
 4240TIP3    H134135   4.628   1.094  12.789  0.2952 -0.8895  0.1654
 4240TIP3    H234136   4.743   1.174  12.734 -0.2114  0.0356  0.4376
 4241TIP3   OH234137   0.094   4.763   2.748  0.4204 -0.1797 -0.1444
 4241TIP3    H134138   0.186   4.767   2.774  0.7454  1.5234 -1.3714
 4241TIP3    H234139   0.074   4.852   2.719 -1.0732 -0.9840 -1.7467
 4242TIP3   OH234140   0.225   1.978   1.017  0.3873  0.2622  0.3576
 4242TIP3    H134141   0.298   1.981   1.078 -0.6395  0.6300  1.6085
 4242TIP3    H234142   0.182   2.063   1.026 -1.0946 -0.5043  0.8026
 4243TIP3   OH234143   3.504   3.551  11.322  0.1405 -0.2474  0.0504
 4243TIP3    H134144   3.417   3.534  11.286  0.4686 -0.8612 -0.4707
 4243TIP3    H234145   3.541   3.619  11.266 -0.7709  1.5472  1.5087
 4244TIP3   OH234146   0.885   2.121  16.854 -0.1471  0.4653 -0.0356
 4244TIP3    H134147   0.818   2.161  16.799 -0.4255  0.3197  0.1923
 4244TIP3    H234148   0.961   2.178  16.844 -0.4261  0.8514  0.0020
 4245TIP3   OH234149   3.404   3.677   0.372 -0.1269 -0.3809 -0.5042
 4245TIP3    H134150   3.421   3.603   0.431  2.8991  0.5349 -0.0341
 4245TIP3    H234151   3.444   3.652   0.289  2.2370  1.1514  0.0637
 4246TIP3   OH234152   1.031   5.727   5.981  0.6097 -0.2872  0.2168
 4246TIP3    H134153   1.006   5.640   6.011  0.5029 -0.0356  0.8661
 4246TIP3    H234154   1.123   5.736   6.005  0.1634  0.4428  1.7484
 4247TIP3   OH234155   5.779   5.466   3.499 -0.1620 -0.4009 -0.2898
 4247TIP3    H134156   5.742   5.525   3.434  0.6707  0.2203 -0.2151
 4247TIP3    H234157   5.738   5.492   3.582  1.3192  1.1491  0.0211
 4248TIP3   OH234158   4.902   4.320   5.340  0.6486  0.0221 -0.4551
 4248TIP3    H134159   4.913   4.380   5.414 -0.2839  2.0928 -1.8912
 4248TIP3    H234160   4.815   4.340   5.306 -0.5495 -3.5924  0.1217
 4249TIP3   OH234161   4.745   5.868   1.472 -0.1090 -0.1090  0.2390
 4249TIP3    H134162   4.653   5.844   1.459 -0.1723  0.1012  0.2971
 4249TIP3    H234163   4.794   5.799   1.428 -0.3164  0.4713 -0.9362
 4250TIP3   OH234164   4.456   6.461  13.150  0.1317  0.0740  0.1893
 4250TIP3    H134165   4.385   6.485  13.090  1.0631  3.2987  0.1952
 4250TIP3    H234166   4.417   6.472  13.237 -0.5204 -2.3071  0.2613
 4251TIP3   OH234167   6.065   1.639   5.176 -0.3453  0.1668 -0.0413
 4251TIP3    H134168   6.150   1.598   5.193 -1.4452 -2.0288  0.5287
 4251TIP3    H234169   6.062   1.714   5.236  0.1839 -1.2213  1.7992
 4252TIP3   OH234170   3.991   2.993  16.986 -0.0276 -0.5754 -0.5146
 4252TIP3    H134171   3.987   2.913  17.038 -0.7195 -0.8047 -0.8968
 4252TIP3    H234172   4.074   2.988  16.939  1.9489  0.9061  2.5069
 4253TIP3   OH234173   1.581   2.910   3.833 -0.4708 -0.1038  0.3450
 4253TIP3    H134174   1.654   2.864   3.791 -1.3087 -2.4211  1.2307
 4253TIP3    H234175   1.616   2.996   3.856  0.6365  0.5291 -3.1318
 4254TIP3   OH234176   0.287   5.877   1.546 -0.5930  0.8136  0.0007
 4254TIP3    H134177   0.274   5.835   1.631 -0.2310 -1.0848 -0.8096
 4254TIP3    H234178   0.242   5.819   1.485  2.0731  0.1828 -1.5165
 4255TIP3   OH234179   1.695   2.956   3.076  0.2139  0.1283 -0.5924
 4255TIP3    H134180   1.689   2.910   3.160 -1.1216  0.9812 -0.1980
 4255TIP3    H234181   1.621   2.923   3.025 -0.4151  1.3763 -0.5182
 4256TIP3   OH234182   5.217   1.195   3.610  0.2237 -0.3879 -0.1842
 4256TIP3    H134183   5.231   1.117   3.664 -0.3143 -0.8291 -0.6672
 4256TIP3    H234184   5.303   1.237   3.605  0.2631 -0.2953  1.0760
 4257TIP3   OH234185   5.257   3.644   5.075 -0.2261  0.3472  0.1540
 4257TIP3    H134186   5.338   3.597   5.092 -1.0343 -1.6122 -1.0519
 4257TIP3    H234187   5.212   3.646   5.159  0.0636 -0.6206  0.3424
 4258TIP3   OH234188   2.387   2.045   1.237  0.4749  0.2346  0.4640
 4258TIP3    H134189   2.298   2.080   1.230  1.0995  1.5176 -2.7298
 4258TIP3    H234190   2.413   2.063   1.328 -1.7998  1.6517  0.9033
 4259TIP3   OH234191   0.644   0.526  15.054  0.1477  0.3665  0.0152
 4259TIP3    H134192   0.548   0.525  15.053  0.1498  0.7351 -0.5491
 4259TIP3    H234193   0.668   0.449  15.003  0.1565  0.1675  0.3146
 4260TIP3   OH234194   2.379   1.801   5.309  0.0441 -0.0751 -0.3837
 4260TIP3    H134195   2.425   1.881   5.284  0.5794 -0.2906 -0.0858
 4260TIP3    H234196   2.448   1.739   5.334 -0.4409 -0.0368  1.1594
 4261TIP3   OH234197   1.534   5.436   4.385 -0.2419 -0.2729 -0.2050
 4261TIP3    H134198   1.518   5.428   4.291  0.0019 -0.8123 -0.2080
 4261TIP3    H234199   1.545   5.530   4.400 -2.8413  0.1000 -0.2690
 4262TIP3   OH234200   0.895   1.380   2.346 -0.2112 -0.5609  0.7720
 4262TIP3    H134201   0.807   1.416   2.357 -0.1820  1.0630 -2.7365
 4262TIP3    H234202   0.886   1.318   2.273  1.2636 -1.7020  1.5089
 4263TIP3   OH234203   1.114   4.961   3.159  0.1548  0.7778 -0.9365
 4263TIP3    H134204   1.196   4.918   3.181  0.3312  2.0976  1.3088
 4263TIP3    H234205   1.138   5.051   3.140 -0.6785  0.9823 -1.0844
 4264TIP3   OH234206   3.273   3.685  13.262  0.1594  0.3269 -0.0563
 4264TIP3    H134207   3.348   3.651  13.213 -0.3328 -0.7819 -0.0631
 4264TIP3    H234208   3.287   3.655  13.351 -1.2089 -1.5633 -0.4099
 4265TIP3   OH234209   5.577   0.586  17.097 -0.0839  0.2221 -0.0230
 4265TIP3    H134210   5.567   0.629  17.012  0.4708 -0.8326 -0.6474
 4265TIP3    H234211   5.527   0.505  17.088  0.2996 -0.0796  0.5167
 4266TIP3   OH234212   0.488   2.301  11.410  0.2538 -0.5749 -0.6427
 4266TIP3    H134213   0.555   2.317  11.476 -0.7917 -1.2500  0.6446
 4266TIP3    H234214   0.496   2.374  11.349 -0.0212  1.1892  1.3257
 4267TIP3   OH234215   5.163   0.340   1.739  0.2099  0.3166  0.3581
 4267TIP3    H134216   5.196   0.424   1.770 -1.3166  1.0279  0.1349
 4267TIP3    H234217   5.086   0.362   1.687  0.2012 -1.1787 -0.2994
 4268TIP3   OH234218   6.297   3.111   0.301 -0.4351  0.3478  0.3501
 4268TIP3    H134219   6.248   3.037   0.265  0.1871  0.3841 -0.6226
 4268TIP3    H234220   6.236   3.184   0.300  0.1561  1.0084 -3.0257
 4269TIP3   OH234221   4.459   1.690  12.063  0.2589  0.0157 -0.0540
 4269TIP3    H134222   4.495   1.678  12.150 -2.0141  0.9544  1.1051
 4269TIP3    H234223   4.410   1.609  12.046 -0.4289  0.3824  0.1468
 4270TIP3   OH234224   1.463   2.390  12.441  0.1610  0.6360 -0.2375
 4270TIP3    H134225   1.447   2.357  12.352  1.7272  1.7116 -0.9630
 4270TIP3    H234226   1.460   2.312  12.496  2.4378 -0.6232 -1.7089
 4271TIP3   OH234227   2.526   5.042   0.822  0.3759 -0.0755 -0.5603
 4271TIP3    H134228   2.535   4.952   0.790  2.1721 -1.0958  2.4232
 4271TIP3    H234229   2.563   5.040   0.910 -0.1883  3.4730 -0.0990
 4272TIP3   OH234230   5.417   6.608  14.690 -0.4721  0.3312 -0.4692
 4272TIP3    H134231   5.485   6.660  14.646 -0.4664 -0.8476 -1.9583
 4272TIP3    H234232   5.431   6.519  14.658 -0.8124 -0.5044  1.6028
 4273TIP3   OH234233   2.685   2.162   0.505  0.3765 -0.0637  0.5181
 4273TIP3    H134234   2.593   2.182   0.484  0.2218 -2.4453 -1.4430
 4273TIP3    H234235   2.680   2.108   0.584  0.0211 -0.8572 -0.0441
 4274TIP3   OH234236   0.373   1.879  15.978 -0.5087 -0.0092 -0.1789
 4274TIP3    H134237   0.309   1.846  16.041 -1.9434  0.6717 -1.2125
 4274TIP3    H234238   0.443   1.917  16.032 -1.2765 -0.2167  0.9926
 4275TIP3   OH234239   1.919   6.379  12.311  0.2974 -0.0180  0.8055
 4275TIP3    H134240   1.869   6.297  12.313 -0.0315  0.1767  0.6498
 4275TIP3    H234241   1.869   6.439  12.365  0.4121  0.1515  0.7232
 4276TIP3   OH234242   4.052   0.500   1.267  0.2101  0.3665 -0.0276
 4276TIP3    H134243   4.016   0.490   1.179 -1.9437  0.1228  0.8209
 4276TIP3    H234244   4.084   0.591   1.269 -1.2243  0.9187 -0.5692
 4277TIP3   OH234245   6.339   6.236  16.634 -0.2958 -0.1427  0.4902
 4277TIP3    H134246   6.278   6.239  16.560  1.2280  0.8177 -0.7900
 4277TIP3    H234247   6.385   6.153  16.624  0.1916  0.1680  0.1021
 4278TIP3   OH234248   2.977   6.571   5.543 -0.0177  0.5230 -0.3828
 4278TIP3    H134249   2.953   6.528   5.624 -3.2224  1.8220 -0.5088
 4278TIP3    H234250   3.072   6.557   5.536 -0.0732 -1.9770  2.1038
 4279TIP3   OH234251   0.998   3.348   3.054 -0.0585  0.7007  0.8228
 4279TIP3    H134252   1.092   3.359   3.073  0.0748  0.2649  0.4527
 4279TIP3    H234253   0.959   3.327   3.138 -0.4552  4.4752  1.7453
 4280TIP3   OH234254   0.898   2.256  12.174  0.2205 -0.2052  0.1516
 4280TIP3    H134255   0.843   2.234  12.099  0.2477 -1.8316  0.5644
 4280TIP3    H234256   0.838   2.265  12.247  0.3113  0.1373  0.1869
 4281TIP3   OH234257   0.817   5.859  12.103 -1.0315 -0.1229 -0.6606
 4281TIP3    H134258   0.813   5.873  12.198  1.6311 -1.6072 -0.2214
 4281TIP3    H234259   0.769   5.778  12.089 -2.2867  0.6176 -0.7658
 4282TIP3   OH234260   3.199   0.058  15.141  0.3385 -0.5704 -0.2752
 4282TIP3    H134261   3.285   0.045  15.180  0.2719 -2.8885 -0.7641
 4282TIP3    H234262   3.138   0.046  15.215  0.3642  0.1721 -0.1167
 4283TIP3   OH234263   1.335   6.533   6.725  0.1537  0.1445 -0.3916
 4283TIP3    H134264   1.352   6.616   6.769  0.4797  0.1264 -0.4794
 4283TIP3    H234265   1.275   6.556   6.654 -0.2009  0.2082 -0.0729
 4284TIP3   OH234266   5.535   6.006  15.320 -0.1985 -0.1833  0.2224
 4284TIP3    H134267   5.575   6.091  15.341 -1.5567  0.4275  0.4289
 4284TIP3    H234268   5.570   5.946  15.387  1.1823  0.0579 -0.2399
 4285TIP3   OH234269   1.081   3.576   1.380  0.2772  0.3369 -0.7190
 4285TIP3    H134270   1.173   3.589   1.403  0.0963 -0.9771  0.9262
 4285TIP3    H234271   1.083   3.516   1.306  0.7410 -2.1474  1.1984
 4286TIP3   OH234272   6.671   1.967  10.495  0.0857  0.2540 -0.5630
 4286TIP3    H134273   6.624   2.038  10.540  1.4719  0.9115 -0.0977
 4286TIP3    H234274   6.736   2.012  10.442  0.8906 -0.6661 -0.3749
 4287TIP3   OH234275   1.582   3.525  14.229 -1.0585  0.1775  0.2003
 4287TIP3    H134276   1.500   3.505  14.185 -1.3999  1.1823  0.3650
 4287TIP3    H234277   1.609   3.441  14.267 -1.6260 -0.3197 -0.4707
 4288TIP3   OH234278   5.367   0.395  11.323  0.3397 -0.1978  0.3744
 4288TIP3    H134279   5.276   0.402  11.293  1.1334  0.6648 -1.9868
 4288TIP3    H234280   5.376   0.467  11.386  0.2563  1.9568 -1.9259
 4289TIP3   OH234281   3.242   3.173   3.320  0.0337  0.1669  0.4814
 4289TIP3    H134282   3.263   3.251   3.372 -0.3956  0.6807 -0.0966
 4289TIP3    H234283   3.197   3.115   3.381 -1.1903  1.0987  0.5009
 4290TIP3   OH234284   1.464   6.234  15.328  0.6934  0.7743  0.0977
 4290TIP3    H134285   1.554   6.202  15.323  0.8519  1.0353  1.2039
 4290TIP3    H234286   1.463   6.295  15.402 -0.0450  1.9162 -0.8048
 4291TIP3   OH234287   2.125   2.159   3.090 -0.5163 -0.4413  0.0164
 4291TIP3    H134288   2.133   2.066   3.111  0.0039 -0.3780  0.1121
 4291TIP3    H234289   2.120   2.202   3.176  2.0088 -0.1450  0.0862
 4292TIP3   OH234290   3.845   6.716   5.239 -0.4537  0.0131 -0.0794
 4292TIP3    H134291   3.908   6.785   5.262  1.7938 -1.7837 -0.5310
 4292TIP3    H234292   3.816   6.739   5.150  1.5581 -0.4525 -0.9035
 4293TIP3   OH234293   2.035   5.112  12.448  0.5493 -0.3645 -0.5235
 4293TIP3    H134294   2.046   5.207  12.454  1.7777 -0.3520 -2.1372
 4293TIP3    H234295   2.107   5.084  12.391  0.3502 -2.3007  0.1174
 4294TIP3   OH234296   5.036   2.906   2.000 -0.1773  0.3835 -0.5393
 4294TIP3    H134297   4.980   2.828   2.000 -0.0918  0.3102 -1.8783
 4294TIP3    H234298   5.035   2.935   2.091 -0.3425 -1.0888 -0.0380
 4295TIP3   OH234299   4.484   5.634  16.762  0.3637  0.3097  0.2618
 4295TIP3    H134300   4.565   5.592  16.733  0.0830 -0.7169  0.9020
 4295TIP3    H234301   4.495   5.726  16.739  0.5207 -0.2683 -2.2289
 4296TIP3   OH234302   0.071   5.580  13.500 -0.5450  0.1979  0.2269
 4296TIP3    H134303   0.042   5.640  13.432 -0.3316 -2.1324 -2.0846
 4296TIP3    H234304   0.157   5.613  13.527 -0.6708  1.2267 -0.5932
 4297TIP3   OH234305   1.666   1.739  14.306 -0.5352 -0.2364 -0.4289
 4297TIP3    H134306   1.735   1.672  14.301 -1.4727 -1.1553 -2.0207
 4297TIP3    H234307   1.623   1.723  14.390  0.8175 -0.0083  0.3391
 4298TIP3   OH234308   4.937   0.717   2.055  0.0178  0.1989 -0.3341
 4298TIP3    H134309   4.898   0.751   2.135 -0.4014  0.8283 -0.8028
 4298TIP3    H234310   4.962   0.627   2.078 -2.2951 -0.4921 -0.1790
 4299TIP3   OH234311   0.205   0.101   4.584  0.4815  0.1305 -0.4590
 4299TIP3    H134312   0.181   0.189   4.611 -2.6496 -0.9226  0.6988
 4299TIP3    H234313   0.166   0.090   4.497 -1.4793 -0.8564  0.4726
 4300TIP3   OH234314   2.335   3.232   2.908 -0.1965  0.2821 -0.4615
 4300TIP3    H134315   2.287   3.182   2.974  2.5071 -1.7227  0.1492
 4300TIP3    H234316   2.400   3.281   2.958  1.6354 -0.9581 -1.5313
 4301TIP3   OH234317   2.994   5.200  17.073 -0.2936 -0.9260  0.0865
 4301TIP3    H134318   2.915   5.165  17.033 -0.1265 -1.4082  0.1736
 4301TIP3    H234319   3.051   5.221  16.999 -0.5997 -0.3249  0.0111
 4302TIP3   OH234320   2.409   4.307   4.182 -0.4356  0.0028  0.4461
 4302TIP3    H134321   2.400   4.402   4.192  4.0233  0.6512  0.2056
 4302TIP3    H234322   2.411   4.274   4.272 -0.4255  0.3384  0.5714
 4303TIP3   OH234323   0.241   4.904   6.176 -0.2426 -0.2321  0.2136
 4303TIP3    H134324   0.259   4.986   6.131 -0.6689  0.8348  1.8799
 4303TIP3    H234325   0.188   4.854   6.115 -0.1659  0.8313 -0.7509
 4304TIP3   OH234326   3.027   1.370   3.310 -0.2068  0.5634  0.4224
 4304TIP3    H134327   3.045   1.426   3.386  0.0532 -1.0569  1.6023
 4304TIP3    H234328   2.952   1.317   3.336  0.1250 -0.2912 -0.3153
 4305TIP3   OH234329   3.342   2.796   0.465  0.0191  0.6895  0.2217
 4305TIP3    H134330   3.263   2.801   0.518  0.6236 -0.1102  1.2104
 4305TIP3    H234331   3.408   2.755   0.521  1.0405  0.9854 -0.7078
 4306TIP3   OH234332   3.527   3.273  14.544 -0.0221 -0.0801 -0.3018
 4306TIP3    H134333   3.477   3.351  14.566  0.9636  0.5290 -0.1509
 4306TIP3    H234334   3.540   3.228  14.627 -0.7674 -0.5166 -0.4198
 4307TIP3   OH234335   1.725   6.691  13.168 -0.1355 -0.2884 -0.1016
 4307TIP3    H134336   1.663   6.658  13.233 -1.6211 -0.3394 -1.4662
 4307TIP3    H234337   1.732   6.621  13.104 -1.5198  1.0486 -1.8288
 4308TIP3   OH234338   0.972   2.533   4.322 -0.4720 -0.5053 -0.3916
 4308TIP3    H134339   0.931   2.520   4.236  0.8639 -1.0588 -0.9917
 4308TIP3    H234340   1.023   2.614   4.311 -1.4842  0.2540  0.3817
 4309TIP3   OH234341   4.164   3.810  12.724 -0.7627  0.2638 -0.2892
 4309TIP3    H134342   4.104   3.752  12.772 -1.3091  0.8761 -0.2169
 4309TIP3    H234343   4.121   3.895  12.725 -0.4018  0.4688 -1.1924
 4310TIP3   OH234344   4.954   1.187  16.421 -0.3643  0.0768 -0.1694
 4310TIP3    H134345   4.982   1.189  16.513  1.1200 -2.0081 -0.4903
 4310TIP3    H234346   4.973   1.274  16.388  1.6512  0.0790  0.8408
 4311TIP3   OH234347   6.766   5.391   0.130  0.0485 -0.7880  0.1597
 4311TIP3    H134348   6.720   5.463   0.174 -1.7259 -2.3855  1.0602
 4311TIP3    H234349   6.768   5.320   0.195  2.7794 -1.2415 -0.2897
 4312TIP3   OH234350   5.277   2.911  11.634  0.2922 -0.1155  0.3782
 4312TIP3    H134351   5.253   2.934  11.544  0.6076  1.1411  0.5926
 4312TIP3    H234352   5.372   2.924  11.637  0.0247  2.0427  1.4556
 4313TIP3   OH234353   2.161   0.079   0.946  0.0967 -0.0666  0.4008
 4313TIP3    H134354   2.076   0.068   0.904  0.1182  0.1104  0.3096
 4313TIP3    H234355   2.150   0.155   1.003  0.0152 -0.4138  0.8508
 4314TIP3   OH234356   4.320   5.358   4.998  0.2967  0.4828 -0.5242
 4314TIP3    H134357   4.355   5.269   5.002 -1.8025 -0.3422  2.0290
 4314TIP3    H234358   4.357   5.394   4.917  4.6190 -1.1745  0.4302
 4315TIP3   OH234359   3.372   6.512  13.631 -0.0206 -0.0688 -0.3468
 4315TIP3    H134360   3.307   6.489  13.697 -0.8908 -0.1186 -1.2040
 4315TIP3    H234361   3.438   6.442  13.637  0.0895  0.1070  0.6784
 4316TIP3   OH234362   1.898   1.279   4.254  0.0433 -0.4038 -0.3621
 4316TIP3    H134363   1.979   1.329   4.262 -0.3652  0.1550  0.4696
 4316TIP3    H234364   1.855   1.316   4.177 -0.1306  0.3625  0.0933
 4317TIP3   OH234365   3.681   2.504  15.584 -0.3964  0.8353 -0.4910
 4317TIP3    H134366   3.615   2.434  15.589  0.9871 -0.4652  0.4258
 4317TIP3    H234367   3.696   2.529  15.675  0.3660  1.1337 -0.6920
 4318TIP3   OH234368   3.044   5.911  11.728 -0.0939  0.0203  0.1677
 4318TIP3    H134369   3.015   5.821  11.747 -1.9272  0.6268  0.3767
 4318TIP3    H234370   3.111   5.900  11.660  0.2907 -1.5470  0.7333
 4319TIP3   OH234371   4.419   1.497   1.779  0.2870 -0.0830  0.2275
 4319TIP3    H134372   4.467   1.427   1.736  2.2358  0.4545  1.4108
 4319TIP3    H234373   4.344   1.454   1.820  0.0623 -1.0442 -1.1351
 4320TIP3   OH234374   6.596   5.114  16.445  0.3490  0.0086 -0.1239
 4320TIP3    H134375   6.516   5.061  16.443 -0.8779  1.7841 -0.9090
 4320TIP3    H234376   6.578   5.186  16.384  1.8130  1.5075  1.1379
 4321TIP3   OH234377   3.206   2.208  14.755 -0.1972 -0.5695  0.0883
 4321TIP3    H134378   3.272   2.263  14.713 -0.4205  0.0701  0.5583
 4321TIP3    H234379   3.127   2.221  14.703  0.1579 -1.7425 -0.7918
 4322TIP3   OH234380   4.622   3.426  14.391  1.0269 -0.8225  1.0337
 4322TIP3    H134381   4.541   3.404  14.436  0.0032 -0.2032 -0.4224
 4322TIP3    H234382   4.633   3.520  14.404  0.3272 -0.4883 -0.5309
 4323TIP3   OH234383   4.964   1.126  13.713  0.2226  0.1455 -0.1670
 4323TIP3    H134384   4.904   1.052  13.718  1.1304 -0.5720  0.5221
 4323TIP3    H234385   4.968   1.160  13.802  0.6153  0.3514 -0.2595
 4324TIP3   OH234386   5.569   5.768   5.582 -0.2620  0.5158  0.0908
 4324TIP3    H134387   5.609   5.711   5.648  1.4398  2.3555  0.7244
 4324TIP3    H234388   5.623   5.757   5.504 -0.7747  0.2349 -0.2316
 4325TIP3   OH234389   2.475   2.478  11.382 -0.0416 -0.5024 -0.2897
 4325TIP3    H134390   2.523   2.505  11.304 -0.7609  0.6184 -0.3811
 4325TIP3    H234391   2.491   2.549  11.445 -0.9193 -0.4922 -0.0630
 4326TIP3   OH234392   1.115   3.554   6.469 -0.8057  0.1183  0.6033
 4326TIP3    H134393   1.093   3.606   6.392  0.6560 -0.0833  0.0292
 4326TIP3    H234394   1.209   3.537   6.461 -0.6486 -0.0046  2.3655
 4327TIP3   OH234395   1.237   6.177  15.664  0.7732 -0.4229  0.5150
 4327TIP3    H134396   1.187   6.258  15.652 -0.0604 -1.1373 -1.1819
 4327TIP3    H234397   1.329   6.205  15.662  0.4954  0.4806 -0.1097
 4328TIP3   OH234398   4.782   5.080  11.808  0.4394 -0.6151 -0.0649
 4328TIP3    H134399   4.774   5.169  11.774  0.8561 -1.0285 -1.3038
 4328TIP3    H234400   4.698   5.039  11.788  0.0601 -0.3770  0.9548
 4329TIP3   OH234401   1.189   5.530   0.997  0.6060  0.0848  0.0004
 4329TIP3    H134402   1.163   5.606   1.050 -0.5812 -0.1245 -0.2585
 4329TIP3    H234403   1.125   5.527   0.926  1.9992  0.1804 -1.3055
 4330TIP3   OH234404   1.385   6.289  11.823  0.2204 -0.1945  0.1268
 4330TIP3    H134405   1.414   6.354  11.758 -0.2495 -0.0579  0.0480
 4330TIP3    H234406   1.367   6.211  11.771 -0.9322  0.1529 -0.0393
 4331TIP3   OH234407   0.900   2.073   0.447 -0.5310 -0.4462 -0.1341
 4331TIP3    H134408   0.815   2.039   0.475 -0.1433 -2.3282 -1.0991
 4331TIP3    H234409   0.894   2.076   0.352  1.2208 -2.8448 -0.3922
 4332TIP3   OH234410   1.898   4.283   1.401  0.0191 -0.1387 -0.3722
 4332TIP3    H134411   1.940   4.241   1.326  2.0735  1.8130 -0.4183
 4332TIP3    H234412   1.945   4.249   1.477 -0.5167 -0.3813 -0.1448
 4333TIP3   OH234413   2.052   4.976  10.677  0.3250 -0.0214  0.5594
 4333TIP3    H134414   2.076   4.889  10.709  1.2446  0.6218  1.6570
 4333TIP3    H234415   2.077   5.036  10.747  0.0076  1.1728 -0.3160
 4334TIP3   OH234416   6.210   5.797   5.569 -0.8699  0.0183  0.0323
 4334TIP3    H134417   6.228   5.809   5.476 -2.3376  0.7321 -0.1977
 4334TIP3    H234418   6.118   5.823   5.579 -1.0303 -0.9746  1.5063
 4335TIP3   OH234419   5.219   3.656  15.989 -0.7948 -0.2871  0.0732
 4335TIP3    H134420   5.245   3.718  15.922  1.9158  0.1651  1.3980
 4335TIP3    H234421   5.167   3.707  16.051 -0.0494  0.2725  0.2553
 4336TIP3   OH234422   1.989   1.320   5.586 -0.3310 -0.1855 -0.3940
 4336TIP3    H134423   1.937   1.353   5.512  1.1972 -0.6929 -1.7631
 4336TIP3    H234424   2.053   1.262   5.546  0.2853 -0.8241  1.4138
 4337TIP3   OH234425   2.466   5.881  15.607  1.0045  0.0272 -0.3795
 4337TIP3    H134426   2.409   5.813  15.571  1.6593 -0.5859 -0.2934
 4337TIP3    H234427   2.548   5.871  15.559  0.4456  2.2318 -1.9507
 4338TIP3   OH234428   0.784   0.146  14.020 -0.2828  0.1091 -0.1005
 4338TIP3    H134429   0.753   0.220  14.073 -0.7938 -0.8318  0.9741
 4338TIP3    H234430   0.710   0.085  14.020  0.9575 -1.4720  1.1261
 4339TIP3   OH234431   5.261   1.641   1.414 -0.6516  0.3093  0.1325
 4339TIP3    H134432   5.211   1.560   1.408  0.6005 -0.4697 -0.0894
 4339TIP3    H234433   5.301   1.652   1.328 -0.5083  0.9709  0.2743
 4340TIP3   OH234434   1.966   3.429   2.496  0.0255 -0.2314 -0.2188
 4340TIP3    H134435   2.049   3.433   2.449  0.0394 -0.2166 -0.1930
 4340TIP3    H234436   1.963   3.340   2.532  0.7906  0.2616  1.1664
 4341TIP3   OH234437   5.704   3.462   5.697  0.1756  0.0927 -0.2935
 4341TIP3    H134438   5.768   3.514   5.746  1.3738 -1.6885  0.1237
 4341TIP3    H234439   5.631   3.522   5.683  1.0872  1.5961  0.9808
 4342TIP3   OH234440   5.970   4.984   1.894  0.4771 -0.6882  0.2017
 4342TIP3    H134441   6.009   4.897   1.882 -0.3473 -0.8605 -1.4046
 4342TIP3    H234442   5.947   5.013   1.806 -2.7468 -0.4743  0.9972
 4343TIP3   OH234443   4.740   5.203   2.771  0.1791 -0.3370  0.1568
 4343TIP3    H134444   4.766   5.260   2.843  2.3054  0.4449 -1.1367
 4343TIP3    H234445   4.753   5.114   2.804  3.6944  0.0070 -0.0106
 4344TIP3   OH234446   3.018   2.659  10.659  0.1493 -0.8444 -0.0613
 4344TIP3    H134447   2.991   2.725  10.595  1.8278  0.7181  0.7412
 4344TIP3    H234448   2.946   2.596  10.662 -0.8300  0.1215 -1.9948
 4345TIP3   OH234449   5.211   1.498  11.460 -0.5516  0.1846  0.8030
 4345TIP3    H134450   5.254   1.507  11.544  0.6312 -0.1600  0.2470
 4345TIP3    H234451   5.264   1.435  11.412 -0.0038  1.8713 -0.9524
 4346TIP3   OH234452   4.446   6.782   2.510  0.5944 -0.0334 -0.1075
 4346TIP3    H134453   4.437   6.762   2.603  1.1640 -0.3893 -0.1238
 4346TIP3    H234454   4.365   6.828   2.487 -1.7384 -3.9403 -0.5105
 4347TIP3   OH234455   3.822   5.227   2.931  0.6533  0.6757  0.0875
 4347TIP3    H134456   3.818   5.209   3.025 -0.9057  2.3330  0.4098
 4347TIP3    H234457   3.731   5.240   2.906  1.0745  0.5084 -1.6192
 4348TIP3   OH234458   1.003   2.921  16.673 -0.0806 -0.7471 -0.3643
 4348TIP3    H134459   0.949   2.843  16.657  0.4399 -0.9880 -1.0325
 4348TIP3    H234460   1.063   2.924  16.598 -1.3560  1.3941 -1.3813
 4349TIP3   OH234461   2.682   2.376   0.802 -0.3012 -0.4270  0.0716
 4349TIP3    H134462   2.693   2.281   0.810 -0.1086 -0.6917 -2.3772
 4349TIP3    H234463   2.724   2.397   0.718 -1.0973  1.6998  0.1594
 4350TIP3   OH234464   3.228   1.164   1.291  0.1779 -0.2086  0.6870
 4350TIP3    H134465   3.219   1.199   1.379 -0.6739 -0.1730  0.5884
 4350TIP3    H234466   3.142   1.128   1.270  0.3761 -0.2325 -0.1177
 4351TIP3   OH234467   4.404   5.099   5.134 -0.1527 -0.1745 -0.0061
 4351TIP3    H134468   4.308   5.093   5.131 -0.1518  0.2060 -1.1946
 4351TIP3    H234469   4.429   5.041   5.207 -1.2277 -0.9412 -0.2161
 4352TIP3   OH234470   1.708   4.972   3.005  0.3248 -0.0163 -0.0386
 4352TIP3    H134471   1.694   5.040   2.939  0.0577 -0.0662 -0.0338
 4352TIP3    H234472   1.718   4.891   2.955 -1.1630 -0.2679  0.0262
 4353TIP3   OH234473   3.667   4.376   5.395 -0.3779  0.3806 -0.1672
 4353TIP3    H134474   3.755   4.412   5.400 -0.7839  1.3811 -0.0541
 4353TIP3    H234475   3.664   4.332   5.310  0.8199 -1.3088  0.6081
 4354TIP3   OH234476   0.024   4.801   1.774  0.1393  0.0703  0.1748
 4354TIP3    H134477   0.064   4.738   1.714  0.8773 -1.8028  2.5058
 4354TIP3    H234478  -0.067   4.772   1.782 -0.6944  1.8133 -1.8291
 4355TIP3   OH234479   0.840   4.595  16.786  0.2818 -0.1226 -0.5038
 4355TIP3    H134480   0.914   4.655  16.799  1.2675 -1.3890 -0.0683
 4355TIP3    H234481   0.817   4.566  16.874 -1.4965  1.0824 -0.5100
 4356TIP3   OH234482   6.281   4.545   0.112  0.2083 -0.3187  0.7807
 4356TIP3    H134483   6.212   4.596   0.154  0.2061 -0.9118  1.5142
 4356TIP3    H234484   6.321   4.496   0.183  1.1215 -0.2944  0.2966
 4357TIP3   OH234485   1.243   6.499  15.468  0.4981  0.7349  0.3179
 4357TIP3    H134486   1.197   6.499  15.552  1.2279 -0.5007  0.7484
 4357TIP3    H234487   1.191   6.443  15.411 -0.3288  2.0552 -0.2879
 4358TIP3   OH234488   6.383   5.518  11.650  0.5996  0.0245 -0.4566
 4358TIP3    H134489   6.461   5.484  11.694  0.3394  0.9182  0.7476
 4358TIP3    H234490   6.417   5.560  11.571  1.5789  1.7683  0.8136
 4359TIP3   OH234491   0.428   1.678   2.152  0.1952  0.3601 -0.0668
 4359TIP3    H134492   0.374   1.611   2.193  0.6829 -0.3957 -0.6443
 4359TIP3    H234493   0.442   1.743   2.222 -0.1892 -0.1872  0.5285
 4360TIP3   OH234494   5.649   4.843  14.426  0.0608  0.2648  0.4599
 4360TIP3    H134495   5.685   4.827  14.339 -0.6178  2.2215 -0.2224
 4360TIP3    H234496   5.585   4.773  14.439  1.0932 -0.8155 -0.0325
 4361TIP3   OH234497   0.395   1.691  15.780 -0.2190  0.2069 -0.0769
 4361TIP3    H134498   0.468   1.731  15.732  0.1180  0.7523  0.8518
 4361TIP3    H234499   0.378   1.752  15.853 -2.2217  0.5715 -0.7829
 4362TIP3   OH234500   6.415   6.032   0.204 -0.0148 -0.2837 -0.0313
 4362TIP3    H134501   6.372   6.030   0.118  2.6214 -1.5341 -1.4139
 4362TIP3    H234502   6.453   6.120   0.209  0.7088 -0.5549 -0.6290
 4363TIP3   OH234503   2.038   3.283  14.732 -0.2756  0.2179 -0.3097
 4363TIP3    H134504   2.109   3.283  14.796 -0.1870 -0.4937 -0.4065
 4363TIP3    H234505   2.082   3.305  14.649 -0.6835  3.3203  0.1499
 4364TIP3   OH234506   2.585   0.659  12.344 -0.1902 -0.0031  0.2971
 4364TIP3    H134507   2.502   0.681  12.301 -0.8603 -1.8387  0.5741
 4364TIP3    H234508   2.646   0.642  12.271  0.3607  2.5564  0.0699
 4365TIP3   OH234509   0.392   3.575  14.003 -0.0463  0.9589 -0.6165
 4365TIP3    H134510   0.431   3.617  14.080 -1.4062 -1.5898  1.6302
 4365TIP3    H234511   0.463   3.525  13.965  0.0375 -0.0775  0.7953
 4366TIP3   OH234512   1.584   1.464   6.527  0.6098  0.1758  0.1688
 4366TIP3    H134513   1.663   1.418   6.500 -0.8796 -1.2878 -2.0531
 4366TIP3    H234514   1.606   1.557   6.521  1.7608 -0.1760 -1.8448
 4367TIP3   OH234515   3.997   3.403  13.795 -0.4911 -0.1764  0.5900
 4367TIP3    H134516   4.059   3.357  13.738  1.1582  2.1164  0.4009
 4367TIP3    H234517   3.925   3.428  13.737  0.2686  0.4854 -0.0915
 4368TIP3   OH234518   5.176   6.061  15.748  0.5836 -0.1807  0.4620
 4368TIP3    H134519   5.106   6.019  15.797 -0.5452  0.6031 -0.4394
 4368TIP3    H234520   5.195   6.142  15.795 -1.3967  1.2261 -0.9955
 4369TIP3   OH234521   6.661   6.025   2.448  0.3448  0.3855  0.1501
 4369TIP3    H134522   6.743   6.074   2.442  0.7341  0.0812  2.2178
 4369TIP3    H234523   6.615   6.063   2.523 -0.7105 -0.4605 -0.0326
 4370TIP3   OH234524   5.837   3.243  13.081 -0.4330 -0.3692  0.6887
 4370TIP3    H134525   5.928   3.218  13.092  0.4338  2.4822  0.8502
 4370TIP3    H234526   5.805   3.257  13.171 -0.2442  0.9544  0.5758
 4371TIP3   OH234527   3.125   0.328  13.688 -0.2005 -0.4006  0.1285
 4371TIP3    H134528   3.219   0.343  13.680  0.0959 -1.4949  1.2668
 4371TIP3    H234529   3.114   0.234  13.677 -1.3847 -0.1064 -1.6117
 4372TIP3   OH234530   5.222   2.956   5.039 -0.1597  0.4344  0.5181
 4372TIP3    H134531   5.273   3.034   5.018 -1.5634  1.5741  1.1991
 4372TIP3    H234532   5.171   2.980   5.116 -1.2098 -0.8755  0.2768
 4373TIP3   OH234533   1.989   6.619  17.147 -0.3092 -0.2175 -0.8329
 4373TIP3    H134534   1.900   6.653  17.154 -0.4871 -0.9963  1.9497
 4373TIP3    H234535   1.989   6.539  17.200  1.5936 -1.2940 -2.3340
 4374TIP3   OH234536   4.803   4.086   4.418  0.0992  0.3261 -0.3778
 4374TIP3    H134537   4.859   4.137   4.359 -0.3872  0.1466 -1.0043
 4374TIP3    H234538   4.864   4.029   4.465  0.8191  2.3613  1.2929
 4375TIP3   OH234539   1.659   3.470  14.695  0.1412 -0.0630 -0.2886
 4375TIP3    H134540   1.580   3.507  14.655  0.3121 -0.7066 -1.2546
 4375TIP3    H234541   1.718   3.454  14.621  0.5915 -0.9835  0.2542
 4376TIP3   OH234542   5.312   1.213  11.135  0.3903 -0.0347 -0.4204
 4376TIP3    H134543   5.386   1.196  11.076 -1.2341  2.2548 -3.4390
 4376TIP3    H234544   5.257   1.135  11.127  0.9974 -0.4468 -0.6207
 4377TIP3   OH234545   0.693   4.841   2.098  0.0867 -0.2464 -0.2192
 4377TIP3    H134546   0.723   4.891   2.173  2.6257 -1.0954 -0.5868
 4377TIP3    H234547   0.744   4.760   2.100 -0.8586 -0.9653 -2.0173
 4378TIP3   OH234548   4.201   2.973  14.617  0.9012 -0.0828  0.3804
 4378TIP3    H134549   4.185   2.930  14.533 -2.4593  0.0325  0.8105
 4378TIP3    H234550   4.296   2.974  14.626  1.4017 -0.2430 -3.3175
 4379TIP3   OH234551   3.059   3.534   5.025  0.0298 -0.1706 -0.3101
 4379TIP3    H134552   2.995   3.462   5.032  0.3851 -0.4430  0.1606
 4379TIP3    H234553   3.104   3.535   5.109  1.5547 -0.8358 -1.0806
 4380TIP3   OH234554   0.640   5.688   0.709 -0.3294  0.2809  0.0315
 4380TIP3    H134555   0.689   5.636   0.772  0.0007  0.2848 -0.2172
 4380TIP3    H234556   0.548   5.662   0.721 -0.0424 -1.2996 -0.9553
 4381TIP3   OH234557   4.898   5.048   3.594  0.0170 -0.3319 -0.2972
 4381TIP3    H134558   4.841   4.975   3.619 -0.4862  0.0367 -0.3492
 4381TIP3    H234559   4.840   5.124   3.592  0.7380  0.2704  0.7984
 4382TIP3   OH234560   3.408   2.727  16.987 -0.1254  0.0847  0.2978
 4382TIP3    H134561   3.325   2.719  16.941  0.3749  2.0973 -1.1379
 4382TIP3    H234562   3.451   2.802  16.944  1.4619  0.4955  2.4571
 4383TIP3   OH234563   2.799   2.078   5.350 -0.1716 -0.0700  0.4648
 4383TIP3    H134564   2.797   1.983   5.346 -0.0073 -0.1435  1.7293
 4383TIP3    H234565   2.873   2.099   5.407  1.7806  0.9396 -2.2005
 4384TIP3   OH234566   0.217   2.532  15.524  0.4019  0.4497 -0.4271
 4384TIP3    H134567   0.263   2.454  15.496 -0.5975 -0.4850  0.4468
 4384TIP3    H234568   0.124   2.511  15.513  0.1196  1.6539 -0.5493
 4385TIP3   OH234569   6.291   4.349   1.569 -0.0006 -0.1961 -0.4552
 4385TIP3    H134570   6.316   4.273   1.622  0.5721  0.6633  0.5407
 4385TIP3    H234571   6.270   4.312   1.483 -1.3863 -1.6954  0.4548
 4386TIP3   OH234572   5.235   5.965   1.570 -0.4710 -0.0518 -0.1331
 4386TIP3    H134573   5.200   5.948   1.482  1.7724 -0.4525 -1.0314
 4386TIP3    H234574   5.258   6.058   1.569 -2.9447  0.6623  1.0657
 4387TIP3   OH234575   0.617   3.434  13.182 -0.0706 -0.2390 -0.2009
 4387TIP3    H134576   0.642   3.495  13.113  0.3826 -0.2127 -0.0160
 4387TIP3    H234577   0.668   3.461  13.258 -1.3176  0.3799  0.4501
 4388TIP3   OH234578   0.043   2.403  17.219 -0.2480  0.0787  0.2153
 4388TIP3    H134579   0.131   2.367  17.212 -0.5707 -1.3146  2.2174
 4388TIP3    H234580   0.053   2.480  17.275 -0.0541  1.1116 -1.1997
 4389TIP3   OH234581   0.167   4.700   0.319 -0.4114  0.0293  0.0803
 4389TIP3    H134582   0.119   4.779   0.291  1.7223  1.3424 -0.0914
 4389TIP3    H234583   0.249   4.733   0.354  1.1031 -2.1883 -1.1298
 4390TIP3   OH234584   0.447   6.732   0.653  0.0141  0.1588  0.1091
 4390TIP3    H134585   0.387   6.803   0.677  0.4904  0.7713 -0.4555
 4390TIP3    H234586   0.394   6.653   0.660 -0.4611  0.5322  1.0094
 4391TIP3   OH234587   6.583   2.327   5.211  0.3655  0.3551 -0.1284
 4391TIP3    H134588   6.553   2.404   5.260 -2.4470 -0.3330 -0.6093
 4391TIP3    H234589   6.579   2.255   5.274 -1.4902 -0.1958 -0.8307
 4392TIP3   OH234590   3.461   5.959  14.005 -0.1729 -0.2572  0.1529
 4392TIP3    H134591   3.404   6.034  13.987 -0.6306 -0.3666  1.0844
 4392TIP3    H234592   3.502   5.940  13.921 -1.3747 -0.0579 -0.5021
 4393TIP3   OH234593   1.883   1.091  11.716 -0.5947 -0.4503 -0.1812
 4393TIP3    H134594   1.877   1.141  11.797  2.2665  0.5007 -0.4587
 4393TIP3    H234595   1.919   1.152  11.652 -1.2572 -1.6421 -1.7762
 4394TIP3   OH234596   5.220   1.240  16.633  0.5927 -0.2573  0.4952
 4394TIP3    H134597   5.316   1.232  16.633  0.5561 -1.4966 -1.6022
 4394TIP3    H234598   5.203   1.327  16.597  0.9991 -1.2326 -2.3084
 4395TIP3   OH234599   3.576   3.722  15.048 -0.3044 -0.4282  0.7606
 4395TIP3    H134600   3.601   3.815  15.040 -2.6181  0.1918  0.0327
 4395TIP3    H234601   3.598   3.685  14.962 -1.2625 -0.0386  0.3369
 4396TIP3   OH234602   3.823   3.952   4.493  0.2816 -0.0418 -0.1552
 4396TIP3    H134603   3.894   3.924   4.435 -0.8209 -0.3404 -1.4102
 4396TIP3    H234604   3.801   3.874   4.543  0.6436 -0.0179  0.0482
 4397TIP3   OH234605   5.008   6.255   0.196  0.1351 -0.0414  0.7551
 4397TIP3    H134606   4.967   6.173   0.224 -1.3404 -0.1132 -1.3864
 4397TIP3    H234607   5.077   6.228   0.135 -0.3367  0.2797  0.0649
 4398TIP3   OH234608   1.217   2.223  15.505 -0.8626 -0.3277 -0.1507
 4398TIP3    H134609   1.174   2.304  15.532 -2.3836 -1.6070  1.5197
 4398TIP3    H234610   1.311   2.240  15.519 -1.2492  0.7037  1.4625
 4399TIP3   OH234611   2.366   3.450   4.152 -0.0861 -0.2625  0.4022
 4399TIP3    H134612   2.357   3.526   4.094 -1.6540 -1.1210 -0.5380
 4399TIP3    H234613   2.378   3.376   4.092  0.0167 -0.9484  1.2484
 4400TIP3   OH234614   4.780   3.601  11.293  0.4167 -0.0479  0.0620
 4400TIP3    H134615   4.759   3.557  11.376 -0.3056  1.1015  0.5093
 4400TIP3    H234616   4.755   3.538  11.225 -3.0587  0.5721  0.5842
 4401TIP3   OH234617   2.324   5.132  12.065 -0.3476 -0.0887  0.2062
 4401TIP3    H134618   2.293   5.202  12.006 -1.1194  1.2278  2.0652
 4401TIP3    H234619   2.331   5.055  12.009 -1.8342  0.8867 -1.4458
 4402TIP3   OH234620   2.744   3.627  14.215 -0.2229  0.0073 -0.3740
 4402TIP3    H134621   2.738   3.705  14.270 -0.3173  0.5786 -1.1649
 4402TIP3    H234622   2.666   3.576  14.237  1.5332 -1.5941  2.6477
 4403TIP3   OH234623   3.742   1.833   2.543  0.0992  0.2930 -0.4689
 4403TIP3    H134624   3.775   1.803   2.459  2.3293  0.0125  0.4278
 4403TIP3    H234625   3.731   1.927   2.533  1.7810  0.5045 -0.6904
 4404TIP3   OH234626   3.378   3.494  11.668  0.3655  0.4426  0.4057
 4404TIP3    H134627   3.337   3.430  11.726  0.8027  1.2677  1.6745
 4404TIP3    H234628   3.462   3.456  11.645 -0.5433 -0.6865 -1.1683
 4405TIP3   OH234629   2.887   1.593   3.180 -0.0764  0.4030  0.2639
 4405TIP3    H134630   2.942   1.667   3.205  0.1516  0.2139  0.3207
 4405TIP3    H234631   2.924   1.518   3.226 -1.1286  0.4865  1.3031
 4406TIP3   OH234632   4.942   1.637  16.043  0.2262  0.1325  0.1410
 4406TIP3    H134633   4.953   1.553  15.998 -0.6813  1.2456 -2.3671
 4406TIP3    H234634   5.030   1.675  16.046  0.2043  0.4049 -1.5908
 4407TIP3   OH234635   4.519   1.623  12.697  0.7201  0.1587 -0.4716
 4407TIP3    H134636   4.541   1.716  12.689 -1.0749  0.8661  1.6850
 4407TIP3    H234637   4.463   1.605  12.622 -1.7046  1.8446  0.7848
 4408TIP3   OH234638   0.729   3.484  13.417  0.7227  0.1076 -0.3395
 4408TIP3    H134639   0.731   3.568  13.462  0.0829 -0.3601  0.5883
 4408TIP3    H234640   0.783   3.427  13.472 -1.4310 -0.9192  0.8249
 4409TIP3   OH234641   4.650   0.537  16.243 -0.3119  0.2829 -0.5146
 4409TIP3    H134642   4.603   0.473  16.190  1.9228 -1.3982 -0.6301
 4409TIP3    H234643   4.721   0.487  16.283  0.4074  2.3358  0.9342
 4410TIP3   OH234644   1.980   6.679   5.164  0.3604 -0.2206 -0.7053
 4410TIP3    H134645   1.902   6.646   5.209 -1.2079  2.7657 -1.0314
 4410TIP3    H234646   1.955   6.681   5.071 -0.1617  2.9279 -0.5931
 4411TIP3   OH234647   2.971   5.317  10.774 -0.3632 -0.0191 -0.3742
 4411TIP3    H134648   2.969   5.222  10.758 -0.8945 -0.0974  0.1515
 4411TIP3    H234649   2.881   5.339  10.797  0.1986  0.2137  1.8024
 4412TIP3   OH234650   4.371   4.959  10.988 -0.0850 -0.4339  0.5031
 4412TIP3    H134651   4.447   4.920  10.945  0.2137  1.3981 -0.7804
 4412TIP3    H234652   4.324   5.004  10.917  1.5398  4.5294  2.1114
 4413TIP3   OH234653   1.663   4.783  13.328  0.7253  0.4111  0.1656
 4413TIP3    H134654   1.709   4.765  13.410  0.8467 -1.1427 -0.2060
 4413TIP3    H234655   1.691   4.713  13.269 -1.0380  0.2046 -0.5022
 4414TIP3   OH234656   0.307   6.342   3.751  0.2780 -0.2071  0.2788
 4414TIP3    H134657   0.296   6.437   3.742  1.2461 -0.1023  0.0788
 4414TIP3    H234658   0.400   6.331   3.772  0.1150 -1.0973  0.5584
 4415TIP3   OH234659   1.950   2.253   2.914 -0.0243  0.3618 -0.5067
 4415TIP3    H134660   2.022   2.225   2.971 -1.7102 -1.5986  0.7776
 4415TIP3    H234661   1.873   2.211   2.950 -1.5516  0.8517 -2.9800
 4416TIP3   OH234662   5.340   4.786   5.623 -0.3306 -0.5888  0.3713
 4416TIP3    H134663   5.257   4.752   5.656 -0.2137 -0.1458  1.1663
 4416TIP3    H234664   5.332   4.881   5.635 -1.1283 -0.1100 -2.8511
 4417TIP3   OH234665   0.667   4.308  15.899 -0.2530 -0.0845  0.3773
 4417TIP3    H134666   0.656   4.342  15.988 -0.2529  0.2111  0.2635
 4417TIP3    H234667   0.755   4.335  15.873  0.7585 -2.3375  1.2368
 4418TIP3   OH234668   3.752   1.327  16.558 -0.0011 -0.4690  0.1033
 4418TIP3    H134669   3.671   1.378  16.548 -0.7637 -0.5111  4.2329
 4418TIP3    H234670   3.806   1.381  16.616  1.9286 -1.5784 -0.5990
 4419TIP3   OH234671   2.424   2.535   0.602  0.8737 -0.2341 -0.1294
 4419TIP3    H134672   2.353   2.547   0.665  2.4417  0.3595  1.6174
 4419TIP3    H234673   2.437   2.441   0.598 -1.4429 -0.5621 -2.2238
 4420TIP3   OH234674   0.151   6.764  12.555  0.5370  0.1086 -0.0491
 4420TIP3    H134675   0.160   6.670  12.569 -1.0895  0.0984  1.2292
 4420TIP3    H234676   0.071   6.788  12.601  0.3387  1.9501 -1.2334
 4421TIP3   OH234677   0.938   4.493   4.690 -0.8814  0.2948 -0.0575
 4421TIP3    H134678   0.948   4.498   4.595  2.6263  0.0854  0.1499
 4421TIP3    H234679   0.911   4.402   4.706 -2.3110  0.5520 -0.8346
 4422TIP3   OH234680   6.044   5.094  17.239 -0.6202 -0.4766 -0.4303
 4422TIP3    H134681   6.072   5.049  17.159 -0.8154 -0.0005 -0.7772
 4422TIP3    H234682   5.963   5.139  17.213  0.5612  1.6704 -0.6732
 4423TIP3   OH234683   0.414   2.093  13.625  0.5907 -0.1079  0.7323
 4423TIP3    H134684   0.480   2.082  13.556  0.1580  0.0020  0.2983
 4423TIP3    H234685   0.463   2.081  13.707  1.5666  1.9486  0.5094
 4424TIP3   OH234686   3.038   4.056  15.657 -0.2408  0.0264  0.0913
 4424TIP3    H134687   3.081   4.086  15.576 -0.3948  1.7873  0.6352
 4424TIP3    H234688   3.095   3.986  15.689  0.8679  0.6237 -0.5190
 4425TIP3   OH234689   1.536   0.822  11.418  0.5615 -0.4689  0.2056
 4425TIP3    H134690   1.594   0.842  11.492  1.2463 -0.9441 -0.1944
 4425TIP3    H234691   1.547   0.895  11.358 -0.3691  0.1664  0.7752
 4426TIP3   OH234692   0.293   0.957  14.245 -0.0929 -0.1439 -0.2304
 4426TIP3    H134693   0.292   0.862  14.235  2.2439 -0.1680 -0.6512
 4426TIP3    H234694   0.380   0.984  14.215 -0.1524  1.9727  1.2762
 4427TIP3   OH234695   4.604   4.547   0.301 -0.1731  0.0790 -0.2232
 4427TIP3    H134696   4.618   4.599   0.223  0.1731  0.8025  0.3078
 4427TIP3    H234697   4.617   4.608   0.374 -0.0566 -0.6753  0.4091
 4428TIP3   OH234698   5.882   5.818  11.112 -0.1096 -0.3633 -0.7034
 4428TIP3    H134699   5.792   5.788  11.121 -0.5100  0.7747 -0.7801
 4428TIP3    H234700   5.932   5.762  11.171 -1.0873 -0.0192  0.4854
 4429TIP3   OH234701   2.969   4.181   4.722 -0.2075  0.2408  0.5206
 4429TIP3    H134702   2.903   4.115   4.701  0.1272  0.1112 -0.1503
 4429TIP3    H234703   3.035   4.171   4.654  0.6920  0.1250  1.3841
 4430TIP3   OH234704   5.267   6.153   5.663 -0.5120 -0.3256 -0.0117
 4430TIP3    H134705   5.225   6.079   5.618  0.2198 -0.9820  0.3611
 4430TIP3    H234706   5.215   6.165   5.743  0.4960 -1.7310  0.9073
 4431TIP3   OH234707   5.429   6.112  15.977 -0.1729 -0.0746 -0.1895
 4431TIP3    H134708   5.490   6.143  16.044 -1.4118 -1.2685  1.5583
 4431TIP3    H234709   5.485   6.071  15.911  1.0950  1.3775 -0.0903
 4432TIP3   OH234710   4.240   2.182  12.689  0.3670 -0.2861  0.0564
 4432TIP3    H134711   4.145   2.169  12.700  0.1497  2.4288  2.7948
 4432TIP3    H234712   4.278   2.141  12.767  1.1232  1.1709  0.4673
 4433TIP3   OH234713   3.719   5.682  15.495  0.0749 -0.2536 -0.0800
 4433TIP3    H134714   3.723   5.690  15.590  0.1404  0.6223 -0.1494
 4433TIP3    H234715   3.794   5.734  15.463  0.2149 -0.7590 -0.5989
 4434TIP3   OH234716   3.568   4.943   3.852  0.0279 -0.0951 -0.3555
 4434TIP3    H134717   3.646   4.918   3.803  0.5554  2.4204 -0.9288
 4434TIP3    H234718   3.499   4.949   3.787 -0.6881 -2.2235  0.1378
 4435TIP3   OH234719   3.323   4.978  14.167 -0.6431 -0.1293 -0.6904
 4435TIP3    H134720   3.282   4.898  14.200 -0.6456 -0.8655 -2.3774
 4435TIP3    H234721   3.258   5.046  14.183 -0.5190 -0.3677  1.0472
 4436TIP3   OH234722   0.883   2.853   3.476 -0.2138 -0.0287 -0.1918
 4436TIP3    H134723   0.976   2.870   3.461 -0.3881  1.2941  0.0905
 4436TIP3    H234724   0.846   2.848   3.388  0.1548 -0.8160 -0.3103
 4437TIP3   OH234725   3.781   5.405   3.341 -0.0734 -0.1463  0.5480
 4437TIP3    H134726   3.729   5.483   3.327 -0.0749 -0.0471  1.0766
 4437TIP3    H234727   3.725   5.348   3.395 -1.1440 -1.6414 -1.9582
 4438TIP3   OH234728   6.536   1.640  12.163 -0.3658 -0.9946  0.2903
 4438TIP3    H134729   6.628   1.666  12.163 -0.6934  0.3571 -1.1974
 4438TIP3    H234730   6.520   1.607  12.251  1.2092 -0.0234  0.9761
 4439TIP3   OH234731   2.842   6.444  13.070 -0.7493  0.3527 -0.3458
 4439TIP3    H134732   2.850   6.358  13.030 -2.3017 -0.0704  0.2135
 4439TIP3    H234733   2.768   6.485  13.024 -0.9479  0.8277  0.3865
 4440TIP3   OH234734   5.047   2.794   5.477  0.5144 -0.2521 -0.1063
 4440TIP3    H134735   4.992   2.722   5.447  1.8737 -0.9993 -0.9092
 4440TIP3    H234736   4.988   2.849   5.528 -1.0437 -0.8574 -1.1564
 4441TIP3   OH234737   0.436   4.541  11.630 -0.3139 -0.3587 -0.3191
 4441TIP3    H134738   0.472   4.619  11.672  2.5561 -1.4705 -0.4750
 4441TIP3    H234739   0.488   4.531  11.550 -0.0847 -2.7878  0.0581
 4442TIP3   OH234740   5.146   0.336   4.179 -0.1963 -0.3803  0.3966
 4442TIP3    H134741   5.115   0.421   4.209 -0.5587  1.3513 -4.1255
 4442TIP3    H234742   5.069   0.280   4.180 -1.4764  1.1719 -1.9958
 4443TIP3   OH234743   1.752   3.701   4.996 -0.1057 -0.1387  1.1768
 4443TIP3    H134744   1.834   3.658   5.021 -0.6878  0.0613  3.7379
 4443TIP3    H234745   1.719   3.650   4.922  1.2163 -1.6271  1.5632
 4444TIP3   OH234746   3.239   3.922  17.234 -0.2392 -0.0896  0.0915
 4444TIP3    H134747   3.185   3.930  17.312  2.2040  1.2178  1.7767
 4444TIP3    H234748   3.324   3.894  17.266  0.4675 -0.9975 -2.3104
 4445TIP3   OH234749   1.175   0.432  17.049 -0.1229 -0.5690 -1.0183
 4445TIP3    H134750   1.254   0.468  17.089 -0.5613 -0.4751 -0.2142
 4445TIP3    H234751   1.203   0.350  17.010  0.0603 -1.3098  0.6092
 4446TIP3   OH234752   6.552   6.431  15.856  0.1127 -0.1687  0.2199
 4446TIP3    H134753   6.594   6.405  15.774 -1.5766 -0.6739 -0.5166
 4446TIP3    H234754   6.606   6.504  15.888  0.9879 -0.1731 -1.1551
 4447TIP3   OH234755   0.901   5.452   5.928 -0.5028 -0.0720  0.7792
 4447TIP3    H134756   0.911   5.387   5.997 -2.3591 -0.0067  1.1387
 4447TIP3    H234757   0.849   5.408   5.861  1.1337 -0.0822 -0.5600
 4448TIP3   OH234758   0.960   1.837  14.715 -0.4387 -0.3579  0.6688
 4448TIP3    H134759   0.965   1.801  14.803 -1.8534 -0.6660  0.6349
 4448TIP3    H234760   0.873   1.813  14.683  0.4615 -1.3068 -1.2631
 4449TIP3   OH234761   2.353   0.267   2.667 -0.4628 -0.2870  0.1428
 4449TIP3    H134762   2.333   0.224   2.750 -0.3372  0.9917  0.8571
 4449TIP3    H234763   2.445   0.245   2.651 -0.2518  0.1188  0.7590
 4450TIP3   OH234764   5.941   3.447  12.583  0.0179  0.0236 -0.1470
 4450TIP3    H134765   5.971   3.356  12.583  1.5843  0.4839  1.2582
 4450TIP3    H234766   6.010   3.495  12.628 -0.8867  1.8919 -0.6402
 4451TIP3   OH234767   4.111   6.697   5.087  0.0413 -0.2116 -0.2521
 4451TIP3    H134768   4.091   6.782   5.048  0.5591  0.2988  0.5778
 4451TIP3    H234769   4.025   6.655   5.097 -0.3080  0.5931  0.1939
 4452TIP3   OH234770   5.678   5.772   3.143 -0.1599  0.2134  0.9203
 4452TIP3    H134771   5.646   5.862   3.150  1.9524  0.9653  1.9514
 4452TIP3    H234772   5.757   5.779   3.089 -0.3983 -1.1565  0.3688
 4453TIP3   OH234773   5.076   6.282   5.017  0.7628 -0.1096  0.4352
 4453TIP3    H134774   5.093   6.373   4.992 -0.7286  0.2870  0.7742
 4453TIP3    H234775   5.052   6.286   5.109  2.9521 -1.1657  1.1104
 4454TIP3   OH234776   1.272   6.603   0.820  0.4668  0.1436  0.0702
 4454TIP3    H134777   1.241   6.516   0.845  2.4204 -0.6995 -0.2566
 4454TIP3    H234778   1.277   6.651   0.902  1.3253 -0.7370  0.5591
 4455TIP3   OH234779   1.219   0.887  12.552  0.4256  0.0997 -0.9657
 4455TIP3    H134780   1.303   0.908  12.593 -0.5600  0.5446  0.9167
 4455TIP3    H234781   1.155   0.895  12.622 -0.9830 -2.1070 -1.8888
 4456TIP3   OH234782   5.458   6.737  15.671 -0.5557  0.0979 -0.1367
 4456TIP3    H134783   5.446   6.817  15.619  0.5675  1.0129  0.9516
 4456TIP3    H234784   5.464   6.768  15.761 -0.4458 -1.2622  0.3386
 4457TIP3   OH234785   1.878   6.563  10.773 -0.2699 -0.4919  0.0057
 4457TIP3    H134786   1.891   6.493  10.837 -0.1234  0.7523  1.3881
 4457TIP3    H234787   1.825   6.522  10.704  0.1086 -2.0514  0.5852
 4458TIP3   OH234788   0.097   3.815   1.533 -0.6908  0.0412 -0.1449
 4458TIP3    H134789   0.110   3.736   1.480  0.2842 -0.0265  0.1754
 4458TIP3    H234790   0.124   3.887   1.476 -2.0546  0.2188 -0.6166
 4459TIP3   OH234791   4.902   3.021   5.647  0.7917 -0.6194 -0.3289
 4459TIP3    H134792   4.894   2.962   5.722 -1.6599 -0.7238 -0.5702
 4459TIP3    H234793   4.835   3.088   5.662  1.8497  0.7011 -1.2865
 4460TIP3   OH234794   4.820   4.340   4.611 -0.1278  0.5100  0.1824
 4460TIP3    H134795   4.876   4.278   4.564  0.5449  0.9568  0.3908
 4460TIP3    H234796   4.791   4.402   4.545  0.8292  1.1458  0.3508
 4461TIP3   OH234797   0.984   2.308  15.233  0.1048 -0.2938  0.2076
 4461TIP3    H134798   1.039   2.239  15.272  1.4452  0.3819 -0.4303
 4461TIP3    H234799   0.979   2.286  15.140 -1.1999 -0.6465  0.3394
 4462TIP3   OH234800   4.394   3.982   3.485  0.2745 -0.6655  0.1269
 4462TIP3    H134801   4.476   3.935   3.493  0.7770 -0.3969 -2.6018
 4462TIP3    H234802   4.332   3.918   3.449  0.2033 -0.0120 -0.9464
 4463TIP3   OH234803   6.431   6.106   4.091  0.5280  0.6513  0.5918
 4463TIP3    H134804   6.459   6.198   4.091 -1.6800  1.4204  2.1612
 4463TIP3    H234805   6.387   6.095   4.176  1.0399 -1.9809  0.5775
 4464TIP3   OH234806   5.503   3.558  11.613  0.3515  0.1923 -0.0079
 4464TIP3    H134807   5.526   3.465  11.610  0.1892  0.1743 -0.6892
 4464TIP3    H234808   5.582   3.603  11.583  0.0683  0.2182 -0.7187
 4465TIP3   OH234809   2.222   2.399  16.115 -0.4838 -0.4891 -0.0904
 4465TIP3    H134810   2.262   2.342  16.050 -0.2222 -0.3077 -0.0894
 4465TIP3    H234811   2.295   2.446  16.155 -0.7423  0.2623 -0.4869
 4466TIP3   OH234812   4.800   1.013  14.719  0.4819 -0.1729  0.2456
 4466TIP3    H134813   4.853   1.088  14.692  0.1656  0.6354  1.7591
 4466TIP3    H234814   4.710   1.041  14.705  0.3771 -0.4555  0.3561
 4467TIP3   OH234815   5.274   3.690  12.909 -0.2402  0.0757  0.2078
 4467TIP3    H134816   5.248   3.782  12.919 -1.0188  0.1447 -1.9500
 4467TIP3    H234817   5.263   3.652  12.996 -2.9445  1.2917  0.4888
 4468TIP3   OH234818   2.972   6.787  15.626  0.0110  0.2662 -0.5628
 4468TIP3    H134819   2.948   6.869  15.670  0.0912  0.2329 -0.4570
 4468TIP3    H234820   3.026   6.814  15.552 -1.8267  0.5012 -1.8986
 4469TIP3   OH234821   4.386   3.714   2.398  0.1221  0.3160  0.2447
 4469TIP3    H134822   4.466   3.714   2.451 -0.1247 -0.6809  0.6399
 4469TIP3    H234823   4.416   3.736   2.310  1.0452 -1.2498  0.1196
 4470TIP3   OH234824   2.643   5.277   4.020  1.2145 -0.6061  0.2344
 4470TIP3    H134825   2.645   5.244   3.930  0.8602  2.0478 -0.8266
 4470TIP3    H234826   2.551   5.298   4.036  1.3476 -0.6058  1.0808
 4471TIP3   OH234827   3.197   6.777   4.245 -0.2451 -0.0973 -0.3953
 4471TIP3    H134828   3.253   6.719   4.297 -0.5142 -0.1513 -0.1614
 4471TIP3    H234829   3.189   6.734   4.160 -0.8029 -0.6298 -0.0823
 4472TIP3   OH234830   6.767   2.940   0.640  0.1767  0.4410 -0.5504
 4472TIP3    H134831   6.740   2.896   0.721  2.4498  2.4151  1.4153
 4472TIP3    H234832   6.834   2.881   0.603  1.3213  0.9070  0.6818
 4473TIP3   OH234833   3.969   6.785  12.647 -0.0039  0.0378 -0.4613
 4473TIP3    H134834   3.953   6.700  12.607 -0.7918 -0.5300  0.9753
 4473TIP3    H234835   4.003   6.839  12.576  1.8520 -1.8438 -1.0851
 4474TIP3   OH234836   3.010   2.098   5.555 -0.5234 -0.5908  0.1136
 4474TIP3    H134837   3.077   2.162   5.579 -0.7382  1.2569 -3.5411
 4474TIP3    H234838   3.057   2.016   5.542  1.1449  0.6224 -2.1826
 4475TIP3   OH234839   5.688   3.414  16.696  0.1030  0.0616 -0.4235
 4475TIP3    H134840   5.759   3.429  16.633  0.6411  2.4986  0.6413
 4475TIP3    H234841   5.618   3.471  16.667 -0.5585 -0.6007 -0.1510
 4476TIP3   OH234842   1.223   1.520   1.271 -0.0437 -0.0355 -0.4385
 4476TIP3    H134843   1.237   1.478   1.356  2.5064  0.0118 -0.7633
 4476TIP3    H234844   1.241   1.613   1.287 -1.2289  0.2453 -0.6851
 4477TIP3   OH234845   1.972   5.960  12.723 -0.7273 -0.1099  0.1709
 4477TIP3    H134846   1.937   5.902  12.655  0.4072  1.8010 -2.1706
 4477TIP3    H234847   2.002   5.901  12.792  0.7709 -2.3848 -2.2599
 4478TIP3   OH234848   3.967   5.112  13.146 -0.0418 -0.0197  0.0207
 4478TIP3    H134849   4.003   5.046  13.205  0.1164 -0.3611 -0.4550
 4478TIP3    H234850   3.923   5.062  13.078 -1.4698  0.3923  0.6092
 4479TIP3   OH234851   0.298   4.300  13.930 -0.3588 -0.3957  0.3873
 4479TIP3    H134852   0.289   4.341  14.016  0.8773 -0.1471  0.4184
 4479TIP3    H234853   0.277   4.370  13.868  0.1396 -0.1657  0.4709
 4480TIP3   OH234854   3.504   4.222  13.735  0.2258  0.0960  0.6062
 4480TIP3    H134855   3.442   4.168  13.687  0.3183 -0.4507  1.0875
 4480TIP3    H234856   3.450   4.270  13.798  0.3471 -0.9358  1.5366
 4481TIP3   OH234857   4.809   1.446  14.179 -0.1202  0.3454 -0.5769
 4481TIP3    H134858   4.748   1.380  14.210  0.1965  0.4237  0.2199
 4481TIP3    H234859   4.754   1.508  14.131 -0.5027 -0.1692 -0.8162
 4482TIP3   OH234860   6.562   5.931  11.626 -0.2275 -0.1571  0.1407
 4482TIP3    H134861   6.629   5.919  11.559  0.9159  1.1225  0.9982
 4482TIP3    H234862   6.480   5.909  11.582  0.7476 -1.9012 -0.8934
 4483TIP3   OH234863   3.618   6.630  12.636  0.0259  0.3716 -0.1407
 4483TIP3    H134864   3.605   6.674  12.552  2.4594  0.3552 -0.5772
 4483TIP3    H234865   3.631   6.702  12.698  1.5131  0.3583 -0.4061
 4484TIP3   OH234866   0.110   6.092  16.341  0.5101 -0.0224  0.3681
 4484TIP3    H134867   0.181   6.125  16.396  0.8681 -1.8241  1.0539
 4484TIP3    H234868   0.044   6.060  16.403 -0.5283  0.7906 -0.2634
 4485TIP3   OH234869   2.650   0.424   0.667 -0.2999 -0.0172 -0.0791
 4485TIP3    H134870   2.713   0.468   0.610 -1.0084 -0.9225 -1.6386
 4485TIP3    H234871   2.638   0.484   0.741  0.9291  1.0358 -0.6896
 4486TIP3   OH234872   5.224   2.062   4.889 -0.2140  0.3589 -0.0248
 4486TIP3    H134873   5.222   1.970   4.917  1.0885  0.7596  1.4997
 4486TIP3    H234874   5.261   2.059   4.801 -2.2519 -0.7364 -0.9143
 4487TIP3   OH234875   4.319   2.706  14.670  0.0459  0.1669  0.0849
 4487TIP3    H134876   4.282   2.703  14.759  0.6716  0.4643  0.3644
 4487TIP3    H234877   4.324   2.614  14.644 -0.1848  0.0781  0.3426
 4488TIP3   OH234878   3.006   3.665   3.316 -0.0672 -0.3283 -0.3136
 4488TIP3    H134879   2.935   3.603   3.334 -0.4978  0.4591  0.8022
 4488TIP3    H234880   3.053   3.626   3.242  0.6112 -2.8052  1.2563
 4489TIP3   OH234881   4.399   5.737   1.133  0.2591  0.0282 -0.0669
 4489TIP3    H134882   4.316   5.753   1.088 -1.5160 -2.4994  2.0137
 4489TIP3    H234883   4.451   5.687   1.069  0.1677  1.4608 -1.3178
 4490TIP3   OH234884   3.883   3.147   2.040 -0.2337  0.1177 -0.0431
 4490TIP3    H134885   3.866   3.226   1.989 -0.2738 -1.2239 -2.2143
 4490TIP3    H234886   3.799   3.125   2.079 -0.8354 -0.2231 -1.4861
 4491TIP3   OH234887   3.114   2.531  15.231 -0.1548 -0.0415 -0.5374
 4491TIP3    H134888   3.027   2.572  15.236 -0.7212 -1.3314  2.5066
 4491TIP3    H234889   3.121   2.503  15.140 -1.9760  2.0220 -1.4175
 4492TIP3   OH234890   2.712   6.459   5.107  0.0228  0.2163  0.1286
 4492TIP3    H134891   2.793   6.429   5.065  0.3935  0.1083  0.9092
 4492TIP3    H234892   2.740   6.527   5.167 -0.0618 -1.6392  2.4107
 4493TIP3   OH234893   1.548   3.394   0.695 -0.1095 -0.0134  0.5903
 4493TIP3    H134894   1.629   3.370   0.740 -0.2811 -2.0423 -0.1182
 4493TIP3    H234895   1.555   3.354   0.609 -1.5678  0.3685  0.2653
 4494TIP3   OH234896   1.835   0.508   6.615  0.4828 -0.0434 -0.0588
 4494TIP3    H134897   1.770   0.482   6.681 -0.4978  0.4167 -0.8073
 4494TIP3    H234898   1.902   0.441   6.621 -0.7496 -1.3483 -0.2109
 4495TIP3   OH234899   4.965   1.255   6.405  0.3775  0.4094 -0.4963
 4495TIP3    H134900   4.872   1.273   6.390 -0.3276 -0.9900  1.6753
 4495TIP3    H234901   4.977   1.166   6.372  0.8135  0.3869 -0.2705
 4496TIP3   OH234902   6.242   0.228  15.209  0.4664  0.5430 -0.1639
 4496TIP3    H134903   6.156   0.207  15.246  0.8671 -1.4083 -0.2132
 4496TIP3    H234904   6.231   0.218  15.115  0.5035  1.2916 -0.2496
 4497TIP3   OH234905   2.503   2.508   5.886  0.0606 -0.3767 -0.0478
 4497TIP3    H134906   2.431   2.456   5.851  0.0763  0.8796 -2.0812
 4497TIP3    H234907   2.578   2.448   5.883 -0.5266 -1.1642  0.5048
 4498TIP3   OH234908   2.313   1.580   6.301 -0.1751  0.1279 -0.3528
 4498TIP3    H134909   2.297   1.622   6.217  0.2365 -0.3376 -0.6697
 4498TIP3    H234910   2.368   1.642   6.350  1.8532 -0.7008 -1.4494
 4499TIP3   OH234911   2.622   1.756   2.205  0.2132 -0.0130  0.4071
 4499TIP3    H134912   2.662   1.671   2.191 -2.1057 -0.7787 -3.0032
 4499TIP3    H234913   2.688   1.819   2.174  1.7740 -0.4797  2.5639
 4500TIP3   OH234914   5.059   3.164  14.990 -0.7174  0.3005  0.3846
 4500TIP3    H134915   5.009   3.238  15.024  1.3248  1.2951  1.4055
 4500TIP3    H234916   5.045   3.094  15.054  0.5663  1.1596  1.6817
 4501TIP3   OH234917   6.080   1.233  15.412  0.6249  0.4038 -0.1636
 4501TIP3    H134918   6.094   1.294  15.484  0.5286  2.4402 -1.7822
 4501TIP3    H234919   6.141   1.162  15.429  1.0970  1.1769  1.5503
 4502TIP3   OH234920   3.372   2.182  16.778 -0.1055 -0.1215 -0.3341
 4502TIP3    H134921   3.389   2.276  16.778 -0.1077 -0.1222 -0.4784
 4502TIP3    H234922   3.360   2.161  16.871  0.9494 -0.1666 -0.1998
 4503TIP3   OH234923   1.356   0.516   3.598  0.2555 -0.0227 -0.4192
 4503TIP3    H134924   1.343   0.601   3.557  0.3817 -1.2896 -3.3146
 4503TIP3    H234925   1.376   0.537   3.690 -3.3769  2.8446 -0.0467
 4504TIP3   OH234926   3.211   0.134  14.614 -0.1907  0.2357  0.2792
 4504TIP3    H134927   3.179   0.220  14.586  0.2951 -0.1346 -1.5363
 4504TIP3    H234928   3.131   0.083  14.628 -0.5753 -0.2881 -2.9668
 4505TIP3   OH234929   0.745   3.682   2.329  0.3489  0.2611 -0.1056
 4505TIP3    H134930   0.731   3.726   2.414  0.6451 -1.4874  0.8927
 4505TIP3    H234931   0.802   3.742   2.281  1.5334  0.5644  1.5750
 4506TIP3   OH234932   0.355   6.326   4.825 -0.0059  0.4906 -0.1274
 4506TIP3    H134933   0.415   6.395   4.854  1.0763 -0.7800  0.7610
 4506TIP3    H234934   0.286   6.325   4.891  0.8564 -0.3540  0.8036
 4507TIP3   OH234935   2.509   6.320   0.684 -0.5980 -0.4531  0.1277
 4507TIP3    H134936   2.513   6.390   0.619  1.5955 -0.6749 -0.0414
 4507TIP3    H234937   2.496   6.240   0.633  2.1274 -0.7582 -0.2478
 4508TIP3   OH234938   6.668   0.857  15.437  0.1768  0.0049  0.4490
 4508TIP3    H134939   6.608   0.884  15.367  1.1026  0.1420 -0.3099
 4508TIP3    H234940   6.611   0.840  15.512 -0.7012  1.2142  0.0775
 4509TIP3   OH234941   6.452   4.633   1.334  0.2314 -0.0578  0.3874
 4509TIP3    H134942   6.374   4.629   1.279 -0.0948 -0.2334  0.8624
 4509TIP3    H234943   6.515   4.684   1.282 -0.1787  0.0437 -0.0149
 4510TIP3   OH234944   5.329   6.173  14.097  0.2292  0.6811  0.4355
 4510TIP3    H134945   5.379   6.152  14.018  1.2860  0.8210  1.0568
 4510TIP3    H234946   5.242   6.195  14.065  0.4220 -0.0453 -0.6291
 4511TIP3   OH234947   0.353   4.635  12.480  0.4105  0.1101 -0.7041
 4511TIP3    H134948   0.443   4.665  12.469  0.6708 -0.8545 -1.3737
 4511TIP3    H234949   0.356   4.578  12.557  0.2621  0.4965 -0.4119
 4512TIP3   OH234950   3.510   5.932  10.989 -0.4186  0.2598 -0.0699
 4512TIP3    H134951   3.579   5.891  10.936  0.4708  1.6757 -0.0423
 4512TIP3    H234952   3.520   6.026  10.974 -1.6906  0.5523  0.7524
 4513TIP3   OH234953   3.686   3.460   1.015 -0.3123 -0.0604 -0.4830
 4513TIP3    H134954   3.727   3.452   0.929  2.3964 -0.5210  0.7346
 4513TIP3    H234955   3.593   3.449   0.998  0.2603 -1.9974 -3.1502
 4514TIP3   OH234956   6.645   2.511  14.620 -0.1649  0.3288 -0.0554
 4514TIP3    H134957   6.703   2.460  14.677  0.9511  0.4525 -1.0454
 4514TIP3    H234958   6.652   2.601  14.653  1.9782  0.7604 -1.4784
 4515TIP3   OH234959   5.344   5.192  12.021 -0.1659  0.7248 -0.1709
 4515TIP3    H134960   5.333   5.286  12.010  0.8405  1.1708  2.0673
 4515TIP3    H234961   5.369   5.181  12.113 -0.3548 -1.7439 -0.3359
 4516TIP3   OH234962   3.164   2.089  12.419 -0.2567 -0.1854  0.0778
 4516TIP3    H134963   3.204   2.027  12.358 -0.0852  0.3838 -0.3901
 4516TIP3    H234964   3.215   2.169  12.410 -2.2721  1.0199 -1.5385
 4517TIP3   OH234965   6.079   6.726  16.524  0.3759 -0.5375  0.2153
 4517TIP3    H134966   6.095   6.697  16.614 -0.1686  0.5589  0.6858
 4517TIP3    H234967   6.088   6.647  16.471  1.5251 -1.0538  1.1273
 4518TIP3   OH234968   0.179   5.066   4.871 -0.2563  0.1379  0.4407
 4518TIP3    H134969   0.167   5.038   4.780 -0.0965  0.4008  0.3358
 4518TIP3    H234970   0.120   5.010   4.921 -0.4806  0.1115  0.1547
 4519TIP3   OH234971   4.059   6.108  17.133 -0.4830 -0.1586  0.1575
 4519TIP3    H134972   3.965   6.121  17.136 -0.4786  0.1931 -0.7641
 4519TIP3    H234973   4.089   6.165  17.061 -0.1560 -3.3614 -2.5030
 4520TIP3   OH234974   1.250   6.004   2.398  0.0703 -0.5754 -0.1735
 4520TIP3    H134975   1.339   5.978   2.422  0.1901 -0.0591 -0.0386
 4520TIP3    H234976   1.257   6.028   2.305  0.5747  1.5592  0.3671
 4521TIP3   OH234977   2.873   2.325   1.211  0.1477  0.4213 -0.0704
 4521TIP3    H134978   2.826   2.362   1.136 -1.1688 -0.3385  0.3623
 4521TIP3    H234979   2.933   2.261   1.173 -1.7372 -1.2267 -0.3790
 4522TIP3   OH234980   1.475   1.433  14.363  0.5629 -0.4471  0.2845
 4522TIP3    H134981   1.532   1.477  14.427  1.4552 -1.0644 -0.0651
 4522TIP3    H234982   1.528   1.361  14.329 -0.3422 -0.8772 -0.2553
 4523TIP3   OH234983   0.369   4.125  15.324  0.0053 -0.0784  0.0204
 4523TIP3    H134984   0.333   4.160  15.405  0.9229  0.9719  0.0019
 4523TIP3    H234985   0.298   4.132  15.260 -0.1287  0.8800  0.2666
 4524TIP3   OH234986   2.519   5.821  13.084  0.2538  0.3051 -0.0995
 4524TIP3    H134987   2.589   5.829  13.150  0.7809 -2.2796 -0.2296
 4524TIP3    H234988   2.490   5.730  13.091 -3.0169  1.2164 -0.2178
 4525TIP3   OH234989   2.548   2.889  13.000 -0.3152  0.6995 -0.2405
 4525TIP3    H134990   2.520   2.798  12.992  1.3793  0.1753 -0.6940
 4525TIP3    H234991   2.476   2.933  13.044  0.0020 -1.4556  2.6952
 4526TIP3   OH234992   6.511   3.512   2.102  0.0907  0.2004  0.0098
 4526TIP3    H134993   6.488   3.472   2.019 -1.0074 -1.7354  1.1829
 4526TIP3    H234994   6.605   3.530   2.094 -0.0548  0.3385 -1.7333
 4527TIP3   OH234995   0.985   4.322   1.740 -0.8756  0.2470 -0.1118
 4527TIP3    H134996   1.035   4.345   1.818 -0.3822 -0.5596 -0.1790
 4527TIP3    H234997   1.050   4.291   1.678 -1.4569 -1.0025 -0.1328
 4528TIP3   OH234998   1.355   2.643   4.304 -0.0205 -0.2224 -0.2794
 4528TIP3    H134999   1.329   2.696   4.380 -0.3128  1.3270 -1.3994
 4528TIP3    H235000   1.413   2.700   4.253 -0.3362 -0.9767 -1.5417
 4529TIP3   OH235001   5.226   3.827  11.499  0.4869 -0.0881  0.4236
 4529TIP3    H135002   5.148   3.785  11.463  0.7450 -0.2981  0.1035
 4529TIP3    H235003   5.205   3.920  11.500  0.0640 -0.1862  0.7644
 4530TIP3   OH235004   3.270   4.513   6.693  0.2156 -0.0767 -0.3951
 4530TIP3    H135005   3.363   4.496   6.681  0.2429  0.2612 -0.6974
 4530TIP3    H235006   3.251   4.585   6.633  0.3549  1.7578  1.6771
 4531TIP3   OH235007   0.292   0.997  15.810  0.6675  0.0042  0.0420
 4531TIP3    H135008   0.360   1.058  15.838  1.3620 -0.7754  0.1218
 4531TIP3    H235009   0.279   0.939  15.886  0.1032 -0.0148 -0.0641
 4532TIP3   OH235010   2.326   3.708  13.460 -0.4853  0.3083  0.2129
 4532TIP3    H135011   2.303   3.615  13.457  1.5218 -0.2130 -1.4795
 4532TIP3    H235012   2.254   3.749  13.509 -2.8065 -1.7249 -1.2464
 4533TIP3   OH235013   1.587   0.502  10.676 -0.5047 -0.2932 -0.3766
 4533TIP3    H135014   1.558   0.491  10.585  1.2728 -1.7916 -0.8285
 4533TIP3    H235015   1.666   0.556  10.669 -0.0387 -0.8830  0.2127
 4534TIP3   OH235016   5.066   0.620  13.837 -0.2334  0.7850 -0.2448
 4534TIP3    H135017   4.995   0.645  13.778 -2.2771  0.3097  1.8542
 4534TIP3    H235018   5.047   0.529  13.861  2.5622 -0.2719 -1.5293
 4535TIP3   OH235019   3.428   3.521   0.896 -0.1018 -0.3890  0.1309
 4535TIP3    H135020   3.353   3.520   0.955 -2.1718 -0.7543 -2.3014
 4535TIP3    H235021   3.419   3.441   0.844  0.9507  0.4292 -1.3991
 4536TIP3   OH235022   4.762   3.397  16.529 -0.0819 -0.5582  0.3062
 4536TIP3    H135023   4.668   3.413  16.531  0.0820  0.4353  0.4598
 4536TIP3    H235024   4.801   3.481  16.552  0.8150 -1.5295  2.6312
 4537TIP3   OH235025   5.474   0.141  15.476 -0.3887 -0.2159  0.5931
 4537TIP3    H135026   5.455   0.051  15.449 -0.9443  0.0028  0.2429
 4537TIP3    H235027   5.388   0.178  15.495 -0.3880  0.9121 -1.3701
 4538TIP3   OH235028   0.796   1.332  16.331 -0.3599  0.3592 -0.2783
 4538TIP3    H135029   0.867   1.323  16.394  0.3388  0.3356 -1.0627
 4538TIP3    H235030   0.734   1.392  16.374 -1.8081 -2.5756  2.0917
 4539TIP3   OH235031   4.269   1.703  15.043  0.3472 -0.1977  0.1757
 4539TIP3    H135032   4.322   1.772  15.084 -1.1518  2.0668 -1.4120
 4539TIP3    H235033   4.213   1.671  15.114  0.5432  0.7636  0.7918
 4540TIP3   OH235034   0.592   1.980   0.568  0.7649 -0.0472 -0.5314
 4540TIP3    H135035   0.552   2.035   0.634 -0.5329 -1.6836  0.1017
 4540TIP3    H235036   0.648   1.920   0.617  0.5006 -0.6866 -0.9982
 4541TIP3   OH235037   1.233   6.620  12.070 -0.2915  0.3416 -0.3208
 4541TIP3    H135038   1.191   6.692  12.023 -0.3672  0.6644  0.2335
 4541TIP3    H235039   1.204   6.630  12.161 -0.5861 -0.6020 -0.3004
 4542TIP3   OH235040   0.865   6.036   3.841 -0.1245  0.1360  0.2035
 4542TIP3    H135041   0.894   6.066   3.927 -0.7338  1.1712  0.0628
 4542TIP3    H235042   0.894   5.945   3.836  2.9737  1.0019  0.1257
 4543TIP3   OH235043   3.459   0.755   5.688 -0.0036 -0.4531 -0.0049
 4543TIP3    H135044   3.434   0.804   5.610 -1.7583 -2.5005 -0.8304
 4543TIP3    H235045   3.387   0.769   5.749  0.9699  0.4576  0.9874
 4544TIP3   OH235046   1.056   0.253  11.256  0.2666  0.2132 -0.3760
 4544TIP3    H135047   1.138   0.297  11.236  0.4424  0.3256  0.5547
 4544TIP3    H235048   1.010   0.312  11.315  0.3769 -0.6990  0.6508
 4545TIP3   OH235049   1.889   6.753   5.622 -0.2357 -0.4649  0.2107
 4545TIP3    H135050   1.960   6.695   5.645  0.7218  0.7771  0.4986
 4545TIP3    H235051   1.809   6.706   5.647  0.5022 -1.6246  0.4239
 4546TIP3   OH235052   4.186   6.040  11.536 -0.0492 -0.9652 -0.2876
 4546TIP3    H135053   4.158   6.002  11.452 -0.8518 -1.4186  0.1725
 4546TIP3    H235054   4.107   6.081  11.571  0.9930  2.1431 -1.2557
 4547TIP3   OH235055   0.366   5.684  16.334  0.0947  0.1937  0.1893
 4547TIP3    H135056   0.403   5.770  16.316  4.5344 -1.3909  0.6158
 4547TIP3    H235057   0.348   5.685  16.428 -2.5640  1.3771 -0.2109
 4548TIP3   OH235058   3.133   4.452   4.595 -0.3076  0.3370  0.5017
 4548TIP3    H135059   3.127   4.390   4.667  0.3283 -0.5112 -0.1587
 4548TIP3    H235060   3.154   4.535   4.636 -2.1098  0.3512  1.5014
 4549TIP3   OH235061   2.620   4.183  13.375  0.9459  0.7395  0.3286
 4549TIP3    H135062   2.711   4.193  13.404  1.0367 -0.8401  0.6701
 4549TIP3    H235063   2.604   4.261  13.321  2.6513  0.8223 -0.1390
 4550TIP3   OH235064   0.239   3.729  13.771 -0.4659 -0.4039  0.4751
 4550TIP3    H135065   0.215   3.642  13.740  2.5969 -1.4149  0.6124
 4550TIP3    H235066   0.307   3.713  13.837 -0.7453  2.0678  1.4811
 4551TIP3   OH235067   2.364   6.640  16.309  0.0798  0.1480 -0.5454
 4551TIP3    H135068   2.340   6.568  16.367  0.7131  0.1136 -0.3237
 4551TIP3    H235069   2.443   6.677  16.348  2.0311 -1.4410 -2.7072
 4552TIP3   OH235070   1.491   5.668  13.348  0.0765  0.5716  0.4306
 4552TIP3    H135071   1.556   5.718  13.398 -0.4442  0.4149  1.2692
 4552TIP3    H235072   1.503   5.577  13.377  0.1166  0.4018 -0.1092
 4553TIP3   OH235073   5.207   2.265   2.429 -0.3146  0.1318 -0.7582
 4553TIP3    H135074   5.230   2.234   2.341  1.1150 -0.2228 -0.2759
 4553TIP3    H235075   5.197   2.360   2.419  0.0023  0.1164 -1.2676
 4554TIP3   OH235076   4.589   0.377   3.733  0.3069  0.1219 -0.1759
 4554TIP3    H135077   4.651   0.307   3.713 -0.0307  0.0167 -0.9119
 4554TIP3    H235078   4.614   0.408   3.820  1.2535 -0.0616 -0.3733
 4555TIP3   OH235079   6.293   6.135   5.193  0.1733  0.0313  0.3711
 4555TIP3    H135080   6.287   6.166   5.283 -2.2036  1.5360 -0.1909
 4555TIP3    H235081   6.220   6.074   5.183  0.5651 -0.3200 -0.4699
 4556TIP3   OH235082   1.294   3.689  16.912  0.2007  0.6312  0.0844
 4556TIP3    H135083   1.273   3.781  16.930  2.4157  1.3414 -0.6381
 4556TIP3    H235084   1.308   3.686  16.818  1.0258 -0.2325  0.2197
 4557TIP3   OH235085   4.640   4.328  15.174  0.0690 -0.2070  0.0800
 4557TIP3    H135086   4.715   4.294  15.126 -1.3623  0.0079 -2.4720
 4557TIP3    H235087   4.586   4.251  15.193 -0.3760 -0.0569 -0.5468
 4558TIP3   OH235088   3.367   0.032   3.542  0.7248 -0.4377  0.1683
 4558TIP3    H135089   3.444  -0.001   3.496 -0.6301 -0.4727 -2.2385
 4558TIP3    H235090   3.309  -0.044   3.550 -0.4352  0.2420 -1.1658
 4559TIP3   OH235091   4.319   2.239  11.994  0.2074 -0.3912  0.0328
 4559TIP3    H135092   4.294   2.252  11.903  1.2225  1.0964 -0.0712
 4559TIP3    H235093   4.324   2.144  12.004 -0.8970 -0.6090 -1.1630
 4560TIP3   OH235094   2.262   3.990   4.585  0.3882  0.2862 -0.1964
 4560TIP3    H135095   2.336   3.937   4.615  0.5963  0.7563  0.1499
 4560TIP3    H235096   2.186   3.932   4.591  0.8025 -0.3715 -1.0675
 4561TIP3   OH235097   4.904   6.087  13.307  0.3442  0.4349  0.0510
 4561TIP3    H135098   4.884   6.070  13.215  2.3014 -0.4797 -0.2472
 4561TIP3    H235099   4.904   6.001  13.348  1.0897  0.6707  0.5550
 4562TIP3   OH235100   4.252   4.851   0.838  0.3967 -0.5316  0.2398
 4562TIP3    H135101   4.309   4.816   0.769  0.2970 -0.4028  0.0884
 4562TIP3    H235102   4.201   4.919   0.793 -0.3422 -1.0916  0.2179
 4563TIP3   OH235103   5.711   5.124   0.718  0.8511 -0.5445  0.4763
 4563TIP3    H135104   5.660   5.153   0.643 -0.6366 -1.0544  1.2475
 4563TIP3    H235105   5.676   5.173   0.792  1.8588 -0.5147  0.9559
 4564TIP3   OH235106   0.806   2.529  12.861 -0.5499  0.2585 -0.3108
 4564TIP3    H135107   0.801   2.483  12.945  0.3084  2.1325  0.8242
 4564TIP3    H235108   0.726   2.504  12.815 -0.9501 -0.9362  0.9755
 4565TIP3   OH235109   3.603   2.740   3.751  0.6434  0.1417 -0.3990
 4565TIP3    H135110   3.532   2.730   3.814  0.9176  0.0546 -0.0990
 4565TIP3    H235111   3.668   2.793   3.797  0.6359  0.4872 -0.7844
 4566TIP3   OH235112   3.483   5.122  15.235 -0.2900  0.3418 -0.1578
 4566TIP3    H135113   3.509   5.185  15.302  2.3044 -0.7041 -0.0923
 4566TIP3    H235114   3.531   5.042  15.256 -0.8658 -0.6201 -2.1894
 4567TIP3   OH235115   0.696   6.018  15.342 -0.2995 -0.5109 -0.2825
 4567TIP3    H135116   0.668   6.108  15.357  1.2529  0.5423 -2.9467
 4567TIP3    H235117   0.616   5.971  15.320 -0.8564  0.7671 -1.0579
 4568TIP3   OH235118   1.105   5.844  16.126  0.1310 -0.2118  0.2664
 4568TIP3    H135119   1.181   5.876  16.175  0.2967 -0.9470  0.4996
 4568TIP3    H235120   1.036   5.908  16.144  0.5297  0.1481  0.5199
 4569TIP3   OH235121   1.530   6.252  11.394  0.3657 -0.2902 -0.0143
 4569TIP3    H135122   1.519   6.177  11.335  1.1753 -1.4246  1.2197
 4569TIP3    H235123   1.591   6.310  11.348  0.5083 -0.8532 -0.5533
 4570TIP3   OH235124   5.542   2.174  16.425  0.1711 -0.0681  0.0246
 4570TIP3    H135125   5.499   2.133  16.350 -0.0781  0.0111  0.1201
 4570TIP3    H235126   5.560   2.264  16.397  1.8728 -0.5764 -0.6391
 4571TIP3   OH235127   4.360   1.463  13.432 -0.3724  0.2830  0.0048
 4571TIP3    H135128   4.272   1.482  13.402 -0.7289  0.4639  1.1132
 4571TIP3    H235129   4.412   1.539  13.406  0.0146 -0.8145 -2.7170
 4572TIP3   OH235130   6.786   6.715  16.686 -0.1323 -0.0644  0.1653
 4572TIP3    H135131   6.867   6.712  16.636  0.0829 -0.1289  0.5142
 4572TIP3    H235132   6.717   6.727  16.621  0.3606  2.8011  0.0143
 4573TIP3   OH235133   4.453   2.903  14.179  0.0230  0.2300 -0.1828
 4573TIP3    H135134   4.371   2.885  14.225  0.5059 -1.6716  0.0511
 4573TIP3    H235135   4.485   2.985  14.216 -0.7874 -0.0336  1.1489
 4574TIP3   OH235136   6.776   0.425  11.072  0.4849  0.0673 -0.5765
 4574TIP3    H135137   6.826   0.447  10.993  0.9424  1.8309  0.1565
 4574TIP3    H235138   6.727   0.346  11.048  0.3964  0.6969 -2.7264
 4575TIP3   OH235139   1.929   5.288  12.716  0.1920 -0.3322 -0.3260
 4575TIP3    H135140   1.966   5.325  12.636 -0.7541 -0.7273 -0.9549
 4575TIP3    H235141   1.835   5.301  12.708  0.0966 -0.1280  0.8596
 4576TIP3   OH235142   4.529   1.518  14.523 -0.0075 -0.0713 -0.7790
 4576TIP3    H135143   4.503   1.607  14.498 -0.6239  0.1591  0.6163
 4576TIP3    H235144   4.620   1.511  14.495  0.4906  1.5157  0.3446
 4577TIP3   OH235145   2.633   5.177   2.327  0.2598  0.2243  0.0115
 4577TIP3    H135146   2.597   5.220   2.250 -2.6279  0.5535  1.4013
 4577TIP3    H235147   2.613   5.236   2.399  1.0787 -0.9942  1.2905
 4578TIP3   OH235148   0.814   2.832  14.389 -0.1063  0.4581  0.0166
 4578TIP3    H135149   0.857   2.846  14.473  0.3518  0.9217 -0.2877
 4578TIP3    H235150   0.783   2.742  14.393 -0.3949  0.5818  0.8142
 4579TIP3   OH235151   1.938   3.656  15.168 -0.4224 -0.0816 -0.4350
 4579TIP3    H135152   1.857   3.651  15.220 -0.1739 -0.7244 -0.1049
 4579TIP3    H235153   1.920   3.604  15.090 -0.0590 -0.8645  0.0021
 4580TIP3   OH235154   4.177   2.382   3.149  0.0653  0.0435 -0.0617
 4580TIP3    H135155   4.157   2.412   3.237  0.0743  2.3642 -0.7812
 4580TIP3    H235156   4.219   2.457   3.106  1.7864 -1.6052 -1.4931
 4581TIP3   OH235157   2.367   4.044   5.497  0.0581 -0.4585  0.7470
 4581TIP3    H135158   2.339   4.119   5.550 -0.7978 -1.1163  1.2547
 4581TIP3    H235159   2.352   4.072   5.406  1.4069  0.6238  0.8297
 4582TIP3   OH235160   0.665   0.915  15.133 -0.2947  0.2848 -0.1136
 4582TIP3    H135161   0.599   0.916  15.202  0.6644  0.9483  0.8339
 4582TIP3    H235162   0.685   1.007  15.117  2.0444  0.1257  1.3131
 4583TIP3   OH235163   1.025   2.266   5.921 -0.1917  0.2500  0.1042
 4583TIP3    H135164   1.099   2.302   5.969 -0.4241  0.6645  0.1540
 4583TIP3    H235165   0.975   2.218   5.987 -0.0221  0.0476  0.0887
 4584TIP3   OH235166   4.443   2.888   0.160  0.2541  0.3441 -0.7732
 4584TIP3    H135167   4.490   2.928   0.234  0.6762 -0.0155 -0.8418
 4584TIP3    H235168   4.493   2.809   0.140 -0.4591 -0.1147 -0.7754
 4585TIP3   OH235169   2.467   1.093  10.611  0.4382  0.2404  0.1253
 4585TIP3    H135170   2.460   1.184  10.582  3.4516  0.9086  1.1486
 4585TIP3    H235171   2.438   1.095  10.702  1.6837  0.4961  0.5411
 4586TIP3   OH235172   4.555   6.622   5.347  0.3569  0.1613  0.8159
 4586TIP3    H135173   4.628   6.585   5.397 -0.2530 -1.2095  0.7532
 4586TIP3    H235174   4.478   6.605   5.401 -0.1956 -0.5072 -0.1436
 4587TIP3   OH235175   5.370   5.685  15.834  0.9817 -0.3030  0.0913
 4587TIP3    H135176   5.401   5.630  15.762  2.2996  1.8460 -1.0703
 4587TIP3    H235177   5.407   5.643  15.912  1.3518 -1.4641 -0.6809
 4588TIP3   OH235178   4.566   5.045   0.121 -0.0923  0.2083  0.1158
 4588TIP3    H135179   4.501   5.071   0.056 -2.1129 -2.8902  0.6494
 4588TIP3    H235180   4.525   5.066   0.205  0.0470 -0.7665  0.4445
 4589TIP3   OH235181   4.690   6.016  15.804  0.0970  0.1945  0.1326
 4589TIP3    H135182   4.738   6.027  15.722 -1.3194  0.4538 -0.7040
 4589TIP3    H235183   4.756   6.025  15.873  1.7732 -2.2956 -0.9889
 4590TIP3   OH235184   1.206   2.239  12.979  0.0917  0.5577 -0.0347
 4590TIP3    H135185   1.160   2.240  12.895  2.0166  3.4741 -1.2190
 4590TIP3    H235186   1.208   2.330  13.006  1.5516 -0.0124  2.0271
 4591TIP3   OH235187   3.393   5.409  10.555 -0.1173 -0.2546  0.2035
 4591TIP3    H135188   3.411   5.374  10.468  3.3443 -1.3008  1.1789
 4591TIP3    H235189   3.457   5.480  10.566 -0.3682 -0.2500  1.9613
 4592TIP3   OH235190   0.296   0.081  15.049 -0.3958 -0.6375  0.0700
 4592TIP3    H135191   0.339   0.166  15.060  0.3882 -1.1493  1.1127
 4592TIP3    H235192   0.239   0.073  15.126  0.0362 -1.3410  0.3237
 4593TIP3   OH235193   0.935   0.932   4.414  0.5161  0.4760  0.0678
 4593TIP3    H135194   1.002   0.981   4.461  0.6337 -1.7089  2.3940
 4593TIP3    H235195   0.855   0.943   4.466  0.6389 -1.9880  0.9090
 4594TIP3   OH235196   5.701   6.261  15.817  0.1257 -0.2637  0.3620
 4594TIP3    H135197   5.638   6.330  15.800  2.6304  1.9204 -0.7958
 4594TIP3    H235198   5.700   6.207  15.738  1.1629  1.0649 -0.6078
 4595TIP3   OH235199   6.085   0.541  15.394 -0.0752  0.1362 -0.4408
 4595TIP3    H135200   6.146   0.557  15.466 -0.2666  0.9274 -0.4466
 4595TIP3    H235201   6.030   0.619  15.392 -1.3815 -0.7437 -0.1562
 4596TIP3   OH235202   5.944   0.895  15.472  0.5746 -0.6545 -0.4940
 4596TIP3    H135203   6.033   0.928  15.473  0.3072  0.2193 -2.0829
 4596TIP3    H235204   5.933   0.858  15.384 -0.6816 -0.5479 -0.4073
 4597TIP3   OH235205   0.280   2.862   3.414  0.3795  0.2513 -0.5140
 4597TIP3    H135206   0.247   2.795   3.473  2.5001  0.2483  0.7644
 4597TIP3    H235207   0.265   2.945   3.460  1.7036  0.2763 -0.0729
 4598TIP3   OH235208   2.169   5.612  10.934  0.0290  0.3312 -0.5401
 4598TIP3    H135209   2.242   5.550  10.930  0.5863  0.9016  0.3810
 4598TIP3    H235210   2.113   5.589  10.860 -0.3073 -1.8981  0.3478
 4599TIP3   OH235211   0.622   6.384   0.462 -0.0321 -0.1808  0.7503
 4599TIP3    H135212   0.707   6.349   0.435 -0.2681  1.5756 -2.8461
 4599TIP3    H235213   0.639   6.424   0.547  2.4054 -1.0373  0.7471
 4600TIP3   OH235214   0.367   5.883   1.006 -0.2095 -0.0483  0.5507
 4600TIP3    H135215   0.429   5.826   0.960  1.1712 -0.2772  2.5778
 4600TIP3    H235216   0.417   5.963   1.023 -1.0028  0.3939  0.8192
 4601TIP3   OH235217   4.737   0.530   4.422 -0.8363  0.3225 -0.2276
 4601TIP3    H135218   4.704   0.443   4.400 -1.4539  0.0493  1.5563
 4601TIP3    H235219   4.660   0.578   4.454 -0.4302  1.3964 -0.7956
 4602TIP3   OH235220   4.541   2.946   2.322  0.1889 -0.2525  0.0774
 4602TIP3    H135221   4.451   2.960   2.350  0.4521  1.7463  0.0996
 4602TIP3    H235222   4.543   2.975   2.231  0.7298 -0.6089 -0.0283
 4603TIP3   OH235223   6.572   4.468  11.677  0.4415 -0.2670 -0.1969
 4603TIP3    H135224   6.551   4.455  11.585  0.4735  0.0580 -0.2517
 4603TIP3    H235225   6.493   4.509  11.714  1.5541  2.7461 -0.8157
 4604TIP3   OH235226   4.749   4.683   6.177 -0.1842 -0.2461 -0.1164
 4604TIP3    H135227   4.664   4.719   6.200 -0.7777  1.1666 -3.9211
 4604TIP3    H235228   4.731   4.610   6.118  1.2724 -1.1431  0.4550
 4605TIP3   OH235229   3.243   0.018  12.430 -0.1785 -0.2313 -0.2655
 4605TIP3    H135230   3.290  -0.049  12.380 -0.3123  0.0373 -0.7567
 4605TIP3    H235231   3.260   0.100  12.384  0.4332  0.1743  0.6498
 4606TIP3   OH235232   2.146   2.907   2.725 -0.0479  0.2051  0.5822
 4606TIP3    H135233   2.227   2.856   2.732  1.5115  2.4653  0.3634
 4606TIP3    H235234   2.142   2.933   2.633 -1.4372 -0.4440  0.4375
 4607TIP3   OH235235   4.830   3.574  16.223  0.1080 -0.0354  0.2137
 4607TIP3    H135236   4.742   3.555  16.253  0.1000 -2.4416 -1.0763
 4607TIP3    H235237   4.886   3.515  16.273  0.8021  0.3997 -0.0343
 4608TIP3   OH235238   4.296   2.153  10.938  0.2215  0.4712 -0.1387
 4608TIP3    H135239   4.362   2.090  10.968 -0.6909 -0.5961 -0.2857
 4608TIP3    H235240   4.214   2.104  10.940 -0.4205  1.4737 -0.9015
 4609TIP3   OH235241   3.566   0.087  11.214  1.3207 -0.2995  0.2990
 4609TIP3    H135242   3.508   0.158  11.187  0.7836 -1.0856 -0.6339
 4609TIP3    H235243   3.553   0.081  11.309  0.4702  0.0471  0.2117
 4610TIP3   OH235244   6.458   0.489  15.566 -0.3887 -0.2927  0.6487
 4610TIP3    H135245   6.469   0.402  15.528  1.2034  0.2788 -0.3142
 4610TIP3    H235246   6.474   0.476  15.660  1.8743 -0.7707  0.2678
 4611TIP3   OH235247   2.808   0.855  11.761 -0.2984  0.0305  0.1302
 4611TIP3    H135248   2.824   0.848  11.855 -1.9830  1.3169  0.5731
 4611TIP3    H235249   2.778   0.768  11.735  2.4940 -1.0414  0.2198
 4612TIP3   OH235250   6.304   3.267   6.159 -0.2819  0.0323 -0.1707
 4612TIP3    H135251   6.251   3.188   6.170 -0.0164 -0.0468  0.6411
 4612TIP3    H235252   6.285   3.319   6.237 -0.2518  0.6543 -0.5711
 4613TIP3   OH235253   3.038   2.049  12.774 -0.3366 -0.5967  0.5730
 4613TIP3    H135254   3.129   2.075  12.766 -1.4444  3.4441 -2.1291
 4613TIP3    H235255   3.021   1.996  12.696 -0.7126  0.4357 -0.0678
 4614TIP3   OH235256   6.759   4.949  15.867  0.5571  0.4470  0.3518
 4614TIP3    H135257   6.811   4.932  15.946  1.2579  0.4975 -0.0885
 4614TIP3    H235258   6.682   4.996  15.898  0.9267  0.6461  0.9800
 4615TIP3   OH235259   1.103   4.098   0.150 -0.2416  0.3481 -0.2316
 4615TIP3    H135260   1.081   4.110   0.242 -0.4530  0.5745 -0.3105
 4615TIP3    H235261   1.165   4.168   0.130 -0.6887  0.6905 -0.4269
 4616TIP3   OH235262   0.560   2.531  15.364  0.5142 -0.0707 -0.7645
 4616TIP3    H135263   0.647   2.491  15.363  0.3252 -0.4945 -1.1091
 4616TIP3    H235264   0.514   2.488  15.292 -0.8768 -1.8976  1.0993
 4617TIP3   OH235265   6.031   2.045  13.064  0.3062 -0.3757 -0.3931
 4617TIP3    H135266   6.014   1.999  13.147  0.1184  0.7712  0.2286
 4617TIP3    H235267   5.945   2.071  13.033  0.1151 -2.9661 -2.2940
 4618TIP3   OH235268   1.704   2.194   0.052  0.0765 -0.1399 -0.5901
 4618TIP3    H135269   1.614   2.227   0.058 -0.1689 -0.9317  0.2776
 4618TIP3    H235270   1.758   2.273   0.053 -0.5891  0.3285 -0.7757
 4619TIP3   OH235271   1.042   1.084  12.007  0.0938 -0.5596  0.4310
 4619TIP3    H135272   0.967   1.040  11.967 -0.0348 -0.0640  0.1260
 4619TIP3    H235273   1.088   1.014  12.053 -1.0004 -0.7249  1.3104
 4620TIP3   OH235274   1.893   0.100  16.184 -0.4622  0.2668  0.4209
 4620TIP3    H135275   1.834   0.026  16.170  0.6559 -0.9636  1.8015
 4620TIP3    H235276   1.946   0.074  16.259 -0.5579  2.8415  1.4810
 4621TIP3   OH235277   3.515   1.300  13.871  0.3892  0.4891 -0.1765
 4621TIP3    H135278   3.602   1.329  13.899  0.1562  1.6105 -0.5697
 4621TIP3    H235279   3.526   1.278  13.779 -0.1773  2.7147 -0.8430
 4622TIP3   OH235280   0.064   5.015  12.271  0.4393  0.3158  0.0276
 4622TIP3    H135281   0.079   4.960  12.348  1.9947 -0.3667 -0.7250
 4622TIP3    H235282   0.038   5.100  12.308 -1.0357 -0.6187  1.2218
 4623TIP3   OH235283   4.441   1.016  14.981  0.3280  0.1155  0.2731
 4623TIP3    H135284   4.499   0.988  14.910 -1.1196 -2.2130 -0.1312
 4623TIP3    H235285   4.461   1.108  14.994  2.3766  0.0004 -1.4697
 4624TIP3   OH235286   5.726   2.934  14.659  0.0610 -0.0643 -0.2801
 4624TIP3    H135287   5.681   2.869  14.714  1.1995  0.7043  1.6824
 4624TIP3    H235288   5.655   2.987  14.622 -0.8096  1.7438  3.4903
 4625TIP3   OH235289   4.669   2.240   2.804  0.2319  0.8731  0.5209
 4625TIP3    H135290   4.646   2.333   2.805 -1.8571  0.4213 -0.5567
 4625TIP3    H235291   4.636   2.208   2.720 -1.4287 -1.3501  1.9146
 4626TIP3   OH235292   3.866   5.241   1.681 -0.3077  0.0358  0.2208
 4626TIP3    H135293   3.954   5.277   1.690  1.2308 -3.3773  0.1004
 4626TIP3    H235294   3.842   5.213   1.769 -0.6267 -0.3852  0.0025
 4627TIP3   OH235295   6.345   4.541  15.223 -0.1949  0.4544 -0.5791
 4627TIP3    H135296   6.411   4.488  15.267 -1.5885 -0.1784  0.8013
 4627TIP3    H235297   6.290   4.479  15.176 -0.4063  0.8998 -0.9409
 4628TIP3   OH235298   3.137   4.167   2.781  0.2887  0.0745  0.3520
 4628TIP3    H135299   3.198   4.141   2.712 -1.7074 -1.6624 -0.8941
 4628TIP3    H235300   3.094   4.245   2.745 -0.1100 -0.3010 -0.0077
 4629TIP3   OH235301   3.806   5.751   2.625  0.2041 -0.7725  0.2824
 4629TIP3    H135302   3.810   5.744   2.529 -0.0399  0.4042  0.1699
 4629TIP3    H235303   3.724   5.797   2.642  0.2191 -1.0214  1.0763
 4630TIP3   OH235304   3.226   5.783   2.318 -0.0813  0.2782 -0.3391
 4630TIP3    H135305   3.224   5.835   2.398  0.8746  0.4425 -0.4065
 4630TIP3    H235306   3.194   5.697   2.344  0.7800  0.1535  0.3765
 4631TIP3   OH235307   5.710   1.451  17.159  0.4937  0.4137  0.7194
 4631TIP3    H135308   5.720   1.507  17.235  1.6555  2.3814 -0.7893
 4631TIP3    H235309   5.793   1.460  17.111  0.2231 -1.6140 -0.2626
 4632TIP3   OH235310   5.615   3.807  16.899 -0.2648  0.1209  0.3886
 4632TIP3    H135311   5.675   3.797  16.826  0.2716  0.4357  0.7766
 4632TIP3    H235312   5.669   3.842  16.970 -0.8195  0.0238  0.8692
 4633TIP3   OH235313   3.435   3.416  13.678 -0.6146  0.6264  0.1791
 4633TIP3    H135314   3.404   3.326  13.692  0.3804 -0.1491 -2.0444
 4633TIP3    H235315   3.503   3.429  13.745  0.7451 -1.1307 -0.7620
 4634TIP3   OH235316   3.122   1.402  12.022 -0.1997 -0.1742  0.1014
 4634TIP3    H135317   3.085   1.364  11.943 -0.1266 -0.5031  0.2260
 4634TIP3    H235318   3.068   1.480  12.038  1.0295  1.0493 -1.3939
 4635TIP3   OH235319   5.388   0.557  10.889 -0.0734 -0.4776 -0.1993
 4635TIP3    H135320   5.423   0.541  10.976 -0.3788  1.6214  0.3758
 4635TIP3    H235321   5.361   0.471  10.857  1.6809 -1.5373  1.0348
 4636TIP3   OH235322   4.480   1.489  17.007  0.6537  0.2780 -0.3127
 4636TIP3    H135323   4.533   1.410  17.016 -2.4448 -1.8083  2.0033
 4636TIP3    H235324   4.444   1.484  16.919  0.6156 -0.8702 -0.2467
 4637TIP3   OH235325   3.788   1.988   4.882  0.2936 -0.1817  0.7056
 4637TIP3    H135326   3.781   1.988   4.787 -0.4264 -1.4832  0.7346
 4637TIP3    H235327   3.772   2.079   4.908 -1.5708 -0.1932 -0.2961
 4638TIP3   OH235328   0.698   3.871  12.892  0.3803  0.2702 -0.4984
 4638TIP3    H135329   0.640   3.796  12.904 -0.1603  0.2675 -2.6750
 4638TIP3    H235330   0.676   3.930  12.963 -1.3833 -0.3049 -0.5143
 4639TIP3   OH235331   0.957   1.567  13.284 -0.8090  0.5039 -0.1295
 4639TIP3    H135332   1.032   1.577  13.224 -1.2706  2.0794 -0.4871
 4639TIP3    H235333   0.961   1.644  13.340 -0.6256 -0.7383  1.6541
 4640TIP3   OH235334   0.923   0.821  14.562  0.2142  0.1808 -0.1902
 4640TIP3    H135335   0.896   0.758  14.630  1.1136  1.7622  1.7249
 4640TIP3    H235336   0.858   0.810  14.493 -1.7910 -0.3079  1.6613
 4641TIP3   OH235337   6.112   5.274   1.426  0.3313  0.1266 -0.0065
 4641TIP3    H135338   6.206   5.275   1.443  0.3733  0.3422 -0.2534
 4641TIP3    H235339   6.083   5.187   1.454  0.6232  0.0188 -0.0422
 4642TIP3   OH235340   5.007   3.586  16.671 -0.2399  0.8047 -0.4601
 4642TIP3    H135341   4.927   3.631  16.698 -2.3773 -1.2823 -2.7687
 4642TIP3    H235342   5.027   3.623  16.585  1.0877  1.0401 -0.0581
 4643TIP3   OH235343   4.688   1.784  15.238  0.5319 -0.0556 -0.0416
 4643TIP3    H135344   4.757   1.725  15.210  0.0957 -2.0368  2.6307
 4643TIP3    H235345   4.713   1.809  15.327 -1.2498  0.6510  0.3000
 4644TIP3   OH235346   1.113   5.368   3.275  0.1488  0.5683  0.3476
 4644TIP3    H135347   1.179   5.427   3.312  0.0543  0.7639  0.2068
 4644TIP3    H235348   1.039   5.372   3.336  0.3922  0.0910  0.6842
 4645TIP3   OH235349   3.059   5.688   2.095 -0.1455  1.0361 -0.2200
 4645TIP3    H135350   3.074   5.747   2.169  1.4371 -0.8942  1.1008
 4645TIP3    H235351   3.145   5.650   2.077 -1.5394 -3.9938  1.8662
 4646TIP3   OH235352   5.417   6.639   1.538  0.3759 -0.4592  0.1059
 4646TIP3    H135353   5.339   6.591   1.509  0.4140 -0.3343 -0.2085
 4646TIP3    H235354   5.486   6.573   1.540  1.0025 -0.0271 -2.5963
 4647TIP3   OH235355   1.200   2.219   1.402  0.6602  0.2161  0.3461
 4647TIP3    H135356   1.250   2.237   1.322 -0.4652  0.6986 -0.2753
 4647TIP3    H235357   1.127   2.282   1.399 -0.6333 -1.2182  0.6410
 4648TIP3   OH235358   6.556   2.118  16.236 -0.2524 -0.1129  0.1605
 4648TIP3    H135359   6.636   2.169  16.224  0.1262 -0.8784 -0.7025
 4648TIP3    H235360   6.512   2.160  16.310 -0.3833  1.9875 -1.0191
 4649TIP3   OH235361   5.194   3.118  15.861 -0.1770  0.3949  0.0741
 4649TIP3    H135362   5.260   3.187  15.866 -1.2163  1.4793 -0.5710
 4649TIP3    H235363   5.218   3.069  15.782  0.7789 -0.2566  0.7343
 4650TIP3   OH235364   6.014   4.829  12.222 -0.5200 -0.1283  0.1059
 4650TIP3    H135365   6.064   4.807  12.300 -0.1787 -0.0838 -0.0951
 4650TIP3    H235366   5.923   4.833  12.251 -0.3257  0.5839  0.6527
 4651TIP3   OH235367   2.283   4.157  11.742 -0.0907 -0.2883 -0.5432
 4651TIP3    H135368   2.302   4.065  11.723 -0.1950 -0.3128 -0.5318
 4651TIP3    H235369   2.267   4.196  11.657 -0.4618 -0.3753 -0.5161
 4652TIP3   OH235370   6.027   5.033  12.742 -0.3309  0.1186 -0.1640
 4652TIP3    H135371   5.956   5.096  12.728  0.2804  1.0547  0.7423
 4652TIP3    H235372   6.044   5.037  12.836  1.4830  0.5784 -0.4598
 4653TIP3   OH235373   1.489   1.891   2.043 -0.2760 -0.1340 -0.1862
 4653TIP3    H135374   1.487   1.933   2.129  3.7027  1.6757 -0.7498
 4653TIP3    H235375   1.435   1.947   1.987 -1.7385 -0.5445  0.7462
 4654TIP3   OH235376   2.977   0.113   5.893  0.4165  0.4114  0.4071
 4654TIP3    H135377   3.025   0.194   5.879  0.3676  0.2511 -0.7699
 4654TIP3    H235378   3.043   0.050   5.919  0.4452  0.8328  1.4087
 4655TIP3   OH235379   2.592   5.623   1.070  0.2361  0.6777 -0.1937
 4655TIP3    H135380   2.611   5.712   1.099 -2.5206  1.9977 -2.0116
 4655TIP3    H235381   2.592   5.629   0.975 -1.6929 -0.8392 -0.3377
 4656TIP3   OH235382   5.817   2.123  14.858 -0.0705 -0.1944 -0.2469
 4656TIP3    H135383   5.774   2.111  14.943  2.9363 -1.2055  1.2730
 4656TIP3    H235384   5.801   2.215  14.836 -0.6915  0.1797  1.5775
 4657TIP3   OH235385   4.757   2.569  15.768 -0.6690 -0.6244  0.0291
 4657TIP3    H135386   4.706   2.551  15.847 -1.4777  0.3634 -0.2464
 4657TIP3    H235387   4.780   2.482  15.734  1.5491 -1.1214  2.4671
 4658TIP3   OH235388   4.883   5.211  11.130  0.0050  0.4292  0.0632
 4658TIP3    H135389   4.806   5.218  11.075  0.0511  1.8796  0.1269
 4658TIP3    H235390   4.910   5.120  11.124 -0.0042  0.5227 -2.2763
 4659TIP3   OH235391   5.235   2.035  15.806 -0.3473  1.2156  0.3146
 4659TIP3    H135392   5.305   1.974  15.786  0.0691  2.0416 -0.8542
 4659TIP3    H235393   5.208   2.070  15.721 -1.3916  1.7596  0.8472
 4660TIP3   OH235394   4.804   3.564  17.002  0.0483  0.6579 -0.2615
 4660TIP3    H135395   4.839   3.651  16.985  1.6495  0.1754  0.3900
 4660TIP3    H235396   4.767   3.570  17.091 -1.8027  1.2182 -1.0175
 4661TIP3   OH235397   1.706   5.943   4.183 -0.5846 -0.1988 -0.1558
 4661TIP3    H135398   1.712   5.958   4.089  1.6289  0.4982  0.0466
 4661TIP3    H235399   1.772   5.876   4.201  0.2725  0.9380  1.1162
 4662TIP3   OH235400   0.037   3.252   5.695 -0.2083  0.3614 -0.1953
 4662TIP3    H135401   0.100   3.212   5.754 -1.0277  1.3150  1.3972
 4662TIP3    H235402  -0.009   3.316   5.749 -2.5195 -0.2719 -1.2794
 4663TIP3   OH235403   2.164   2.715   4.799 -0.1363 -0.0636  0.4884
 4663TIP3    H135404   2.123   2.695   4.883 -0.2173 -1.2574  0.1718
 4663TIP3    H235405   2.235   2.651   4.790 -0.7168 -0.5687 -0.7679
 4664TIP3   OH235406   0.391   4.732   1.055 -0.2238 -0.2802  0.8706
 4664TIP3    H135407   0.356   4.799   0.997  0.4910 -0.2452  0.4701
 4664TIP3    H235408   0.480   4.761   1.074 -0.5619 -0.1029  2.2892
 4665TIP3   OH235409   1.455   3.287  13.964 -0.6211  0.2638 -0.1195
 4665TIP3    H135410   1.452   3.259  13.873 -1.5768 -0.2585  0.0544
 4665TIP3    H235411   1.371   3.330  13.979  0.5784  2.8277 -0.2185
 4666TIP3   OH235412   1.833   3.110  12.355 -0.4543 -0.8425 -0.0738
 4666TIP3    H135413   1.908   3.156  12.317 -0.5017 -0.5878  0.1426
 4666TIP3    H235414   1.858   3.017  12.350 -0.2630 -0.7826 -0.2991
 4667TIP3   OH235415   1.875   5.152   1.630  0.0493  0.6480  0.5899
 4667TIP3    H135416   1.847   5.083   1.691  0.1430 -0.0658 -0.1481
 4667TIP3    H235417   1.966   5.130   1.610  0.1211  1.0731  0.4573
 4668TIP3   OH235418   1.971   1.558   3.588  0.0522 -0.1389  0.1897
 4668TIP3    H135419   1.902   1.499   3.559  0.6548 -0.8578  0.2042
 4668TIP3    H235420   2.004   1.518   3.668  1.6104 -0.7022 -0.7033
 4669TIP3   OH235421   5.203   0.961   0.983 -0.4203 -0.1183  0.2006
 4669TIP3    H135422   5.249   1.000   0.909 -0.3167 -0.7904 -0.0948
 4669TIP3    H235423   5.172   0.876   0.951 -0.6548 -0.2763  0.8237
 4670TIP3   OH235424   1.200   0.237  14.241  0.6840 -0.4019  0.1128
 4670TIP3    H135425   1.281   0.268  14.203  0.3336  0.9221  0.3920
 4670TIP3    H235426   1.143   0.217  14.166  1.8141 -3.0650 -0.1484
 4671TIP3   OH235427   2.459   2.054   5.774  0.1193  0.3936  0.3751
 4671TIP3    H135428   2.551   2.052   5.749  0.0791 -0.3100  0.2800
 4671TIP3    H235429   2.442   2.146   5.794  0.7635  0.5752  0.1060
 4672TIP3   OH235430   5.737   0.956  15.943  0.3956 -0.3439 -0.0349
 4672TIP3    H135431   5.691   0.902  16.007 -0.6441  1.3657  0.7367
 4672TIP3    H235432   5.670   0.984  15.881  0.6904  0.7947  0.1254
 4673TIP3   OH235433   2.449   2.459   3.806 -0.0860 -0.0574  0.0882
 4673TIP3    H135434   2.380   2.464   3.872 -0.1760 -1.6152  0.1446
 4673TIP3    H235435   2.477   2.550   3.794 -2.3929  0.6658 -0.2069
 4674TIP3   OH235436   6.019   6.548   0.219 -0.1482 -0.2475 -0.4448
 4674TIP3    H135437   6.059   6.472   0.175 -0.7297 -1.1605  0.5496
 4674TIP3    H235438   6.009   6.520   0.310 -0.1464  1.1350 -0.0066
 4675TIP3   OH235439   0.738   0.391  16.817  0.2518 -0.0584 -0.1674
 4675TIP3    H135440   0.705   0.396  16.907 -1.9760 -2.2840 -0.7729
 4675TIP3    H235441   0.822   0.347  16.825  0.2130  0.0257  0.8463
 4676TIP3   OH235442   6.386   3.086  15.572  0.3250  0.0553  0.0395
 4676TIP3    H135443   6.386   3.046  15.485  0.4480 -0.5280  0.3009
 4676TIP3    H235444   6.351   3.174  15.558  2.6122  0.8836 -1.0253
 4677TIP3   OH235445   5.589   1.422   3.817  0.3124 -0.2353 -0.2047
 4677TIP3    H135446   5.684   1.429   3.809  0.1574  0.4616 -1.7278
 4677TIP3    H235447   5.561   1.512   3.838 -0.0661 -0.2996 -0.4371
 4678TIP3   OH235448   1.544   2.342  14.769 -0.2764 -0.1567  0.0222
 4678TIP3    H135449   1.487   2.387  14.831 -0.9161 -2.0554  0.8881
 4678TIP3    H235450   1.524   2.249  14.781 -0.6867 -0.5990 -3.2981
 4679TIP3   OH235451   2.720   1.474  14.456 -0.2197  0.2174 -0.0132
 4679TIP3    H135452   2.656   1.485  14.526  0.0993  2.3703  0.0172
 4679TIP3    H235453   2.710   1.552  14.402  2.0074  0.3838 -0.3019
 4680TIP3   OH235454   6.099   3.439   1.947  0.2057 -0.1580  0.1835
 4680TIP3    H135455   6.119   3.462   1.856 -1.6412 -0.6490 -0.3920
 4680TIP3    H235456   6.085   3.524   1.991  1.0858  0.0788  0.0384
 4681TIP3   OH235457   0.215   2.986   2.201  0.3458  0.0067 -0.1112
 4681TIP3    H135458   0.215   2.954   2.292 -1.8504 -0.8228 -0.3337
 4681TIP3    H235459   0.160   2.923   2.154 -0.2449  1.5641 -1.5919
 4682TIP3   OH235460   1.963   2.135   5.281  0.2746  0.0981  0.2413
 4682TIP3    H135461   1.929   2.223   5.267 -0.4801 -0.2090  0.0833
 4682TIP3    H235462   2.042   2.148   5.332  0.2193  0.8744  0.1460
 4683TIP3   OH235463   5.593   1.679  12.725  0.2825  0.3665  0.2934
 4683TIP3    H135464   5.568   1.676  12.632 -1.2194  0.2464  0.6796
 4683TIP3    H235465   5.553   1.600  12.763  1.2807  0.1656  0.9639
 4684TIP3   OH235466   6.196   1.649   1.161  0.7560  0.2634 -0.3720
 4684TIP3    H135467   6.245   1.682   1.236  0.9333 -2.3597  0.7527
 4684TIP3    H235468   6.106   1.675   1.177  0.9048  0.3009  0.4252
 4685TIP3   OH235469   5.222   5.290  14.821 -0.2373  0.3283  0.0622
 4685TIP3    H135470   5.278   5.280  14.744  0.5148 -0.0494  0.6466
 4685TIP3    H235471   5.224   5.384  14.840 -0.8625  0.5078 -0.6814
 4686TIP3   OH235472   4.932   0.952   4.792 -0.7864 -0.0373  0.5352
 4686TIP3    H135473   4.952   0.864   4.762 -0.5280  0.6152 -1.3737
 4686TIP3    H235474   4.890   0.994   4.716 -0.3310  1.6536  1.1668
 4687TIP3   OH235475   5.569   2.064   3.487  0.1968  0.1686 -0.1512
 4687TIP3    H135476   5.611   2.135   3.535  0.7782 -0.1251 -0.2147
 4687TIP3    H235477   5.521   2.107   3.416  0.2709  0.5197  0.0153
 4688TIP3   OH235478   5.818   5.255   1.776  0.1244  0.7536 -0.7676
 4688TIP3    H135479   5.773   5.173   1.755 -0.8627  0.8455  0.8024
 4688TIP3    H235480   5.757   5.301   1.833  1.6195  1.5615  0.2307
 4689TIP3   OH235481   3.818   2.073  15.825 -0.2156 -0.3809 -0.2906
 4689TIP3    H135482   3.902   2.028  15.833  0.3622  0.4879 -1.1839
 4689TIP3    H235483   3.830   2.133  15.751 -1.7341 -0.4723 -0.6401
 4690TIP3   OH235484   5.482   6.373   5.853  0.1362 -0.0086 -0.0965
 4690TIP3    H135485   5.502   6.454   5.900  0.8394  0.4892 -1.2080
 4690TIP3    H235486   5.423   6.325   5.911  0.9222  0.6033  1.2448
 4691TIP3   OH235487   3.829   2.743   5.357 -0.0029  0.3066  0.1163
 4691TIP3    H135488   3.815   2.812   5.292  0.2069 -0.1703 -0.4519
 4691TIP3    H235489   3.827   2.662   5.306  0.1212 -0.0833  0.7178
 4692TIP3   OH235490   3.587   5.325  13.683  0.1818  0.2116 -0.5483
 4692TIP3    H135491   3.568   5.417  13.668  0.2842  0.2629 -0.3683
 4692TIP3    H235492   3.541   5.279  13.613 -0.2035  0.3680 -0.4012
 4693TIP3   OH235493   2.003   5.673   5.959 -0.6549  0.0829  0.5389
 4693TIP3    H135494   2.024   5.584   5.985 -0.0185  0.6554  2.1485
 4693TIP3    H235495   2.082   5.723   5.981 -0.7347  0.9472 -0.9675
 4694TIP3   OH235496   2.333   5.951   3.590 -0.0169  0.0312 -0.1279
 4694TIP3    H135497   2.337   5.902   3.508  0.9778 -0.7132  0.3479
 4694TIP3    H235498   2.335   6.043   3.562  1.4496 -0.2068 -0.9103
 4695TIP3   OH235499   2.780   5.750   2.793 -0.0546 -0.5146 -0.6668
 4695TIP3    H135500   2.731   5.752   2.711 -1.9613 -0.0748  0.4175
 4695TIP3    H235501   2.712   5.751   2.861  1.4687 -0.8984  0.9107
 4696TIP3   OH235502   1.183   5.316  14.612 -0.0134  0.8059  0.6393
 4696TIP3    H135503   1.277   5.319  14.591 -0.0665 -2.2175 -0.4965
 4696TIP3    H235504   1.160   5.223  14.607 -3.3364  1.5395 -0.2801
 4697TIP3   OH235505   2.585   1.337  14.246  0.1782  0.2653 -0.1618
 4697TIP3    H135506   2.615   1.381  14.326 -0.9383  0.3606  0.2350
 4697TIP3    H235507   2.589   1.244  14.267 -0.9692  0.3118  0.3633
 4698TIP3   OH235508   3.293   0.094  12.821 -0.5354  0.1847  0.1846
 4698TIP3    H135509   3.210   0.100  12.868 -0.5486  1.6009  0.0272
 4698TIP3    H235510   3.314   0.185  12.798 -1.4561 -0.4981 -4.1874
 4699TIP3   OH235511   1.454   1.701   2.957 -0.0285 -0.1806 -0.2582
 4699TIP3    H135512   1.428   1.609   2.959 -0.0827 -0.2415 -2.1575
 4699TIP3    H235513   1.546   1.700   2.932  0.1326  0.2785  0.2881
 4700TIP3   OH235514   5.213   0.606   1.848 -0.4506  0.7372  0.1862
 4700TIP3    H135515   5.176   0.679   1.800 -0.6259  0.6433  0.1781
 4700TIP3    H235516   5.290   0.642   1.892 -0.0589  0.7331 -0.4802
 4701TIP3   OH235517   5.474   5.823  14.331 -0.0944  0.3904  0.1493
 4701TIP3    H135518   5.390   5.863  14.306 -0.6422 -0.6455  0.2862
 4701TIP3    H235519   5.450   5.743  14.378  0.9703  0.5814  1.0559
 4702TIP3   OH235520   4.702   2.217  10.478  0.0625  0.4183  0.0898
 4702TIP3    H135521   4.678   2.126  10.497  0.2309  0.3102 -0.2095
 4702TIP3    H235522   4.621   2.267  10.492 -0.7004 -0.0932 -2.0594
 4703TIP3   OH235523   5.709   2.646  14.991  0.7227  0.1764  0.1440
 4703TIP3    H135524   5.799   2.648  15.023  0.5771 -2.8925  1.0930
 4703TIP3    H235525   5.657   2.615  15.066 -0.3098 -2.8494 -1.6133
 4704TIP3   OH235526   6.548   2.133   0.953 -0.1140  0.0625  0.4540
 4704TIP3    H135527   6.489   2.080   0.900 -0.1596 -0.1348  0.7011
 4704TIP3    H235528   6.532   2.223   0.923 -2.5481  0.3753  2.3412
 4705TIP3   OH235529   4.697   4.373   5.704  0.3959  0.0576 -0.4888
 4705TIP3    H135530   4.791   4.366   5.690  0.0587 -0.5928 -2.8012
 4705TIP3    H235531   4.676   4.301   5.763  1.1763 -0.5423 -0.9318
 4706TIP3   OH235532   4.621   3.324   5.203 -0.1210  0.0949  0.1309
 4706TIP3    H135533   4.568   3.358   5.130 -0.4505  0.2116  0.4229
 4706TIP3    H235534   4.556   3.294   5.267  0.1685  0.1049  0.4261
 4707TIP3   OH235535   1.879   0.339   3.178  0.1132  0.1163 -0.3075
 4707TIP3    H135536   1.960   0.289   3.176  0.4432  0.6673 -1.1428
 4707TIP3    H235537   1.825   0.295   3.244  1.0893 -0.2460  0.2636
 4708TIP3   OH235538   0.544   6.253  15.071  0.5305 -0.4531 -0.0065
 4708TIP3    H135539   0.488   6.284  15.000  1.7835  0.1440 -0.7757
 4708TIP3    H235540   0.487   6.250  15.147 -0.0377  2.3836 -0.2246
 4709TIP3   OH235541   3.650   3.079  15.550 -0.0712 -0.4506  0.3723
 4709TIP3    H135542   3.624   2.998  15.507  0.3426 -0.3914  0.0100
 4709TIP3    H235543   3.742   3.066  15.572 -0.0698 -0.1743  0.5352
 4710TIP3   OH235544   5.137   0.438  14.983 -0.1155  0.2484 -0.3836
 4710TIP3    H135545   5.070   0.371  14.965 -1.0696  0.8959  0.6069
 4710TIP3    H235546   5.105   0.515  14.936  0.8461  0.0963 -1.3096
 4711TIP3   OH235547   6.497   2.563   5.678  0.1696  0.0059  0.1422
 4711TIP3    H135548   6.496   2.487   5.737 -0.3932 -0.4418 -0.4347
 4711TIP3    H235549   6.435   2.624   5.717  0.2139 -0.0565  0.3132
 4712TIP3   OH235550   6.282   2.737  15.021  0.6299 -0.2623  0.2145
 4712TIP3    H135551   6.333   2.761  15.099  0.8673  0.9760 -0.3079
 4712TIP3    H235552   6.286   2.814  14.965  1.6168 -1.5908 -1.6556
 4713TIP3   OH235553   3.088   2.988  14.427 -0.1950  0.1862  0.0347
 4713TIP3    H135554   3.093   2.894  14.410  0.5477 -0.2768  2.4930
 4713TIP3    H235555   2.994   3.007  14.433 -0.3414 -0.3979 -0.3512
 4714TIP3   OH235556   2.005   6.528   2.153 -0.0104 -0.7995 -0.0216
 4714TIP3    H135557   1.913   6.517   2.180 -0.3151  0.2194 -0.6000
 4714TIP3    H235558   2.055   6.498   2.228 -0.8227 -0.8448  0.5222
 4715TIP3   OH235559   3.188   3.580   2.695 -0.1010 -0.0775 -0.5195
 4715TIP3    H135560   3.204   3.496   2.653 -2.0296 -1.4022  1.1791
 4715TIP3    H235561   3.159   3.557   2.783 -2.1295  2.3034 -0.4704
 4716TIP3   OH235562   2.816   6.772  16.359 -0.8189  0.2112  1.0226
 4716TIP3    H135563   2.863   6.742  16.281  1.0974 -1.0789  2.5565
 4716TIP3    H235564   2.732   6.804  16.326 -0.9753 -2.2415 -1.3796
 4717TIP3   OH235565   3.817   6.189  11.011  0.0393 -0.2374  0.1841
 4717TIP3    H135566   3.862   6.213  11.092 -0.1735  1.5987 -0.1900
 4717TIP3    H235567   3.725   6.180  11.036  0.0097  0.1030  0.2107
 4718TIP3   OH235568   0.077   6.085  14.091  0.3225  0.0056 -0.4662
 4718TIP3    H135569   0.074   5.996  14.057  2.0815  0.2221 -1.3256
 4718TIP3    H235570   0.027   6.137  14.028 -0.3190 -0.2925 -0.2094
 4719TIP3   OH235571   4.680   6.120  14.181  0.2067  0.4434  0.7398
 4719TIP3    H135572   4.735   6.141  14.257 -0.3173 -2.4317  2.0563
 4719TIP3    H235573   4.640   6.036  14.203 -0.5747 -0.1533 -2.4520
 4720TIP3   OH235574   3.647   6.199   3.429  0.4971  0.4852 -0.4205
 4720TIP3    H135575   3.581   6.201   3.359  0.7899 -0.1628 -0.7201
 4720TIP3    H235576   3.597   6.180   3.508  0.4231 -0.8649 -0.7747
 4721TIP3   OH235577   0.689   5.722  12.901 -0.0186 -0.0587  0.0952
 4721TIP3    H135578   0.631   5.686  12.969  0.1597 -1.3257 -0.4160
 4721TIP3    H235579   0.630   5.772  12.844 -0.3233  0.1745  0.6056
 4722TIP3   OH235580   3.054   0.697  10.805  0.1094 -0.1154 -0.1443
 4722TIP3    H135581   3.048   0.602  10.804 -1.8158 -0.0342 -0.4526
 4722TIP3    H235582   3.018   0.725  10.721 -0.0794  0.9035  0.2544
 4723TIP3   OH235583   2.725   3.285   2.706  0.6028  0.9166  0.4779
 4723TIP3    H135584   2.779   3.356   2.671 -0.7221  3.7462  3.6880
 4723TIP3    H235585   2.760   3.268   2.793  1.2283 -2.9991 -0.3060
 4724TIP3   OH235586   4.987   5.604   2.555  0.2137 -0.0256 -0.2608
 4724TIP3    H135587   4.957   5.691   2.531  0.0790  0.0901  0.3107
 4724TIP3    H235588   5.051   5.581   2.487 -0.4705  0.1084 -0.9618
 4725TIP3   OH235589   4.911   4.086  16.739  0.1655  0.7096 -0.0657
 4725TIP3    H135590   4.839   4.133  16.780 -0.2031 -0.0149  0.1437
 4725TIP3    H235591   4.950   4.035  16.811 -0.5579 -0.6612 -0.5898
 4726TIP3   OH235592   6.743   1.879   0.356 -0.3962  0.2729  0.2174
 4726TIP3    H135593   6.838   1.889   0.360 -0.3597 -0.2769  0.9200
 4726TIP3    H235594   6.710   1.966   0.333  0.2554  0.5547  0.3352
 4727TIP3   OH235595   2.934   3.336   3.527 -0.5372  0.2210  0.4204
 4727TIP3    H135596   2.921   3.315   3.619 -0.6256  0.6207  0.4988
 4727TIP3    H235597   3.028   3.350   3.518 -0.4814 -0.1603  0.3750
 4728TIP3   OH235598   0.846   4.399   1.142 -0.2090 -0.3026 -0.4830
 4728TIP3    H135599   0.877   4.476   1.095 -1.1853  0.5992  0.3035
 4728TIP3    H235600   0.911   4.385   1.211  0.2885 -0.5744 -0.9909
 4729TIP3   OH235601   1.046   1.907  12.561 -0.3063 -0.3383  0.6342
 4729TIP3    H135602   1.014   1.996  12.546 -0.1701 -0.0250  2.0692
 4729TIP3    H235603   0.983   1.851  12.516 -0.1495  0.4802 -0.6800
 4730TIP3   OH235604   0.678   0.476  14.635  0.4001  0.0040  0.2008
 4730TIP3    H135605   0.688   0.388  14.598 -1.2731 -1.2259  2.4594
 4730TIP3    H235606   0.736   0.478  14.710 -3.0178 -1.1165  3.1596
 4731TIP3   OH235607   0.616   4.544   1.271 -0.0101 -0.9188 -0.8671
 4731TIP3    H135608   0.593   4.637   1.269 -1.8922 -1.1145  2.7186
 4731TIP3    H235609   0.618   4.517   1.179 -2.1472  2.0308 -1.9377
 4732TIP3   OH235610   5.902   1.639  15.415 -0.5012  0.0826 -0.0090
 4732TIP3    H135611   5.979   1.669  15.464 -0.8781 -0.6349  1.0652
 4732TIP3    H235612   5.828   1.664  15.470 -0.8996 -1.4356  0.1952
 4733TIP3   OH235613   5.219   5.603  12.568 -0.1490  0.3109 -0.0704
 4733TIP3    H135614   5.264   5.527  12.531 -1.3398  0.8754 -2.8616
 4733TIP3    H235615   5.287   5.669  12.579  0.4838 -0.3745  0.1682
 4734TIP3   OH235616   3.157   2.286   1.362  0.3128 -0.0398  0.3755
 4734TIP3    H135617   3.067   2.307   1.338 -0.0419 -1.8356 -0.0083
 4734TIP3    H235618   3.191   2.235   1.288  1.6273  0.5003  0.5645
 4735TIP3   OH235619   3.617   0.289  12.187 -0.3239 -0.2355  0.0800
 4735TIP3    H135620   3.616   0.382  12.163 -1.7276  0.1371  1.3645
 4735TIP3    H235621   3.675   0.285  12.263 -0.4670 -0.3653  0.1823
 4736TIP3   OH235622   4.274   5.935  17.167 -0.1459  0.3648  1.0388
 4736TIP3    H135623   4.181   5.960  17.161 -0.6540 -1.6854 -1.3479
 4736TIP3    H235624   4.321   6.013  17.137 -1.4614 -0.1543 -2.8844
 4737TIP3   OH235625   1.097   2.315   4.482 -0.5463  0.1889  0.1242
 4737TIP3    H135626   1.111   2.317   4.387 -3.1535  1.0031 -0.3078
 4737TIP3    H235627   1.115   2.225   4.507  2.0434  0.3740 -0.7674
 4738TIP3   OH235628   4.974   4.777   2.190 -0.2803 -0.2179 -0.4959
 4738TIP3    H135629   4.954   4.754   2.281 -0.9664  0.6192 -0.4275
 4738TIP3    H235630   5.068   4.759   2.182  0.0184  0.6458  0.6848
 4739TIP3   OH235631   2.024   4.518  13.597  0.3134  0.0521 -0.3377
 4739TIP3    H135632   2.040   4.609  13.623  0.1799 -0.0093 -0.0359
 4739TIP3    H235633   2.031   4.468  13.678 -1.4545  0.0252 -0.1606
 4740TIP3   OH235634   3.910   3.470  13.346  0.0513 -0.3648 -0.2568
 4740TIP3    H135635   3.912   3.379  13.314  0.5628 -0.9085  1.2235
 4740TIP3    H235636   3.999   3.502  13.333 -0.2342  0.0822 -1.1661
 4741TIP3   OH235637   4.211   0.579   0.764  0.5126  0.2775 -0.0441
 4741TIP3    H135638   4.269   0.646   0.729  0.9837  0.8363  1.7033
 4741TIP3    H235639   4.128   0.624   0.779  0.4652  0.1639  0.0383
 4742TIP3   OH235640   2.543   3.528  13.210  0.3061 -0.1484 -0.1004
 4742TIP3    H135641   2.600   3.466  13.255 -1.6141 -2.4757 -0.7095
 4742TIP3    H235642   2.495   3.476  13.146 -2.7647  1.5738  0.5624
 4743TIP3   OH235643   5.777   1.799  11.613  0.4626  0.1352  0.1443
 4743TIP3    H135644   5.773   1.892  11.635  1.3892  0.2234  0.0117
 4743TIP3    H235645   5.830   1.761  11.683  0.2179 -0.2675  0.1134
 4744TIP3   OH235646   5.051   1.321   3.398 -0.2824 -0.1427 -0.2017
 4744TIP3    H135647   5.020   1.403   3.438  2.1892  1.0353 -0.5317
 4744TIP3    H235648   5.101   1.278   3.467 -0.1209 -0.5356 -0.5580
 4745TIP3   OH235649   0.240   2.243   0.296  0.4026  0.0764  0.2293
 4745TIP3    H135650   0.217   2.215   0.385  0.0654  1.0942  0.4722
 4745TIP3    H235651   0.222   2.337   0.295 -0.9662 -0.1540 -1.3323
 4746TIP3   OH235652   6.112   0.539  12.650 -0.1332 -0.4447  0.0293
 4746TIP3    H135653   6.135   0.502  12.565  0.4457 -1.0764  0.4509
 4746TIP3    H235654   6.049   0.608  12.630 -1.6256 -1.9725 -0.7489
 4747TIP3   OH235655   1.823   5.279  15.758 -0.0514  0.4013 -0.2039
 4747TIP3    H135656   1.803   5.316  15.672  0.5279 -0.8877 -0.9199
 4747TIP3    H235657   1.897   5.331  15.790 -0.3848  1.0017 -0.3967
 4748TIP3   OH235658   3.646   3.351  16.070 -0.4190 -0.0255  0.3835
 4748TIP3    H135659   3.583   3.357  16.142  0.9567  1.8216  1.5189
 4748TIP3    H235660   3.598   3.384  15.994 -1.0792  0.5838  1.0447
 4749TIP3   OH235661   6.500   3.858  11.650 -0.3534  0.3506  0.0172
 4749TIP3    H135662   6.423   3.914  11.640  0.1070  0.8044 -1.2366
 4749TIP3    H235663   6.499   3.802  11.572 -0.3108 -0.8034  0.8103
 4750TIP3   OH235664   2.931   4.541   1.526  0.3528  0.0214 -0.6085
 4750TIP3    H135665   2.847   4.587   1.538  1.0998  1.2603  0.1862
 4750TIP3    H235666   2.934   4.519   1.433 -0.4493  0.8001 -0.8315
 4751TIP3   OH235667   0.720   1.441  13.169  0.4903 -0.5576 -0.0188
 4751TIP3    H135668   0.722   1.436  13.073 -0.7257  1.2135 -0.1674
 4751TIP3    H235669   0.781   1.511  13.191 -1.2802  0.9609  0.2774
 4752TIP3   OH235670   0.771   6.589   5.805 -0.0157  0.9550  0.3720
 4752TIP3    H135671   0.796   6.500   5.777 -0.4779  1.2409 -1.0120
 4752TIP3    H235672   0.826   6.606   5.881  0.0181 -0.5565  0.7187
 4753TIP3   OH235673   2.761   5.129   1.689 -0.2391  0.1812  0.2826
 4753TIP3    H135674   2.810   5.090   1.760 -1.7060 -2.2356  0.0812
 4753TIP3    H235675   2.671   5.099   1.703 -0.9422  1.3111 -1.4597
 4754TIP3   OH235676   3.775   2.450   1.067  0.4204  0.1078 -0.1636
 4754TIP3    H135677   3.840   2.478   1.003  0.3927  0.4649 -0.0439
 4754TIP3    H235678   3.727   2.531   1.089 -0.5031 -0.2692 -0.7432
 4755TIP3   OH235679   1.879   1.266  11.930 -0.3669  0.7365 -0.1799
 4755TIP3    H135680   1.820   1.248  12.003 -0.4262 -2.1503 -0.8489
 4755TIP3    H235681   1.848   1.350  11.896 -3.3371 -0.0604  0.2614
 4756TIP3   OH235682   4.192   3.960  13.832 -0.8415 -0.2007  0.2737
 4756TIP3    H135683   4.219   3.978  13.742 -0.7566 -0.5361  0.2301
 4756TIP3    H235684   4.108   3.916  13.823  0.5663 -3.1010  0.1759
 4757TIP3   OH235685   5.604   4.532  15.646  0.5882 -0.1623 -0.0200
 4757TIP3    H135686   5.572   4.586  15.719  0.7278  0.6118 -0.5176
 4757TIP3    H235687   5.562   4.569  15.569  0.5946 -0.8545 -0.3606
 4758TIP3   OH235688   6.732   0.576  11.884  0.2325  0.1896  0.2659
 4758TIP3    H135689   6.760   0.588  11.975 -0.6844  1.1865  0.4358
 4758TIP3    H235690   6.652   0.525  11.890  0.6955 -0.5922 -0.0633
 4759TIP3   OH235691   6.331   1.977   2.230 -0.0805 -0.1973 -0.0682
 4759TIP3    H135692   6.411   1.941   2.190  0.8365  1.5643  0.0903
 4759TIP3    H235693   6.288   1.901   2.269  1.5224 -1.2030 -0.1483
 4760TIP3   OH235694   3.379   4.165   5.235  0.0706  0.4921  0.1278
 4760TIP3    H135695   3.389   4.117   5.318 -0.5668  2.1613  1.2117
 4760TIP3    H235696   3.298   4.131   5.197  2.3728 -3.3756 -2.0613
 4761TIP3   OH235697   1.804   0.650   5.682  0.3625  0.6385  0.3226
 4761TIP3    H135698   1.848   0.573   5.645  0.4022  1.0935 -0.5808
 4761TIP3    H235699   1.742   0.613   5.745 -1.9266 -0.4026 -2.3258
 4762TIP3   OH235700   2.336   3.615  11.429  0.5772  0.4974  0.4235
 4762TIP3    H135701   2.332   3.686  11.364  0.5240 -0.6071 -0.8348
 4762TIP3    H235702   2.395   3.648  11.497  0.6729  1.6865 -0.2050
 4763TIP3   OH235703   4.474   0.223  15.911 -0.1467  0.6492  0.2653
 4763TIP3    H135704   4.446   0.259  15.827  0.7555  1.0858  0.1445
 4763TIP3    H235705   4.396   0.228  15.966 -1.4834 -1.7451 -1.1717
 4764TIP3   OH235706   4.494   3.206   1.617  0.0455 -0.1136  0.5196
 4764TIP3    H135707   4.454   3.291   1.599  0.2539  0.0098  0.6376
 4764TIP3    H235708   4.420   3.146   1.627 -0.2497  0.5825  3.2989
 4765TIP3   OH235709   6.678   0.529   5.236 -0.0939  0.6730  0.1104
 4765TIP3    H135710   6.755   0.578   5.265  1.0729 -0.0489 -1.6167
 4765TIP3    H235711   6.605   0.592   5.243  1.0007  2.0098 -0.1605
 4766TIP3   OH235712   1.636   3.385  12.354 -0.2129 -0.1129 -0.0483
 4766TIP3    H135713   1.696   3.362  12.426  1.3767 -0.5700 -1.4634
 4766TIP3    H235714   1.688   3.373  12.275 -2.3418 -0.9367 -1.3902
 4767TIP3   OH235715   3.446   3.085  12.349 -0.2296 -0.5086  0.0056
 4767TIP3    H135716   3.359   3.105  12.313  0.7375 -0.2535 -2.3654
 4767TIP3    H235717   3.487   3.028  12.283  0.7451 -2.2439  1.9742
 4768TIP3   OH235718   6.370   2.502  13.386  0.4167 -0.4924 -0.0017
 4768TIP3    H135719   6.433   2.567  13.419  0.7872 -1.5418  1.4484
 4768TIP3    H235720   6.424   2.429  13.357 -0.0975 -1.6057  1.7006
 4769TIP3   OH235721   2.946   0.954   2.491 -0.2857 -0.6777  0.3011
 4769TIP3    H135722   2.895   0.923   2.566 -0.1460  1.1484  1.2115
 4769TIP3    H235723   3.005   1.020   2.528  0.4306 -0.3915 -1.2780
 4770TIP3   OH235724   2.444   1.793   1.496  0.0176 -0.3494 -0.5433
 4770TIP3    H135725   2.527   1.760   1.528  0.5935 -0.0682 -1.6884
 4770TIP3    H235726   2.455   1.888   1.495 -0.7979 -0.2315  0.5499
 4771TIP3   OH235727   2.113   4.641  14.895 -0.5327  0.0430 -0.3200
 4771TIP3    H135728   2.061   4.670  14.969 -0.3043 -0.0195 -0.1336
 4771TIP3    H235729   2.074   4.684  14.819 -0.8030  0.0587 -0.1699
 4772TIP3   OH235730   6.347   1.901  16.144 -0.2114 -0.2859 -0.1156
 4772TIP3    H135731   6.426   1.940  16.181  0.9988 -1.2841 -1.5071
 4772TIP3    H235732   6.321   1.834  16.207 -1.3359  1.5401  1.4655
 4773TIP3   OH235733   3.231   3.320   5.861  0.7779  0.2863  0.8412
 4773TIP3    H135734   3.236   3.288   5.951  1.6527  0.2185  0.7817
 4773TIP3    H235735   3.268   3.249   5.808  0.6941  0.5077  0.4819
 4774TIP3   OH235736   4.667   0.821   1.671 -0.4085  0.4276 -0.1395
 4774TIP3    H135737   4.737   0.885   1.684 -1.6240  1.9805 -0.8300
 4774TIP3    H235738   4.700   0.740   1.709  1.1726  1.4800  0.8157
 4775TIP3   OH235739   6.031   1.487  16.916  0.1559  0.1914  0.0684
 4775TIP3    H135740   6.104   1.439  16.876 -0.6548  0.4417 -1.8342
 4775TIP3    H235741   6.071   1.565  16.953  0.9656 -0.0912 -0.1839
 4776TIP3   OH235742   3.791   4.840  13.682 -0.3320  0.0762  0.0022
 4776TIP3    H135743   3.885   4.831  13.701 -0.3542  0.4171  0.2917
 4776TIP3    H235744   3.756   4.886  13.759 -0.7684 -0.2127 -0.0260
 4777TIP3   OH235745   2.052   3.777   0.985 -0.4134 -0.3215 -0.2963
 4777TIP3    H135746   2.126   3.837   0.993 -1.4714  1.0534 -0.4670
 4777TIP3    H235747   2.092   3.690   0.982  1.1542  0.3498  0.1290
 4778TIP3   OH235748   4.289   1.632   4.650 -0.2541  0.0939 -0.3302
 4778TIP3    H135749   4.210   1.677   4.620 -0.7606 -0.8630 -0.4590
 4778TIP3    H235750   4.295   1.554   4.594  0.7566  0.1228 -0.2879
 4779TIP3   OH235751   5.029   4.057   4.694  0.4486  0.2327  0.4264
 4779TIP3    H135752   5.058   4.142   4.659 -1.6833 -0.0285 -2.3288
 4779TIP3    H235753   5.053   3.994   4.627 -2.5798 -0.5207 -0.1272
 4780TIP3   OH235754   3.087   2.201   5.167 -0.0248 -0.5962  0.5136
 4780TIP3    H135755   3.062   2.167   5.081  0.1887 -0.6888  0.4864
 4780TIP3    H235756   3.164   2.256   5.149 -1.7453  1.8983  0.1825
 4781TIP3   OH235757   1.268   6.354  16.851  0.2963  0.1806 -0.2172
 4781TIP3    H135758   1.292   6.285  16.912  0.5509  0.2569 -0.2304
 4781TIP3    H235759   1.352   6.390  16.822  0.1632  2.1939  1.6867
 4782TIP3   OH235760   5.535   0.054  12.083  0.3682  0.3617  0.1909
 4782TIP3    H135761   5.599   0.105  12.132 -0.3727 -0.5764  2.2213
 4782TIP3    H235762   5.583  -0.021  12.050  0.2209 -0.7692  2.3956
 4783TIP3   OH235763   3.984   6.767  11.480 -0.1004  0.5211 -0.3284
 4783TIP3    H135764   3.957   6.698  11.419 -0.1650  0.0784  0.1894
 4783TIP3    H235765   3.927   6.756  11.556  2.0821 -1.0755  1.2227
 4784TIP3   OH235766   1.124   2.577  14.089  0.1566  0.0521  0.3393
 4784TIP3    H135767   1.169   2.496  14.067  2.8477  0.9442  2.0626
 4784TIP3    H235768   1.115   2.623  14.006  1.5244 -0.6379 -0.2110
 4785TIP3   OH235769   4.636   1.077  11.903  0.6167 -0.3910 -0.1941
 4785TIP3    H135770   4.634   1.071  11.998 -0.1077  0.8139 -0.1232
 4785TIP3    H235771   4.728   1.096  11.882  1.0798 -2.0493  0.1348
 4786TIP3   OH235772   0.977   0.804   3.118 -0.2887  0.2110 -0.2263
 4786TIP3    H135773   0.902   0.806   3.058  0.0235  1.1484 -0.5990
 4786TIP3    H235774   0.980   0.892   3.156  0.2259 -0.0242  0.2857
 4787TIP3   OH235775   2.266   5.511   4.116  0.0186 -0.8595 -0.0629
 4787TIP3    H135776   2.231   5.549   4.035 -0.0945  0.3842  0.5514
 4787TIP3    H235777   2.188   5.496   4.170  0.1382 -1.2630  0.0016
 4788TIP3   OH235778   0.084   5.693   4.296  0.1130 -0.4366  0.0761
 4788TIP3    H135779   0.039   5.616   4.329 -1.9880  1.2906  1.5425
 4788TIP3    H235780   0.078   5.687   4.200 -2.2093 -0.8955  0.2149
 4789TIP3   OH235781   4.491   6.305  10.622  0.5097  0.1083  0.2163
 4789TIP3    H135782   4.503   6.391  10.582  1.3916  0.6973  1.6794
 4789TIP3    H235783   4.398   6.302  10.642  0.3335  0.4120 -0.5018
 4790TIP3   OH235784   0.104   6.166  12.986 -0.0781  0.0954  0.0100
 4790TIP3    H135785   0.139   6.229  12.923 -0.9971  0.4466 -0.1756
 4790TIP3    H235786   0.177   6.106  13.005  1.6980  2.7290  2.2532
 4791TIP3   OH235787   5.303   5.522  15.204  0.7740  0.1964  0.1529
 4791TIP3    H135788   5.329   5.450  15.261  1.3624  0.9346  0.8497
 4791TIP3    H235789   5.276   5.592  15.263 -2.2254 -0.2617 -0.5300
 4792TIP3   OH235790   6.040   1.389  11.708  0.8024 -0.1084 -0.3381
 4792TIP3    H135791   6.053   1.379  11.614 -0.0989  2.2615 -0.7713
 4792TIP3    H235792   6.089   1.468  11.731 -1.1125  0.8597  0.6425
 4793TIP3   OH235793   1.268   1.874   2.504  0.0773 -0.1192  0.2386
 4793TIP3    H135794   1.185   1.921   2.497  0.5445  0.5258 -1.4301
 4793TIP3    H235795   1.292   1.883   2.596 -1.5264 -0.0322  0.6890
 4794TIP3   OH235796   6.613   2.625   1.522 -0.0919  0.3623  1.0813
 4794TIP3    H135797   6.704   2.598   1.515 -0.2941 -0.5001  1.6503
 4794TIP3    H235798   6.581   2.626   1.432  0.4837  0.7240  0.8743
 4795TIP3   OH235799   4.665   2.258  15.530 -0.0460  0.4980 -0.0969
 4795TIP3    H135800   4.745   2.289  15.571 -0.0844 -0.8462  1.0760
 4795TIP3    H235801   4.595   2.308  15.571  0.0107 -0.0634  0.7124
 4796TIP3   OH235802   3.491   2.467  12.947  0.0701 -0.4898 -0.2618
 4796TIP3    H135803   3.496   2.426  13.034 -1.1267 -1.7108 -0.7465
 4796TIP3    H235804   3.514   2.397  12.886  1.6188  0.5321 -0.9465
 4797TIP3   OH235805   3.499   5.174  11.480 -0.2759 -0.6699  0.3236
 4797TIP3    H135806   3.556   5.197  11.407 -1.0178 -0.9651 -0.3651
 4797TIP3    H235807   3.412   5.202  11.451 -0.8549 -2.3200  0.3752
 4798TIP3   OH235808   2.200   5.931  16.471 -0.0982 -0.0434 -0.0582
 4798TIP3    H135809   2.239   5.912  16.386 -1.3592 -2.3252 -0.1920
 4798TIP3    H235810   2.106   5.925  16.457 -0.4429  1.7083  1.0693
 4799TIP3   OH235811   1.557   2.071   4.111 -0.4923  0.2714 -0.1857
 4799TIP3    H135812   1.611   2.045   4.036 -0.0220 -0.9861  0.5596
 4799TIP3    H235813   1.535   2.162   4.094 -0.7096 -0.0738 -2.0475
 4800TIP3   OH235814   6.615   5.847  12.506 -0.0334  0.0796 -0.4384
 4800TIP3    H135815   6.614   5.828  12.412  0.5854 -1.9647 -0.0651
 4800TIP3    H235816   6.655   5.934  12.512 -3.1918  1.8640 -2.2560
 4801TIP3   OH235817   4.258   0.570  12.789 -0.9028  0.3445 -0.4586
 4801TIP3    H135818   4.189   0.560  12.855 -1.7723  0.1956 -1.3724
 4801TIP3    H235819   4.253   0.491  12.737  0.2517  0.1456 -0.2909
 4802TIP3   OH235820   0.271   3.733   0.528  0.1026  0.3559  0.9469
 4802TIP3    H135821   0.298   3.824   0.541  0.8607  0.2333  0.3279
 4802TIP3    H235822   0.353   3.684   0.527 -0.2838 -0.3010  1.0230
 4803TIP3   OH235823   0.726   6.103   5.313 -0.0143  0.0704  0.7383
 4803TIP3    H135824   0.728   6.175   5.376  0.1641  0.7903 -0.0857
 4803TIP3    H235825   0.636   6.102   5.281 -0.3562 -0.8936  1.6663
 4804TIP3   OH235826   3.132   4.584   2.495 -0.2214  0.0398 -0.2061
 4804TIP3    H135827   3.149   4.595   2.401  2.2540 -1.2044  0.0241
 4804TIP3    H235828   3.217   4.563   2.533 -1.7035 -3.1157  1.7838
 4805TIP3   OH235829   6.440   5.693  15.707  0.2644 -0.4997  0.0688
 4805TIP3    H135830   6.362   5.668  15.757 -0.8649 -0.0526 -1.3928
 4805TIP3    H235831   6.427   5.786  15.687  1.8137 -0.0707  0.8687
 4806TIP3   OH235832   4.870   0.994   4.423  0.0024 -0.3821 -0.4258
 4806TIP3    H135833   4.891   0.966   4.333 -1.9087 -0.2972 -0.9350
 4806TIP3    H235834   4.861   0.913   4.472 -0.4865 -0.4946 -0.6938
 4807TIP3   OH235835   0.563   5.598  15.892  0.0004  0.0527  0.0922
 4807TIP3    H135836   0.482   5.549  15.884  1.0870 -2.2972  1.9763
 4807TIP3    H235837   0.621   5.561  15.825  0.1992  0.1345  0.2156
 4808TIP3   OH235838   0.106   5.276   1.492  0.1746  0.3927  0.7516
 4808TIP3    H135839   0.020   5.308   1.468 -0.4107 -0.4556  1.6352
 4808TIP3    H235840   0.116   5.194   1.443  0.7985  0.8622  0.0768
 4809TIP3   OH235841   6.004   4.651   6.437  0.1722 -0.1401 -0.5404
 4809TIP3    H135842   5.978   4.743   6.438  0.8780  0.1492  2.3845
 4809TIP3    H235843   5.922   4.603   6.420 -0.9721  0.9677  1.4423
 4810TIP3   OH235844   1.652   2.586   6.695 -0.2687  0.2181 -0.4138
 4810TIP3    H135845   1.739   2.594   6.736 -0.8752 -0.0894  0.9886
 4810TIP3    H235846   1.591   2.590   6.768 -1.3941 -0.6275 -1.2746
 4811TIP3   OH235847   4.906   0.360  13.814  0.1106  0.1981 -0.6745
 4811TIP3    H135848   4.892   0.275  13.855  2.1171 -0.9667 -2.2063
 4811TIP3    H235849   4.881   0.347  13.722  2.0364  0.7081 -1.3185
 4812TIP3   OH235850   5.729   2.784  12.072  0.1753 -0.2548  0.0118
 4812TIP3    H135851   5.683   2.725  12.132  1.9729 -0.7223  1.0176
 4812TIP3    H235852   5.704   2.872  12.101 -1.2502 -0.4754 -0.4630
 4813TIP3   OH235853   6.084   0.471   4.922  0.1999 -0.0416 -0.0344
 4813TIP3    H135854   6.160   0.412   4.925  0.1619 -0.0570  0.8691
 4813TIP3    H235855   6.038   0.446   4.842  1.5632  0.4980 -1.0332
 4814TIP3   OH235856   0.901   6.667   2.847  0.1054  0.2986  0.3227
 4814TIP3    H135857   0.989   6.646   2.815 -0.9433 -2.2606 -1.2405
 4814TIP3    H235858   0.897   6.627   2.934  0.3383 -0.0670  0.1684
 4815TIP3   OH235859   1.656   2.048   0.647 -0.1572 -0.3106  0.8753
 4815TIP3    H135860   1.584   2.069   0.587  0.8037 -0.6642 -0.4703
 4815TIP3    H235861   1.708   2.128   0.650  1.8879 -1.3345 -1.9121
 4816TIP3   OH235862   4.353   5.834  12.154  0.2591 -0.0706 -0.7131
 4816TIP3    H135863   4.390   5.877  12.077  0.1164  0.4264 -0.5124
 4816TIP3    H235864   4.403   5.754  12.164 -0.7603 -0.9442 -2.2635
 4817TIP3   OH235865   1.365   4.175  17.017  0.9859 -0.1683 -0.3635
 4817TIP3    H135866   1.341   4.267  17.011  1.8197  0.0960  0.1102
 4817TIP3    H235867   1.292   4.128  16.976 -0.3621  0.5578  1.1118
 4818TIP3   OH235868   4.162   1.869  12.744 -0.4611 -0.3171  0.1485
 4818TIP3    H135869   4.125   1.851  12.831  0.0599 -1.9522  0.0658
 4818TIP3    H235870   4.119   1.949  12.716  0.9651  1.5694  2.8750
 4819TIP3   OH235871   0.063   5.397   3.728  0.0814  0.0465  0.5512
 4819TIP3    H135872   0.151   5.362   3.740  0.0684 -0.5403 -0.9114
 4819TIP3    H235873   0.007   5.339   3.780  0.3483 -0.6932  0.0283
 4820TIP3   OH235874   0.375   4.812  15.697 -0.0920  0.0110 -0.3824
 4820TIP3    H135875   0.424   4.804  15.615 -0.0176 -2.8130 -0.1751
 4820TIP3    H235876   0.425   4.759  15.759  0.4796  2.9791  1.9056
 4821TIP3   OH235877   2.507   0.068   0.070  0.5482 -0.3132 -0.0818
 4821TIP3    H135878   2.419   0.030   0.064  0.3793  0.1691 -0.7156
 4821TIP3    H235879   2.559   0.020   0.006  0.5688 -0.1184 -0.2127
 4822TIP3   OH235880   5.926   5.940   2.048 -0.2500  0.1087  0.3756
 4822TIP3    H135881   5.842   5.980   2.073 -1.0919 -1.3776  0.0479
 4822TIP3    H235882   5.983   5.953   2.123 -1.0153  0.5034  0.8933
 4823TIP3   OH235883   6.136   4.899   0.626 -0.5563  0.6109  0.7326
 4823TIP3    H135884   6.085   4.963   0.576 -0.8571  2.4876  3.2803
 4823TIP3    H235885   6.222   4.901   0.585 -0.6778  2.3683  0.4816
 4824TIP3   OH235886   0.746   0.238   1.426  0.6614  0.4107  0.1235
 4824TIP3    H135887   0.703   0.213   1.344  0.0717 -0.8780  0.7937
 4824TIP3    H235888   0.792   0.159   1.454 -0.9657  0.1000  2.1471
 4825TIP3   OH235889   4.164   4.009   3.069 -0.1655 -0.0377  0.6906
 4825TIP3    H135890   4.194   4.100   3.068  0.2034 -0.1142  2.1507
 4825TIP3    H235891   4.244   3.958   3.079 -0.3164 -0.5804 -0.6557
 4826TIP3   OH235892   1.184   5.033   1.682  0.6588  0.9248  0.1787
 4826TIP3    H135893   1.093   5.014   1.703  1.1569  0.6418  2.2362
 4826TIP3    H235894   1.196   4.995   1.595 -1.2453  1.2459 -0.2786
 4827TIP3   OH235895   3.915   5.438  14.395  0.0977  0.3644 -0.0699
 4827TIP3    H135896   3.853   5.464  14.328  0.0792  2.6925  0.7685
 4827TIP3    H235897   3.966   5.517  14.413  0.1466 -0.1772  2.5824
 4828TIP3   OH235898   5.563   4.233   1.711  0.2347 -0.0768  1.4991
 4828TIP3    H135899   5.508   4.198   1.641  1.2043 -0.8800  1.1065
 4828TIP3    H235900   5.646   4.255   1.668  0.8463 -0.5817  2.3800
 4829TIP3   OH235901   4.640   3.730   3.977  0.3315  0.2090 -0.0887
 4829TIP3    H135902   4.712   3.722   3.914 -0.5083 -0.0999 -1.0262
 4829TIP3    H235903   4.681   3.770   4.054  1.3848  0.5715 -0.8072
 4830TIP3   OH235904   2.803   1.741  16.494 -0.2002 -0.6302 -0.3985
 4830TIP3    H135905   2.843   1.825  16.519 -0.0193 -0.4302 -1.3192
 4830TIP3    H235906   2.819   1.734  16.400 -0.6221 -1.4850 -0.4171
 4831TIP3   OH235907   0.528   3.838  13.431  0.6631 -0.2309  0.0895
 4831TIP3    H135908   0.619   3.861  13.414  1.4184 -1.2747  2.3140
 4831TIP3    H235909   0.487   3.921  13.457  1.0169  0.2039 -0.7123
 4832TIP3   OH235910   6.589   1.761   5.799 -0.0679  0.4037 -0.4944
 4832TIP3    H135911   6.541   1.827   5.749 -0.6863  1.6683  1.6598
 4832TIP3    H235912   6.636   1.710   5.732 -0.5321  2.2373 -2.3113
 4833TIP3   OH235913   1.453   5.700   6.600  0.6675 -0.0176  0.2465
 4833TIP3    H135914   1.458   5.764   6.671 -4.5137 -0.0854  1.0777
 4833TIP3    H235915   1.419   5.749   6.526  0.5311 -1.0513 -0.3940
 4834TIP3   OH235916   1.309   4.880   4.575 -0.2394 -0.1210  0.1975
 4834TIP3    H135917   1.276   4.896   4.664 -0.5606  0.2119  0.0173
 4834TIP3    H235918   1.255   4.808   4.542  1.0732 -1.5202  0.9324
 4835TIP3   OH235919   5.516   0.829   0.039  0.1307  0.4898 -0.1274
 4835TIP3    H135920   5.599   0.837  -0.009  1.3154 -2.2464  1.2743
 4835TIP3    H235921   5.479   0.746   0.008 -1.4729  1.0579  0.2162
 4836TIP3   OH235922   1.283   1.236  13.763 -0.2095 -0.1671 -0.0798
 4836TIP3    H135923   1.236   1.226  13.680  0.3420 -0.4489 -0.3578
 4836TIP3    H235924   1.330   1.154  13.774  2.2229  1.0045 -1.0660
 4837TIP3   OH235925   4.078   5.047   5.303 -0.0830 -0.5481  0.5136
 4837TIP3    H135926   4.099   5.042   5.210  2.3862 -0.3133  0.9849
 4837TIP3    H235927   4.056   5.139   5.318 -0.9429 -0.6747  0.1166
 4838TIP3   OH235928   6.744   1.438   0.245 -0.0683 -0.1669 -0.1452
 4838TIP3    H135929   6.705   1.503   0.305 -0.2346  0.6449 -1.1108
 4838TIP3    H235930   6.788   1.491   0.178  1.0316 -1.0688 -0.1651
 4839TIP3   OH235931   6.379   5.611  11.394  0.5556  0.9079  0.2277
 4839TIP3    H135932   6.455   5.611  11.335  0.5627  1.5760  0.2314
 4839TIP3    H235933   6.317   5.672  11.354 -0.3457 -0.2465 -0.2186
 4840TIP3   OH235934   6.638   0.588  11.620  0.2162  0.2105  0.4238
 4840TIP3    H135935   6.679   0.588  11.706 -0.2661  1.0647  0.6588
 4840TIP3    H235936   6.663   0.503  11.582  0.9291  0.0804  1.1542
 4841TIP3   OH235937   4.439   0.496   2.339 -0.7507  0.0213  0.3640
 4841TIP3    H135938   4.501   0.544   2.285 -1.1010 -0.1282 -0.1839
 4841TIP3    H235939   4.353   0.529   2.313 -0.8843  0.7841  1.6570
 4842TIP3   OH235940   4.516   6.667   2.256 -0.0120  0.2741 -0.1714
 4842TIP3    H135941   4.473   6.702   2.334 -0.1610 -1.0310  0.3519
 4842TIP3    H235942   4.567   6.741   2.222 -1.1638  1.3165  0.2636
 4843TIP3   OH235943   6.186   2.888  16.775  0.4081 -0.4262  0.1488
 4843TIP3    H135944   6.100   2.927  16.790 -0.0663 -1.2907 -0.2481
 4843TIP3    H235945   6.205   2.906  16.683 -0.2211 -1.8551 -0.2936
 4844TIP3   OH235946   0.472   5.211  14.113  0.2381 -0.0885  0.3696
 4844TIP3    H135947   0.504   5.292  14.154 -2.0081  1.6189 -1.0067
 4844TIP3    H235948   0.419   5.170  14.181  2.2303 -1.0473  1.4345
 4845TIP3   OH235949   2.290   4.726   0.830 -0.2780  0.6824  0.0620
 4845TIP3    H135950   2.246   4.713   0.746 -0.7926 -2.9614  0.7061
 4845TIP3    H235951   2.238   4.793   0.874 -1.6163  0.7403 -1.5054
 4846TIP3   OH235952   6.743   6.347  15.309  0.0691  0.0598  0.6973
 4846TIP3    H135953   6.681   6.408  15.269 -0.9208 -0.9620  0.6550
 4846TIP3    H235954   6.826   6.395  15.309 -0.4124  0.9400 -0.4803
 4847TIP3   OH235955   6.268   0.356   0.792  0.1107  0.1250 -0.8132
 4847TIP3    H135956   6.185   0.363   0.745 -0.2328  2.2227 -0.0439
 4847TIP3    H235957   6.253   0.287   0.857 -0.5353 -0.4752 -1.5754
 4848TIP3   OH235958   1.932   0.699   1.984 -0.2506  0.0841  0.1881
 4848TIP3    H135959   1.893   0.621   2.023  1.0404  0.3572  2.1432
 4848TIP3    H235960   1.864   0.766   1.990 -1.3485 -0.8040 -1.4637
 4849TIP3   OH235961   2.971   2.917   0.839 -0.3417  0.1478 -0.4622
 4849TIP3    H135962   2.883   2.917   0.800 -0.1251 -3.3804 -1.3480
 4849TIP3    H235963   2.957   2.886   0.928 -0.0779  0.3196 -0.3609
 4850TIP3   OH235964   6.028   4.247  16.251  0.0319 -0.1226 -0.7941
 4850TIP3    H135965   5.972   4.213  16.320 -0.6718  1.1041 -0.7339
 4850TIP3    H235966   6.116   4.249  16.291 -0.0148 -1.2039 -0.5944
 4851TIP3   OH235967   4.423   4.269   4.356  0.6980 -0.6010 -0.2185
 4851TIP3    H135968   4.448   4.178   4.370  2.4951 -0.2130 -0.6896
 4851TIP3    H235969   4.410   4.305   4.444 -0.5922 -1.4331 -0.0474
 4852TIP3   OH235970   3.248   3.335   2.872 -1.0400  0.8477 -0.3144
 4852TIP3    H135971   3.202   3.401   2.923 -0.0321 -1.2915  3.8704
 4852TIP3    H235972   3.340   3.361   2.878 -0.7465 -0.2678  0.5039
 4853TIP3   OH235973   5.962   2.465  14.944 -0.0093 -0.1924  0.2989
 4853TIP3    H135974   6.009   2.487  15.025 -0.0533 -1.0736  0.5785
 4853TIP3    H235975   6.017   2.502  14.874  0.2304  0.2383  0.7072
 4854TIP3   OH235976   6.433   1.023  12.500 -0.4422  0.0970  0.0831
 4854TIP3    H135977   6.385   1.035  12.418 -1.1609 -0.3285  0.4363
 4854TIP3    H235978   6.493   1.098  12.503  2.3008 -1.7174 -2.6522
 4855TIP3   OH235979   3.814   1.871  14.478  0.3067 -0.0477  0.1216
 4855TIP3    H135980   3.738   1.865  14.420  0.9075  1.0489 -0.8239
 4855TIP3    H235981   3.804   1.798  14.538  0.0161 -1.6941 -1.7994
 4856TIP3   OH235982   1.552   4.676  15.425 -0.0085  0.3044 -0.0488
 4856TIP3    H135983   1.560   4.683  15.520 -2.3365 -1.1017  0.3590
 4856TIP3    H235984   1.568   4.583  15.407 -0.8525  0.2957 -0.8285
 4857TIP3   OH235985   0.843   0.977  17.050  0.5316  0.1264  0.4470
 4857TIP3    H135986   0.883   0.999  16.966  0.4483 -0.8297  0.1412
 4857TIP3    H235987   0.751   1.004  17.041 -0.7547 -4.0476 -1.5691
 4858TIP3   OH235988   1.617   1.982  12.222 -0.1291  0.1241  0.6625
 4858TIP3    H135989   1.527   2.011  12.237 -0.4335  0.7217 -1.8633
 4858TIP3    H235990   1.657   2.051  12.169  1.1002 -1.1649 -0.1972
 4859TIP3   OH235991   1.990   5.830  15.741 -0.3384  0.5931  0.4066
 4859TIP3    H135992   2.045   5.832  15.663  0.7860  1.2392  1.1701
 4859TIP3    H235993   1.912   5.783  15.715  0.6935 -0.5925 -0.6662
 4860TIP3   OH235994   4.133   0.124  12.440 -0.4764 -0.2216  0.1084
 4860TIP3    H135995   4.204   0.085  12.490  0.1936 -0.3887 -0.9332
 4860TIP3    H235996   4.176   0.191  12.386 -1.2979  0.5259  0.3451
 4861TIP3   OH235997   1.397   6.590   0.264 -0.7746 -0.2353  0.2274
 4861TIP3    H135998   1.330   6.564   0.328 -0.0342  0.9271  1.5479
 4861TIP3    H235999   1.349   6.634   0.195 -1.6455 -1.8807 -0.2674
 4862TIP3   OH236000   4.680   5.690  13.735  0.3355  0.0264  0.1526
 4862TIP3    H136001   4.729   5.660  13.811  1.8956  1.9605  0.0110
 4862TIP3    H236002   4.623   5.760  13.769  0.6323  0.5203 -0.3420
 4863TIP3   OH236003   5.048   4.034  11.280 -0.5376 -0.3534  0.8875
 4863TIP3    H136004   5.003   3.962  11.236 -0.2963  0.2845 -0.4336
 4863TIP3    H236005   5.141   4.015  11.269 -0.4514  0.6106 -0.3019
 4864TIP3   OH236006   1.560   1.725  16.308  0.0842 -0.1309 -0.1481
 4864TIP3    H136007   1.640   1.673  16.319  0.9460  1.1838  0.0662
 4864TIP3    H236008   1.591   1.810  16.276 -1.2125  0.4949  0.1849
 4865TIP3   OH236009   3.937   3.515  16.696  0.7229  0.2874  0.1675
 4865TIP3    H136010   3.852   3.487  16.731  1.1902 -1.2303  0.1553
 4865TIP3    H236011   3.936   3.488  16.605  2.4396 -2.8275  0.9382
 4866TIP3   OH236012   5.773   6.728   0.933  0.5793 -0.2613 -0.2444
 4866TIP3    H136013   5.845   6.719   0.995  1.7718 -1.0492 -1.6904
 4866TIP3    H236014   5.810   6.775   0.858  0.0150 -1.8905 -1.6144
 4867TIP3   OH236015   2.391   0.827   5.121 -0.6682 -1.2292  0.5342
 4867TIP3    H136016   2.390   0.736   5.093 -1.2357 -1.8036  2.3053
 4867TIP3    H236017   2.416   0.824   5.214  0.9359  0.5568  0.2247
 4868TIP3   OH236018   5.629   5.000   3.086 -0.9006  0.2884 -0.6233
 4868TIP3    H136019   5.634   5.053   3.166 -0.3424  1.3216 -1.3267
 4868TIP3    H236020   5.710   4.950   3.085 -2.3128 -2.2796  1.1364
 4869TIP3   OH236021   3.564   0.466   3.253 -0.0561 -0.2837 -0.3331
 4869TIP3    H136022   3.634   0.532   3.257  0.9911 -1.3893  0.3219
 4869TIP3    H236023   3.486   0.516   3.230  0.6633  1.2238  0.3216
 4870TIP3   OH236024   0.940   6.681  14.176 -0.0337  0.4044  0.0494
 4870TIP3    H136025   0.873   6.628  14.132  0.6704 -0.8074  0.3928
 4870TIP3    H236026   0.898   6.766  14.189 -1.7145 -0.4839  0.7671
 4871TIP3   OH236027   1.938   1.891  12.607 -0.1737 -0.5602 -0.4956
 4871TIP3    H136028   1.873   1.912  12.540  0.9794  1.4911 -1.0726
 4871TIP3    H236029   1.937   1.967  12.665  2.5807  0.1892 -1.2870
 4872TIP3   OH236030   1.946   1.680  12.987  0.0473 -0.7022  0.0890
 4872TIP3    H136031   1.880   1.700  13.054  1.0401 -1.1322  1.2419
 4872TIP3    H236032   1.898   1.683  12.904 -1.2054 -0.0644  0.8041
 4873TIP3   OH236033   3.761   5.047  10.406 -0.0401 -0.3017 -0.6520
 4873TIP3    H136034   3.700   5.109  10.365  0.1650  0.9378  0.8083
 4873TIP3    H236035   3.774   5.082  10.494  1.6518 -1.3482 -0.4442
 4874TIP3   OH236036   2.662   0.392  16.531  0.2956 -0.0641  0.3828
 4874TIP3    H136037   2.744   0.437  16.553  0.3378 -1.1137  2.6449
 4874TIP3    H236038   2.686   0.300  16.525 -0.1400 -0.0787 -2.3936
 4875TIP3   OH236039   4.576   6.439  14.916  0.3493  0.3181  0.4315
 4875TIP3    H136040   4.561   6.512  14.976  0.9680  0.8716 -0.0609
 4875TIP3    H236041   4.656   6.464  14.869 -1.4470  1.1885 -2.4378
 4876TIP3   OH236042   3.366   4.229  11.366 -0.2643 -0.6195 -0.0381
 4876TIP3    H136043   3.349   4.153  11.421  1.5076 -0.0369  1.4096
 4876TIP3    H236044   3.344   4.304  11.421  1.3882 -0.0270 -0.1385
 4877TIP3   OH236045   6.374   1.875  12.979  0.3994  0.1120  0.2426
 4877TIP3    H136046   6.291   1.853  13.023  0.7657 -1.5016  0.1953
 4877TIP3    H236047   6.347   1.910  12.894 -0.2495  0.2003  0.4740
 4878TIP3   OH236048   3.918   2.724   2.820  0.2306  0.4122 -0.3294
 4878TIP3    H136049   3.923   2.804   2.767 -1.7953  1.2281  0.5676
 4878TIP3    H236050   3.948   2.751   2.907  0.9136 -0.1915 -0.3723
 4879TIP3   OH236051   1.102   5.517   3.627  0.5501  0.3194 -0.6096
 4879TIP3    H136052   1.158   5.528   3.550  0.8523  2.4611 -0.1461
 4879TIP3    H236053   1.153   5.555   3.699  0.0560 -1.1447  0.5703
 4880TIP3   OH236054   6.251   5.551   5.169  0.4388  0.0344  0.0994
 4880TIP3    H136055   6.326   5.537   5.228  0.9672  1.3193 -0.2285
 4880TIP3    H236056   6.258   5.480   5.105  0.7771 -0.4563  0.6653
 4881TIP3   OH236057   0.469   3.829   3.386 -0.3306 -0.2306 -0.1504
 4881TIP3    H136058   0.484   3.863   3.474 -1.9954  0.6039 -0.1278
 4881TIP3    H236059   0.481   3.735   3.393 -0.8682 -0.2223  1.0874
 4882TIP3   OH236060   3.805   3.719   4.667 -0.2881  0.1250  0.3835
 4882TIP3    H136061   3.751   3.643   4.645 -2.4553  1.5607  0.4561
 4882TIP3    H236062   3.889   3.701   4.624 -1.6552 -1.0066 -2.0623
 4883TIP3   OH236063   1.770   0.620  16.045 -0.5410  0.1578 -0.2397
 4883TIP3    H136064   1.811   0.541  16.080  0.4394 -0.0882 -1.8169
 4883TIP3    H236065   1.691   0.632  16.097 -0.5798 -1.7225  0.2006
 4884TIP3   OH236066   1.837   2.417  14.052  0.2980  1.1247 -0.1461
 4884TIP3    H136067   1.814   2.328  14.077 -0.1627  1.3484  0.2702
 4884TIP3    H236068   1.933   2.420  14.058  0.3030  0.7139  0.0280
 4885TIP3   OH236069   4.850   3.936   0.889 -0.2229  0.1102  0.1201
 4885TIP3    H136070   4.914   3.867   0.909 -0.2143  0.5193  1.5921
 4885TIP3    H236071   4.887   3.982   0.814  0.2397 -0.8890 -0.2757
 4886TIP3   OH236072   3.103   3.679   1.087 -0.1877 -0.4180  0.8117
 4886TIP3    H136073   3.096   3.739   1.012 -3.5074 -1.9958 -0.3658
 4886TIP3    H236074   3.185   3.632   1.072  0.8571  1.5443  0.0027
 4887TIP3   OH236075   4.437   0.830  12.590  0.0089 -0.2791  0.2314
 4887TIP3    H136076   4.494   0.802  12.518  0.4728  2.7442 -0.7360
 4887TIP3    H236077   4.465   0.778  12.665  0.3663 -2.6509 -1.4295
 4888TIP3   OH236078   3.284   6.681  13.133 -0.1647 -0.3164  0.4677
 4888TIP3    H136079   3.321   6.694  13.220 -0.2562  0.6858  0.3684
 4888TIP3    H236080   3.312   6.758  13.083 -0.4724 -0.6683 -0.2661
 4889TIP3   OH236081   0.828   0.269  13.141 -0.4272 -0.1110  0.4024
 4889TIP3    H136082   0.780   0.310  13.213  0.4565 -0.3710  1.1685
 4889TIP3    H236083   0.920   0.277  13.167  0.1296  1.8631 -1.7793
 4890TIP3   OH236084   6.261   4.671  12.845 -0.2001  0.0885  0.4320
 4890TIP3    H136085   6.328   4.603  12.859  0.4212  0.8314  1.1414
 4890TIP3    H236086   6.310   4.746  12.813 -0.2726  1.4311  3.1326
 4891TIP3   OH236087   2.150   3.570  15.899 -0.3437  0.2315 -0.4714
 4891TIP3    H136088   2.174   3.648  15.849 -2.0921 -0.2126 -2.1069
 4891TIP3    H236089   2.232   3.521  15.907  0.3092  1.1259 -1.4040
 4892TIP3   OH236090   1.759   0.900  10.754  0.0628  0.0973 -0.1744
 4892TIP3    H136091   1.714   0.977  10.720 -0.5923 -0.6359 -1.0316
 4892TIP3    H236092   1.704   0.827  10.727  0.0160 -0.6128  1.6693
 4893TIP3   OH236093   3.461   4.493   4.926 -0.1211  0.5845  0.3146
 4893TIP3    H136094   3.400   4.420   4.911  0.1190  0.1358  1.3908
 4893TIP3    H236095   3.543   4.450   4.951  0.0052  1.2233  1.0311
 4894TIP3   OH236096   1.637   4.496  14.645  0.6147 -0.0481 -0.1161
 4894TIP3    H136097   1.617   4.569  14.587  1.2993 -0.8098 -1.3395
 4894TIP3    H236098   1.727   4.472  14.624  0.9009 -0.3328  1.2914
 4895TIP3   OH236099   3.915   2.792  14.065  0.5217 -0.0507  0.6074
 4895TIP3    H136100   3.973   2.822  13.995 -0.7571 -0.2032 -0.5590
 4895TIP3    H236101   3.904   2.868  14.122  1.1358  0.2448  0.3386
 4896TIP3   OH236102   1.283   1.854  12.000  0.1694 -0.1583 -0.4148
 4896TIP3    H136103   1.324   1.939  11.982 -0.1025  0.2431  0.7590
 4896TIP3    H236104   1.201   1.857  11.951  0.5227 -0.0728 -1.0141
 4897TIP3   OH236105   2.278   5.421   1.826  0.1527  0.2195 -0.2151
 4897TIP3    H136106   2.298   5.425   1.732  1.2029 -0.8336 -0.0573
 4897TIP3    H236107   2.358   5.453   1.868  0.0753 -0.3118  0.3410
 4898TIP3   OH236108   0.377   2.531   3.688  0.1174  0.4839  0.6632
 4898TIP3    H136109   0.282   2.514   3.687 -0.2665  2.4344 -0.0572
 4898TIP3    H236110   0.391   2.579   3.770  0.4516  0.3699  0.6712
 4899TIP3   OH236111   5.166   5.024  13.240  0.1673  0.0579  0.3837
 4899TIP3    H136112   5.126   4.938  13.252 -0.0631  0.2035  0.6973
 4899TIP3    H236113   5.178   5.057  13.329 -1.4229  1.1145  0.2454
 4900TIP3   OH236114   2.157   0.089  13.050 -0.2262 -0.3031  0.0667
 4900TIP3    H136115   2.221   0.085  13.122  0.7713  0.1690 -0.7710
 4900TIP3    H236116   2.103   0.164  13.072  0.4372  0.1937  0.0455
 4901TIP3   OH236117   5.345   5.054  13.999  0.1359 -0.0930  0.5120
 4901TIP3    H136118   5.250   5.059  13.996  0.1810  0.3825 -0.5604
 4901TIP3    H236119   5.367   5.068  14.091 -0.8016  0.2553  0.6969
 4902TIP3   OH236120   4.080   0.484  12.982 -0.4572 -0.3531 -0.3048
 4902TIP3    H136121   4.009   0.428  12.949 -1.0140 -0.2404  0.6837
 4902TIP3    H236122   4.055   0.505  13.072  1.1928 -0.9106  0.3207
 4903TIP3   OH236123   2.033   2.864  13.552 -0.0431  0.6117 -0.1661
 4903TIP3    H136124   2.128   2.878  13.549 -0.0258  0.4685 -2.4176
 4903TIP3    H236125   2.017   2.796  13.487 -1.8904  2.2822 -1.6105
 4904TIP3   OH236126   1.272   3.519   1.815 -0.1733  0.0457  0.8832
 4904TIP3    H136127   1.352   3.477   1.783  1.8991  2.0924  2.9774
 4904TIP3    H236128   1.263   3.597   1.761  0.9905  1.3492  2.4923
 4905TIP3   OH236129   4.798   4.909   4.398  0.0156 -0.1542 -0.0432
 4905TIP3    H136130   4.753   4.853   4.462  1.1529 -1.3118 -0.2068
 4905TIP3    H236131   4.792   4.860   4.316  1.2257 -0.1599 -0.1386
 4906TIP3   OH236132   0.160   2.836  12.740  0.7487 -0.6372 -0.6048
 4906TIP3    H136133   0.209   2.864  12.817  1.3917  0.5550 -1.4167
 4906TIP3    H236134   0.118   2.754  12.766  0.4316  0.0657  1.2194
 4907TIP3   OH236135   0.528   1.429   2.036 -0.3216  0.1529  0.1461
 4907TIP3    H136136   0.547   1.466   1.950 -1.7197 -1.8200 -1.0770
 4907TIP3    H236137   0.505   1.505   2.089 -1.5226  1.2557 -1.8181
 4908TIP3   OH236138   5.868   4.786   3.682 -0.4501 -0.3437  0.0518
 4908TIP3    H136139   5.954   4.746   3.692 -1.0184 -1.7451 -0.4063
 4908TIP3    H236140   5.810   4.732   3.735 -0.8719  1.3621  1.4323
 4909TIP3   OH236141   0.628   4.988   1.516  0.9660  0.0319 -0.3384
 4909TIP3    H136142   0.597   5.070   1.554  3.0959 -0.3615  2.5879
 4909TIP3    H236143   0.586   4.920   1.568  1.8257 -0.6370 -0.4983
 4910TIP3   OH236144   0.663   1.537   1.252  0.2956 -0.0189  0.1140
 4910TIP3    H136145   0.745   1.506   1.290  0.9223 -1.0059 -1.8896
 4910TIP3    H236146   0.678   1.534   1.158 -1.2731  2.0333 -0.2558
 4911TIP3   OH236147   4.334   6.429  14.005  0.0478 -0.0660 -0.3963
 4911TIP3    H136148   4.360   6.352  14.056 -1.9118 -0.4937  0.0322
 4911TIP3    H236149   4.292   6.487  14.069  1.1918  1.2548 -0.7786
 4912TIP3   OH236150   1.336   2.956  11.534 -0.2128 -0.4275 -0.0048
 4912TIP3    H136151   1.373   2.869  11.517  0.3350 -0.1661 -0.1459
 4912TIP3    H236152   1.368   2.979  11.621  2.2495  0.9693 -1.1906
 4913TIP3   OH236153   1.335   3.089  15.464  0.3845  0.0215  0.0233
 4913TIP3    H136154   1.337   3.030  15.388 -0.0074 -0.1878  0.1763
 4913TIP3    H236155   1.269   3.052  15.522  0.9879 -0.0673  0.6700
 4914TIP3   OH236156   3.977   6.378  15.924 -0.0751  0.2700  0.0920
 4914TIP3    H136157   3.907   6.442  15.936 -0.5304 -0.3432  0.7716
 4914TIP3    H236158   4.056   6.430  15.915 -0.5309  0.9474 -0.0616
 4915TIP3   OH236159   1.182   4.306   5.365  0.1246 -0.2188  0.3808
 4915TIP3    H136160   1.168   4.325   5.272  1.9497 -0.3441  0.0499
 4915TIP3    H236161   1.184   4.210   5.369 -1.5636 -0.2725  0.8472
 4916TIP3   OH236162   3.079   6.481  11.338 -0.0515 -0.1903 -0.0731
 4916TIP3    H136163   3.140   6.552  11.358 -1.3986  0.8620  0.4434
 4916TIP3    H236164   3.114   6.442  11.258  0.8110  0.9354 -0.2774
 4917TIP3   OH236165   5.657   3.980   2.993 -0.7008 -0.7044  0.2401
 4917TIP3    H136166   5.722   4.051   2.991  0.6270 -1.8992 -0.5252
 4917TIP3    H236167   5.686   3.919   2.926 -2.7119 -1.2355 -0.1964
 4918TIP3   OH236168   1.491   4.138   2.508  0.5987  0.0999 -0.3092
 4918TIP3    H136169   1.494   4.189   2.589  1.5798 -0.3418 -0.0445
 4918TIP3    H236170   1.472   4.202   2.440  1.9035  0.8689 -0.0008
 4919TIP3   OH236171   1.256   2.579  15.611  0.0317  0.4376 -0.2310
 4919TIP3    H136172   1.338   2.531  15.625 -1.5948 -2.4520  0.2099
 4919TIP3    H236173   1.210   2.572  15.695 -2.8240 -2.6885 -1.7949
 4920TIP3   OH236174   0.250   1.861  11.155 -0.0414  0.2113 -0.0045
 4920TIP3    H136175   0.321   1.799  11.173  0.9603  1.6323  1.1973
 4920TIP3    H236176   0.244   1.864  11.060  3.0167  1.6023 -0.2806
 4921TIP3   OH236177   3.863   1.477   4.877  0.9352 -0.0265 -0.3489
 4921TIP3    H136178   3.838   1.569   4.864  0.0884 -0.3745 -1.2915
 4921TIP3    H236179   3.956   1.475   4.851  0.3565  0.1348 -2.6783
 4922TIP3   OH236180   0.480   5.131   6.161 -0.1548  0.0008  0.2186
 4922TIP3    H136181   0.521   5.060   6.211  0.0511  0.6364  0.9697
 4922TIP3    H236182   0.503   5.113   6.070  0.1361 -0.7304  0.4267
 4923TIP3   OH236183   0.926   3.753  17.034 -0.0537  0.0779 -0.4044
 4923TIP3    H136184   0.980   3.794  17.101  2.4159  2.6026 -3.6323
 4923TIP3    H236185   0.839   3.792  17.046  1.0766  2.7846 -0.4099
 4924TIP3   OH236186   4.763   3.551   5.326  0.4825 -0.0777 -0.1242
 4924TIP3    H136187   4.689   3.496   5.303 -0.6639  1.6373 -0.6932
 4924TIP3    H236188   4.808   3.567   5.243 -0.9933  2.3226 -0.5383
 4925TIP3   OH236189   4.898   4.056  12.369 -0.2531 -0.0082  0.3179
 4925TIP3    H136190   4.841   4.050  12.293  2.2680 -2.1243 -1.5970
 4925TIP3    H236191   4.849   4.013  12.439 -1.5414 -0.5488 -0.8660
 4926TIP3   OH236192   5.715   4.472   1.167 -0.6114  0.3101  0.1929
 4926TIP3    H136193   5.780   4.492   1.100 -1.8403  0.0538 -1.1325
 4926TIP3    H236194   5.733   4.382   1.192 -2.5004 -1.0590 -2.7479
 4927TIP3   OH236195   6.542   5.795   6.203 -0.5383  0.2931 -0.0496
 4927TIP3    H136196   6.598   5.795   6.125  0.6421  0.6506  0.7875
 4927TIP3    H236197   6.520   5.887   6.217 -0.4842  0.2637  0.2278
 4928TIP3   OH236198   6.106   1.792   0.703 -0.2124  0.4886  0.5427
 4928TIP3    H136199   6.163   1.826   0.634  0.5320 -0.1941  0.8105
 4928TIP3    H236200   6.154   1.810   0.784 -0.9397  1.0058  0.8735
 4929TIP3   OH236201   6.582   2.723  14.837  0.2337  0.3231 -0.4339
 4929TIP3    H136202   6.562   2.817  14.842  0.6866  0.3422  2.5987
 4929TIP3    H236203   6.671   2.716  14.872 -0.5210 -1.4043  1.3329
 4930TIP3   OH236204   0.030   0.325   3.010 -0.4183  0.1707 -0.5166
 4930TIP3    H136205   0.093   0.317   3.082  0.2370 -0.5362 -1.1553
 4930TIP3    H236206   0.012   0.235   2.983  0.8496  0.4611 -2.5200
 4931TIP3   OH236207   5.787   2.275   2.928 -0.5117 -0.0636  0.1152
 4931TIP3    H136208   5.771   2.276   2.834  0.0064 -0.8355  0.0106
 4931TIP3    H236209   5.704   2.249   2.967 -1.0212  1.2455 -0.0505
 4932TIP3   OH236210   4.064   5.417   3.250  0.2918  0.1349 -0.4165
 4932TIP3    H136211   3.983   5.417   3.199  0.8390  1.2355 -1.3202
 4932TIP3    H236212   4.037   5.442   3.338 -0.5123 -0.7216 -0.4075
 4933TIP3   OH236213   3.030   5.935  12.754 -0.5881  0.0273 -0.0880
 4933TIP3    H136214   3.074   5.898  12.831  1.4127  2.9309  0.3590
 4933TIP3    H236215   3.094   5.928  12.684 -0.5183  1.5851 -0.2258
 4934TIP3   OH236216   1.427   2.840  13.335  0.4120 -0.5376 -0.0874
 4934TIP3    H136217   1.437   2.858  13.428 -2.2069  0.0727  0.1613
 4934TIP3    H236218   1.462   2.751  13.323 -0.1559 -1.0392  1.7048
 4935TIP3   OH236219   0.317   3.209  16.513  0.2229 -0.1626  0.1482
 4935TIP3    H136220   0.355   3.205  16.426 -0.6158 -0.3175 -0.2205
 4935TIP3    H236221   0.325   3.119  16.547 -2.5328 -1.0174 -1.1445
 4936TIP3   OH236222   0.248   5.831   3.524  0.2486 -0.0097 -0.6317
 4936TIP3    H136223   0.257   5.917   3.482 -0.7206  0.1161 -0.6112
 4936TIP3    H236224   0.216   5.851   3.612  1.0160 -0.3412 -0.2794
 4937TIP3   OH236225   1.714   6.512   5.051  0.0084 -0.2075  0.2735
 4937TIP3    H136226   1.785   6.474   5.000 -0.5774 -1.5432  0.4248
 4937TIP3    H236227   1.692   6.444   5.115 -0.6265  0.6505  0.9828
 4938TIP3   OH236228   2.785   3.489  12.490  0.5617  0.0815  0.7477
 4938TIP3    H136229   2.706   3.442  12.467 -0.0450  0.8291  1.2383
 4938TIP3    H236230   2.755   3.578  12.510  1.4103  0.1751  1.6941
 4939TIP3   OH236231   2.013   1.124  12.468  0.1701 -0.0100  0.0357
 4939TIP3    H136232   2.101   1.119  12.431  0.1185 -0.0128 -0.0853
 4939TIP3    H236233   1.969   1.045  12.437 -0.3464  0.7034 -1.1090
 4940TIP3   OH236234   2.072   6.739   4.899  0.1320  0.1962 -0.3442
 4940TIP3    H136235   2.015   6.697   4.834 -0.9096 -1.0817  1.2992
 4940TIP3    H236236   2.155   6.693   4.891 -0.1656 -0.3448 -0.3868
 4941TIP3   OH236237   0.741   1.727   0.406 -0.4860  0.1474  0.2481
 4941TIP3    H136238   0.708   1.801   0.354 -0.9930 -0.0141  0.3263
 4941TIP3    H236239   0.772   1.766   0.487 -2.9814  0.0762  1.3437
 4942TIP3   OH236240   6.321   4.501   3.267  0.4353  0.0591 -0.1579
 4942TIP3    H136241   6.232   4.483   3.298 -0.2824 -0.6897 -2.4648
 4942TIP3    H236242   6.372   4.425   3.295  0.5192  0.7224  1.6205
 4943TIP3   OH236243   1.284   4.773   1.497  0.0507 -0.8138  0.1613
 4943TIP3    H136244   1.213   4.767   1.434 -1.1183 -0.0646  1.3444
 4943TIP3    H236245   1.363   4.748   1.448 -1.0041 -1.6189 -1.1918
 4944TIP3   OH236246   0.923   1.512  13.728  0.1051 -0.1404  0.1993
 4944TIP3    H136247   1.019   1.508  13.725  0.1426  0.0671  0.9122
 4944TIP3    H236248   0.902   1.602  13.705  0.1674  0.2089  1.4063
 4945TIP3   OH236249   1.137   6.149  11.200 -0.6816 -0.2064  0.0380
 4945TIP3    H136250   1.127   6.055  11.186 -3.0031 -0.0369  0.2528
 4945TIP3    H236251   1.125   6.161  11.294  0.1777  0.2702  0.1014
 4946TIP3   OH236252   1.059   1.326  13.307  0.2444 -0.1173  0.0029
 4946TIP3    H136253   1.025   1.415  13.297  0.2983 -0.0326  0.5690
 4946TIP3    H236254   0.986   1.276  13.344 -0.4093 -0.7527 -1.9889
 4947TIP3   OH236255   2.242   0.432  16.165 -0.2121  0.2034  0.0510
 4947TIP3    H136256   2.297   0.365  16.206  1.3253  1.0446 -0.5652
 4947TIP3    H236257   2.173   0.448  16.230  0.3889 -0.7046  0.9604
 4948TIP3   OH236258   4.639   6.123  16.416  0.1139 -0.2172 -0.3481
 4948TIP3    H136259   4.686   6.128  16.499 -0.8258 -0.8433  0.2538
 4948TIP3    H236260   4.554   6.085  16.440 -1.4564  2.5765 -1.0725
 4949TIP3   OH236261   3.256   0.726   4.300 -0.2413  0.6608  0.2578
 4949TIP3    H136262   3.202   0.651   4.272 -0.0421  0.4886  0.3337
 4949TIP3    H236263   3.227   0.798   4.244 -1.9636  1.1019  1.6344
 4950TIP3   OH236264   4.480   3.755  15.175 -0.2818  0.4036 -0.4420
 4950TIP3    H136265   4.560   3.797  15.207 -0.6313 -0.0193  1.0788
 4950TIP3    H236266   4.492   3.662  15.195 -1.2224  0.3582 -0.0116
 4951TIP3   OH236267   5.676   1.248  14.854  0.5745 -0.4336 -0.5289
 4951TIP3    H136268   5.745   1.283  14.910  1.1429 -3.7108  1.0719
 4951TIP3    H236269   5.594   1.279  14.894  1.0473 -0.2349  0.3074
 4952TIP3   OH236270   3.444   0.101   1.117 -0.8433  0.0032 -0.1075
 4952TIP3    H136271   3.412   0.019   1.081 -3.1955  0.4361  0.8388
 4952TIP3    H236272   3.451   0.160   1.042 -0.8981 -0.5277 -0.5311
 4953TIP3   OH236273   4.687   6.349   5.432  0.8168  0.2509 -0.6077
 4953TIP3    H136274   4.761   6.405   5.455  2.2575 -1.7795 -0.1141
 4953TIP3    H236275   4.668   6.300   5.511  2.1019 -2.6807 -1.9662
 4954TIP3   OH236276   5.960   0.021   2.575  0.4365  0.0187 -0.5516
 4954TIP3    H136277   5.971   0.003   2.482 -2.0741  0.6582 -1.0370
 4954TIP3    H236278   6.005   0.104   2.590 -1.1501  1.1562 -1.7784
 4955TIP3   OH236279   1.758   5.415   5.653  0.5634  0.4607  0.1325
 4955TIP3    H136280   1.722   5.330   5.628 -0.0635  0.3146  1.4198
 4955TIP3    H236281   1.827   5.393   5.716  2.1595  0.8003 -1.4569
 4956TIP3   OH236282   4.503   1.614  15.980 -0.0910  0.1133  0.7058
 4956TIP3    H136283   4.461   1.572  16.055  0.7803 -1.0649  0.5641
 4956TIP3    H236284   4.526   1.541  15.922  0.9905  0.8334  0.2007
 4957TIP3   OH236285   6.609   2.716   0.001 -0.4300  0.0791  0.1159
 4957TIP3    H136286   6.594   2.810   0.006 -0.8474  0.2435 -2.4503
 4957TIP3    H236287   6.681   2.699   0.061 -0.0128  2.1250  0.2563
 4958TIP3   OH236288   5.169   5.038  11.320 -0.6556 -0.1344  0.0087
 4958TIP3    H136289   5.177   5.132  11.301  1.3394 -0.4333 -1.0066
 4958TIP3    H236290   5.133   5.034  11.408 -3.2838  1.5017 -0.8733
 4959TIP3   OH236291   4.702   3.774  13.145  0.0811 -0.3861 -0.2392
 4959TIP3    H136292   4.653   3.701  13.110  1.0403 -0.9211 -0.4933
 4959TIP3    H236293   4.731   3.824  13.068  0.6539 -0.5544 -0.1394
 4960TIP3   OH236294   0.961   0.233  16.105 -0.2284 -0.8336  0.0579
 4960TIP3    H136295   1.017   0.179  16.161  1.1521  0.6864  0.2151
 4960TIP3    H236296   0.894   0.173  16.073 -1.3239 -1.7556  3.5809
 4961TIP3   OH236297   0.455   6.244  12.814 -0.2179 -0.1587  0.0363
 4961TIP3    H136298   0.492   6.309  12.873  0.8382  0.2920 -1.0823
 4961TIP3    H236299   0.360   6.259  12.817 -0.0369  0.9515  0.3313
 4962TIP3   OH236300   0.237   2.227  10.919 -0.0536 -0.0982  0.1023
 4962TIP3    H136301   0.332   2.228  10.931 -0.0958 -0.1227  0.4535
 4962TIP3    H236302   0.221   2.152  10.861  0.1224 -0.2271  0.2198
 4963TIP3   OH236303   1.390   0.771  15.092 -0.2905  0.0963  0.7344
 4963TIP3    H136304   1.335   0.756  15.015 -1.1606  0.6048  1.2431
 4963TIP3    H236305   1.369   0.699  15.151  1.1540 -0.8969  0.1015
 4964TIP3   OH236306   4.886   1.567   3.450 -0.3241  1.4561  0.1427
 4964TIP3    H136307   4.904   1.512   3.527  0.2642  1.4100 -0.0233
 4964TIP3    H236308   4.796   1.546   3.426 -0.2597  0.9060  0.3658
 4965TIP3   OH236309   2.806   1.147   4.139 -0.7042  0.0812 -0.6900
 4965TIP3    H136310   2.885   1.157   4.085  0.2552 -1.9405  0.2207
 4965TIP3    H236311   2.736   1.130   4.075 -0.2027  0.7813 -1.4505
 4966TIP3   OH236312   1.102   3.958  15.881  0.1456  0.0459 -0.3072
 4966TIP3    H136313   1.183   3.977  15.834  0.4113 -1.2582 -0.4339
 4966TIP3    H236314   1.109   4.008  15.962 -0.8270  3.2483 -2.0133
 4967TIP3   OH236315   1.448   4.043   1.981  0.3081  0.0073  0.1137
 4967TIP3    H136316   1.523   4.100   1.997  1.9273 -1.5590 -1.4475
 4967TIP3    H236317   1.483   3.954   1.988 -1.3711 -0.7805 -0.7409
 4968TIP3   OH236318   0.032   2.079  12.388 -0.3417  0.0224  0.3083
 4968TIP3    H136319   0.042   2.173  12.406 -0.1310  0.3117 -1.1746
 4968TIP3    H236320  -0.041   2.052  12.443 -1.3190  1.3891 -0.2523
 4969TIP3   OH236321   5.508   0.154  12.680 -0.9443 -0.1126  0.0042
 4969TIP3    H136322   5.571   0.155  12.752 -0.6068 -0.6710 -0.2788
 4969TIP3    H236323   5.436   0.101  12.712 -1.8923  1.5787  0.8272
 4970TIP3   OH236324   5.274   1.561  12.441 -0.1183  0.0396  0.0489
 4970TIP3    H136325   5.368   1.582  12.441 -0.2972  0.9564  1.3464
 4970TIP3    H236326   5.268   1.477  12.487 -0.0713  0.7936  1.4669
 4971TIP3   OH236327   4.823   4.372   0.185  0.0885 -0.0429 -0.3004
 4971TIP3    H136328   4.886   4.392   0.254 -1.6755  1.6423  0.9232
 4971TIP3    H236329   4.754   4.437   0.196 -1.1258 -0.8529 -2.5630
 4972TIP3   OH236330   4.395   4.000  12.065  0.1876 -0.2912 -0.2180
 4972TIP3    H136331   4.416   4.079  12.115  1.5601  0.8078 -2.3892
 4972TIP3    H236332   4.313   3.968  12.104 -0.1941  1.9629  0.9808
 4973TIP3   OH236333   5.532   1.639  11.530  0.3899 -0.0007  0.1441
 4973TIP3    H136334   5.577   1.693  11.595  0.7889 -1.0033  0.7121
 4973TIP3    H236335   5.462   1.596  11.578 -0.3981  0.5630 -0.4690
 4974TIP3   OH236336   1.691   1.448  11.745  0.4020 -0.8461 -0.2221
 4974TIP3    H136337   1.744   1.501  11.804  0.8652 -0.6411 -0.8051
 4974TIP3    H236338   1.601   1.474  11.763  0.4977 -1.1422  0.7297
 4975TIP3   OH236339   2.698   4.087  16.353 -0.0920  0.0910  0.0875
 4975TIP3    H136340   2.633   4.064  16.287 -0.9295  1.8177  0.2521
 4975TIP3    H236341   2.736   4.169  16.322  1.6692 -0.6137  0.2652
 4976TIP3   OH236342   3.150   2.400   3.432  0.4226  0.0655  0.4014
 4976TIP3    H136343   3.132   2.336   3.363 -1.0216  1.1922 -0.3406
 4976TIP3    H236344   3.211   2.462   3.393 -0.2189  0.5769  0.1829
 4977TIP3   OH236345   1.483   4.424  11.686 -0.1145  0.1468 -1.0025
 4977TIP3    H136346   1.420   4.471  11.740 -2.4955  1.1619 -4.3253
 4977TIP3    H236347   1.561   4.479  11.686 -0.2575  0.3985  0.8251
 4978TIP3   OH236348   0.271   2.513   0.238  0.9862 -0.4665 -0.0280
 4978TIP3    H136349   0.330   2.545   0.170  0.6070  1.3648  0.4599
 4978TIP3    H236350   0.254   2.589   0.293  1.7523 -1.9749  2.4971
 4979TIP3   OH236351   4.541   1.965   0.167  0.0096  0.5372 -0.2218
 4979TIP3    H136352   4.504   1.882   0.196 -0.0996  0.5572 -0.3040
 4979TIP3    H236353   4.557   2.014   0.248  2.7505 -0.6561  0.0748
 4980TIP3   OH236354   1.479   2.138  11.513 -0.0469  0.5299  0.3778
 4980TIP3    H136355   1.433   2.108  11.591  0.8472 -0.4337  0.5525
 4980TIP3    H236356   1.491   2.059  11.460 -1.0733  1.2491 -0.9857
 4981TIP3   OH236357   3.775   1.106  13.996 -0.5724  0.5009  0.3766
 4981TIP3    H136358   3.780   1.200  13.980  0.7606  0.2656 -0.7740
 4981TIP3    H236359   3.724   1.072  13.922  0.8140  0.0877 -0.4343
 4982TIP3   OH236360   0.650   5.562   4.681  0.3378  0.0571  0.5944
 4982TIP3    H136361   0.629   5.559   4.774 -2.7190  0.3545  0.0165
 4982TIP3    H236362   0.583   5.508   4.639  0.5107  1.3825 -1.5799
 4983TIP3   OH236363   2.064   2.336   0.866 -0.6256  0.1731 -0.2916
 4983TIP3    H136364   2.117   2.391   0.808  0.6676  0.0584  0.7225
 4983TIP3    H236365   2.092   2.246   0.846 -1.0137  0.0577 -0.3118
 4984TIP3   OH236366   0.896   0.585  12.542  0.1290 -0.1326 -0.5306
 4984TIP3    H136367   0.849   0.658  12.581  0.4024  0.1507 -0.7296
 4984TIP3    H236368   0.851   0.568  12.459 -1.4010 -1.6991  0.5279
 4985TIP3   OH236369   4.047   2.117   4.912 -0.1907 -0.1383 -0.2890
 4985TIP3    H136370   3.992   2.167   4.852  0.7277  4.7194  2.3338
 4985TIP3    H236371   3.985   2.075   4.972 -1.1342  0.7750 -0.5844
 4986TIP3   OH236372   5.201   5.619   3.966  0.4865 -0.1725 -0.0234
 4986TIP3    H136373   5.181   5.709   3.994 -1.8368 -0.4987 -0.4862
 4986TIP3    H236374   5.219   5.572   4.047 -0.2418  0.2716  0.4069
 4987TIP3   OH236375   0.452   5.929  16.235 -0.1594  0.6597 -0.0909
 4987TIP3    H136376   0.507   5.952  16.161  0.4593 -1.4069 -0.3262
 4987TIP3    H236377   0.376   5.987  16.227  0.5281  1.4140 -1.5307
 4988TIP3   OH236378   3.037   1.882   2.611  0.3716  0.3145  0.0385
 4988TIP3    H136379   2.988   1.817   2.562 -1.2434  0.3535  1.4983
 4988TIP3    H236380   3.004   1.967   2.581  0.5827  0.3887  0.0089
 4989TIP3   OH236381   3.647   0.626   1.986  0.4475  0.7579 -0.8768
 4989TIP3    H136382   3.740   0.625   1.965  1.0312  1.1082  1.4457
 4989TIP3    H236383   3.620   0.717   1.976  0.3202  0.6558 -1.5512
 4990TIP3   OH236384   1.589   3.245  14.343 -0.1008 -0.3068  0.6846
 4990TIP3    H136385   1.658   3.246  14.410  1.9229  0.5888 -1.2858
 4990TIP3    H236386   1.510   3.270  14.391  0.9036 -1.2481  3.0367
 4991TIP3   OH236387   6.775   1.464  12.703  0.5659 -0.6720 -0.2660
 4991TIP3    H136388   6.858   1.447  12.747  1.1273  3.2668  0.6248
 4991TIP3    H236389   6.799   1.498  12.617 -0.1914 -0.7241 -0.5063
 4992TIP3   OH236390   5.558   6.335  15.019  0.2756  0.1542  0.1951
 4992TIP3    H136391   5.592   6.348  14.931  1.1113  0.8844  0.6082
 4992TIP3    H236392   5.527   6.244  15.020  1.0182 -0.1207 -0.6010
 4993TIP3   OH236393   2.079   3.914  11.644  0.0901 -0.0530  0.1273
 4993TIP3    H136394   2.166   3.954  11.636 -0.3350  0.8980  0.0811
 4993TIP3    H236395   2.061   3.878  11.557  0.6808 -0.8020  0.3012
 4994TIP3   OH236396   1.247   6.422   1.907 -0.2663  0.5828  0.4185
 4994TIP3    H136397   1.306   6.360   1.863 -1.3333  1.4870 -2.5283
 4994TIP3    H236398   1.291   6.507   1.898 -0.5740  0.8066  1.0051
 4995TIP3   OH236399   5.256   2.638  10.919  0.1752 -0.1378 -0.4186
 4995TIP3    H136400   5.279   2.548  10.894 -0.8149 -1.5728  3.2738
 4995TIP3    H236401   5.340   2.680  10.937  0.5572 -1.0282 -0.0751
 4996TIP3   OH236402   5.519   5.541  10.675 -0.3023 -0.0400 -0.3088
 4996TIP3    H136403   5.596   5.589  10.645  1.1679 -1.2380  1.3749
 4996TIP3    H236404   5.511   5.468  10.614 -0.4163  0.3316 -0.7534
 4997TIP3   OH236405   3.345   5.944  16.633  0.0766 -0.2252  0.1146
 4997TIP3    H136406   3.300   5.860  16.645  0.1925 -0.3147 -0.0645
 4997TIP3    H236407   3.430   5.932  16.674  0.0072 -0.1179  0.2903
 4998TIP3   OH236408   3.713   0.504   4.725 -0.2350  0.4665  0.8376
 4998TIP3    H136409   3.705   0.444   4.799 -3.5794 -1.1671 -0.6464
 4998TIP3    H236410   3.663   0.581   4.751  0.0137  0.6021  0.9162
 4999TIP3   OH236411   0.187   3.832  12.092  0.1051  0.1782 -0.3555
 4999TIP3    H136412   0.223   3.918  12.072 -0.4357  0.3782 -0.4790
 4999TIP3    H236413   0.199   3.782  12.012  0.2586  0.1932 -0.3422
 5000TIP3   OH236414   4.114   1.665   2.189  0.2114  0.3804 -0.0440
 5000TIP3    H136415   4.042   1.680   2.128  1.9343  1.5831 -1.9013
 5000TIP3    H236416   4.120   1.746   2.240  0.8157  0.6307 -0.5129
 5001TIP3   OH236417   5.134   3.265   2.804 -0.1164  0.0643  0.4426
 5001TIP3    H136418   5.051   3.267   2.851  0.4139 -1.7588  1.5846
 5001TIP3    H236419   5.198   3.299   2.866  0.4906 -1.7680  0.9066
 5002TIP3   OH236420   4.111   4.514   5.681  0.1945  0.3682 -0.4319
 5002TIP3    H136421   4.084   4.540   5.769  2.8554 -0.9677  0.9047
 5002TIP3    H236422   4.180   4.577   5.659  1.3850 -0.8863 -0.3854
 5003TIP3   OH236423   0.181   6.452   2.212  0.3006 -0.3483 -0.4186
 5003TIP3    H136424   0.091   6.463   2.181 -0.2309 -0.1707  1.1281
 5003TIP3    H236425   0.201   6.534   2.257  0.2561 -1.3864  1.5841
 5004TIP3   OH236426   3.429   2.420   1.068  0.3932 -0.2407 -0.0154
 5004TIP3    H136427   3.373   2.489   1.105 -0.6752 -1.2149  0.2367
 5004TIP3    H236428   3.451   2.365   1.143  1.8566  0.2093 -0.0860
 5005TIP3   OH236429   3.635   5.506   0.518 -0.3065 -0.1547 -0.3290
 5005TIP3    H136430   3.680   5.583   0.554  1.1321 -0.8358 -0.6057
 5005TIP3    H236431   3.702   5.438   0.515 -0.4009 -0.2825 -3.8897
 5006TIP3   OH236432   0.254   1.507   4.298  0.1090  0.6360  0.3522
 5006TIP3    H136433   0.164   1.534   4.316 -0.6975 -1.9925  0.7625
 5006TIP3    H236434   0.280   1.458   4.377  0.5781 -1.5813 -1.0894
 5007TIP3   OH236435   2.330   6.351   4.977  0.5948 -0.0155  0.0624
 5007TIP3    H136436   2.328   6.258   4.956  1.7295  0.1940 -1.1197
 5007TIP3    H236437   2.366   6.355   5.066 -1.4985 -0.7871  0.9992
 5008TIP3   OH236438   3.980   6.571   1.587 -0.1361 -0.1410  0.3172
 5008TIP3    H136439   3.927   6.650   1.593  0.8927  0.4521  3.1094
 5008TIP3    H236440   4.041   6.587   1.515 -0.5201  1.2173  0.2779
 5009TIP3   OH236441   2.497   0.621  13.406  0.0494 -0.4979 -0.5722
 5009TIP3    H136442   2.554   0.698  13.398 -0.5331 -0.0127 -0.1320
 5009TIP3    H236443   2.541   0.565  13.470  0.7125 -0.7519 -1.2404
 5010TIP3   OH236444   2.295   3.430  10.794  0.3498 -0.1224 -0.5566
 5010TIP3    H136445   2.282   3.336  10.793  2.1219 -0.3995 -0.7394
 5010TIP3    H236446   2.302   3.455  10.702  0.0679  0.1761 -0.5036
 5011TIP3   OH236447   5.964   4.419  16.526  0.8149 -0.1073 -0.4344
 5011TIP3    H136448   5.871   4.440  16.531  0.5836 -1.2830  1.5608
 5011TIP3    H236449   5.966   4.323  16.521  1.9068 -0.1189 -0.0762
 5012TIP3   OH236450   1.023   1.324  14.896 -0.1478 -0.1183 -0.1825
 5012TIP3    H136451   1.006   1.229  14.899 -1.9716  0.1487 -0.6953
 5012TIP3    H236452   1.116   1.331  14.876  0.2593 -1.7923  0.8898
 5013TIP3   OH236453   2.474   3.209  16.034 -0.3311 -0.3698 -0.4652
 5013TIP3    H136454   2.473   3.224  16.129  1.2800 -1.2455 -0.2686
 5013TIP3    H236455   2.566   3.214  16.010 -0.9267  3.4319 -2.6560
 5014TIP3   OH236456   5.504   2.268  16.930  0.5555  0.2883 -0.2766
 5014TIP3    H136457   5.468   2.210  16.997  0.8478  2.1485  1.5698
 5014TIP3    H236458   5.519   2.211  16.855 -1.4494 -1.5363  0.6007
 5015TIP3   OH236459   5.139   2.788   3.535  0.3643  0.7246 -0.5338
 5015TIP3    H136460   5.092   2.814   3.455  0.6151  0.0204 -0.9125
 5015TIP3    H236461   5.191   2.865   3.558 -0.5314  1.3110 -0.4384
 5016TIP3   OH236462   1.429   3.388   5.305  0.3609  0.2795 -0.7542
 5016TIP3    H136463   1.349   3.403   5.254 -0.0200  0.6303 -0.0637
 5016TIP3    H236464   1.500   3.404   5.242 -0.1026 -0.1187 -1.3969
 5017TIP3   OH236465   1.518   5.681   3.943 -0.3329  0.1234 -0.4486
 5017TIP3    H136466   1.440   5.650   3.990 -0.0655 -0.7723 -0.5740
 5017TIP3    H236467   1.580   5.608   3.949  1.0430  1.3358  0.8512
 5018TIP3   OH236468   3.852   0.918  12.085  0.0810 -0.6317  0.1714
 5018TIP3    H136469   3.772   0.907  12.034 -1.4271  0.3519  2.1931
 5018TIP3    H236470   3.844   0.855  12.156 -0.6235  1.6762  2.3108
 5019TIP3   OH236471   1.420   1.158   1.290 -0.4906  0.0489 -0.2302
 5019TIP3    H136472   1.387   1.247   1.304 -2.0521 -0.4473 -0.6303
 5019TIP3    H236473   1.459   1.134   1.374 -1.5354  0.5160  0.4115
 5020TIP3   OH236474   6.175   6.390  13.817  0.6638  0.2378  0.4506
 5020TIP3    H136475   6.099   6.408  13.763 -0.2551  0.6250  1.8316
 5020TIP3    H236476   6.250   6.416  13.763 -0.0536 -1.3515 -1.4347
 5021TIP3   OH236477   5.797   0.963   1.308  0.4030  0.2347 -0.3188
 5021TIP3    H136478   5.865   1.029   1.292 -0.9292  1.7154 -0.1407
 5021TIP3    H236479   5.782   0.967   1.402 -0.0180 -0.0020 -0.3738
 5022TIP3   OH236480   3.691   3.220  13.590 -0.3152  0.5380 -0.6685
 5022TIP3    H136481   3.669   3.175  13.671 -1.8796  0.5579 -1.0508
 5022TIP3    H236482   3.731   3.303  13.619 -1.8841  1.0535  0.1145
 5023TIP3   OH236483   0.737   5.193  11.272  0.0353 -0.1549  0.4672
 5023TIP3    H136484   0.757   5.199  11.179  1.0567  0.5143  0.7127
 5023TIP3    H236485   0.794   5.124  11.305  1.2084  0.9868  0.9541
 5024TIP3   OH236486   1.874   1.418  14.614  0.1228  0.1215 -0.0868
 5024TIP3    H136487   1.899   1.345  14.670 -0.7288 -0.3358 -0.2897
 5024TIP3    H236488   1.945   1.481  14.624  0.9411 -0.7940 -0.0310
 5025TIP3   OH236489   4.971   1.576   0.783 -0.1768  0.6529 -0.4157
 5025TIP3    H136490   5.025   1.532   0.849 -0.4741 -0.2100 -0.7380
 5025TIP3    H236491   4.948   1.660   0.823  1.0340  0.8539 -0.0995
 5026TIP3   OH236492   5.254   1.840  16.557 -0.0913  0.6436 -0.4291
 5026TIP3    H136493   5.311   1.809  16.487 -0.5978 -0.2050 -0.4930
 5026TIP3    H236494   5.271   1.780  16.630 -0.6058  0.6125 -0.3254
 5027TIP3   OH236495   1.392   4.465  16.294  0.3186  0.3338  0.1052
 5027TIP3    H136496   1.465   4.472  16.232  0.8926  0.2828  0.7692
 5027TIP3    H236497   1.426   4.411  16.365 -0.8450 -0.9554 -0.2717
 5028TIP3   OH236498   1.259   6.466  17.209 -0.1595  0.3042  0.2678
 5028TIP3    H136499   1.335   6.408  17.216 -0.4064  0.0274  0.6580
 5028TIP3    H236500   1.279   6.522  17.133  0.0676 -0.3014 -0.1267
 5029TIP3   OH236501   0.093   2.884   4.928 -0.3194  0.3146 -0.2050
 5029TIP3    H136502   0.169   2.910   4.980 -0.2996 -1.2199  0.5670
 5029TIP3    H236503   0.034   2.959   4.933  0.8450  1.2609 -0.2643
 5030TIP3   OH236504   5.233   4.023   2.078  0.1126  0.3922 -0.1346
 5030TIP3    H136505   5.155   4.035   2.132  0.6002  0.0303  0.6610
 5030TIP3    H236506   5.215   4.074   1.999 -0.1867  1.8063  0.8087
 5031TIP3   OH236507   3.433   3.864  16.122 -0.0078 -0.2919  0.1891
 5031TIP3    H136508   3.429   3.951  16.163 -0.3929 -0.2880  0.1517
 5031TIP3    H236509   3.435   3.882  16.028 -0.8159 -0.3319  0.1552
 5032TIP3   OH236510   4.414   6.275   6.617  0.1525 -0.5345 -0.3825
 5032TIP3    H136511   4.509   6.291   6.614  0.0517 -0.0024 -1.7611
 5032TIP3    H236512   4.406   6.181   6.634  0.9332 -0.6108 -0.3982
 5033TIP3   OH236513   1.238   3.096   1.040 -0.4489 -0.4640  0.0253
 5033TIP3    H136514   1.274   3.133   0.959 -0.9502 -0.4279 -0.1855
 5033TIP3    H236515   1.251   3.164   1.106 -0.8294 -0.1400 -0.2254
 5034TIP3   OH236516   5.079   1.362   4.750 -0.2396 -0.0978  0.0353
 5034TIP3    H136517   5.172   1.346   4.739  0.0286  0.5285  1.1906
 5034TIP3    H236518   5.050   1.297   4.814 -0.1759  0.8654  1.0787
 5035TIP3   OH236519   5.575   5.657   0.562 -0.1502  0.4387  0.1668
 5035TIP3    H136520   5.548   5.569   0.586  2.0314 -0.4441 -0.3739
 5035TIP3    H236521   5.528   5.675   0.480 -0.8178 -0.0944  0.4272
 5036TIP3   OH236522   3.931   0.253  11.449 -0.1696 -0.2188 -0.0496
 5036TIP3    H136523   3.962   0.277  11.536  0.6573  0.5680 -0.5369
 5036TIP3    H236524   3.963   0.164  11.436  0.8383  0.1317 -0.0507
 5037TIP3   OH236525   0.587   4.832  13.173 -0.4310 -0.8276  0.3333
 5037TIP3    H136526   0.515   4.871  13.221 -0.4255 -2.6462  1.9321
 5037TIP3    H236527   0.660   4.893  13.184 -0.9771 -0.2947  1.0188
 5038TIP3   OH236528   0.218   0.901  17.039  0.0279  0.0560  0.3872
 5038TIP3    H136529   0.176   0.903  17.125 -1.0945 -0.7410 -0.1185
 5038TIP3    H236530   0.286   0.834  17.048  1.7910  1.8480  1.4235
 5039TIP3   OH236531   0.238   3.473   5.415  0.1643  0.5964 -0.6917
 5039TIP3    H136532   0.145   3.455   5.429 -1.1414  3.5061 -3.9085
 5039TIP3    H236533   0.283   3.399   5.453 -3.3696 -0.4366  2.0505
 5040TIP3   OH236534   5.212   5.935  11.599  0.2449 -0.1592 -0.3867
 5040TIP3    H136535   5.274   5.959  11.531  0.7580  0.8212  0.3912
 5040TIP3    H236536   5.132   5.913  11.552  0.4845  0.8220 -1.2980
 5041TIP3   OH236537   5.482   5.024   5.069  0.3048 -0.3014  0.1436
 5041TIP3    H136538   5.563   5.001   5.116  1.0137  2.5000  0.4542
 5041TIP3    H236539   5.500   5.001   4.978  2.3669  2.1133 -0.1718
 5042TIP3   OH236540   5.198   4.685   2.339 -0.0569 -0.0530  0.0736
 5042TIP3    H136541   5.244   4.761   2.374  2.8491 -1.9738  0.8350
 5042TIP3    H236542   5.158   4.643   2.415  2.0267 -1.5041  0.4799
 5043TIP3   OH236543   6.263   2.690   1.661 -0.4545 -0.4947 -0.0002
 5043TIP3    H136544   6.229   2.779   1.676 -0.5711 -1.0661  4.5972
 5043TIP3    H236545   6.186   2.635   1.660 -0.2733 -0.7642 -1.3469
 5044TIP3   OH236546   6.318   5.318  15.540 -0.0582 -0.4890 -0.2212
 5044TIP3    H136547   6.227   5.325  15.569 -0.0665  2.4678 -0.5554
 5044TIP3    H236548   6.312   5.307  15.445 -0.1386  0.7349 -0.3822
 5045TIP3   OH236549   2.052   1.686  13.843  0.1835 -0.1594  0.8119
 5045TIP3    H136550   2.096   1.771  13.839  0.2153 -0.1996  0.2629
 5045TIP3    H236551   2.109   1.627  13.794 -0.4269 -0.2337  0.1719
 5046TIP3   OH236552   1.086   2.380  11.156 -0.5515 -0.5498  0.0327
 5046TIP3    H136553   1.115   2.318  11.223 -0.3637  0.2329  0.6807
 5046TIP3    H236554   0.996   2.401  11.178 -0.2893  0.2013  0.4249
 5047TIP3   OH236555   2.739   1.427   0.377  0.2002 -0.1190 -0.5315
 5047TIP3    H136556   2.746   1.511   0.331 -0.5054 -0.3200 -1.0210
 5047TIP3    H236557   2.795   1.368   0.327 -1.7797 -0.7517 -2.1615
 5048TIP3   OH236558   0.381   6.461  15.737  0.5741 -0.0735  0.4546
 5048TIP3    H136559   0.393   6.401  15.810  1.0730 -0.7170 -0.1489
 5048TIP3    H236560   0.288   6.453  15.714 -0.1841  1.8524  2.4679
 5049TIP3   OH236561   6.241   2.210   0.608  0.1433 -0.2101  0.2965
 5049TIP3    H136562   6.217   2.149   0.677 -0.3109  0.5947  0.8636
 5049TIP3    H236563   6.167   2.270   0.602  1.2793  1.3221  0.9412
 5050TIP3   OH236564   4.920   5.983   5.291 -0.1947 -0.2084 -0.2197
 5050TIP3    H136565   4.913   6.034   5.210  0.1042  2.1054  1.1117
 5050TIP3    H236566   4.989   6.028   5.341  1.2310 -2.9023  0.4352
 5051TIP3   OH236567   1.553   0.671   4.745  0.1450 -0.9635  0.6072
 5051TIP3    H136568   1.525   0.730   4.674  0.2091  0.2754  1.5757
 5051TIP3    H236569   1.535   0.583   4.711 -0.6460 -0.3706 -0.5974
 5052TIP3   OH236570   5.416   0.211  10.311 -0.0067 -0.0512 -0.0163
 5052TIP3    H136571   5.381   0.162  10.236 -1.6613  0.2824  0.5021
 5052TIP3    H236572   5.439   0.297  10.275  0.0926 -0.2022 -0.3197
 5053TIP3   OH236573   2.079   0.460   0.687 -0.3211 -0.6325  0.2860
 5053TIP3    H136574   2.000   0.463   0.740  0.5751  1.0711  1.6405
 5053TIP3    H236575   2.078   0.373   0.647 -3.1305 -0.4408 -0.2215
 5054TIP3   OH236576   0.452   0.344   3.515  0.9126 -0.4235 -0.5543
 5054TIP3    H136577   0.369   0.388   3.530  0.2626 -1.7133 -0.2218
 5054TIP3    H236578   0.486   0.384   3.435 -0.1104 -0.0083 -0.8006
 5055TIP3   OH236579   0.363   5.632  15.258 -0.2550  0.6381 -0.3684
 5055TIP3    H136580   0.430   5.578  15.301  0.3377  0.3071 -1.6513
 5055TIP3    H236581   0.283   5.581  15.265 -0.4771  1.1525  1.4147
 5056TIP3   OH236582   0.418   4.507  13.321 -0.5054  0.1856  0.8689
 5056TIP3    H136583   0.434   4.475  13.409  0.5101 -1.9085 -0.0178
 5056TIP3    H236584   0.338   4.463  13.294  0.7671 -1.5899 -0.2659
 5057TIP3   OH236585   1.119   4.069   1.604 -0.0390 -0.1343 -0.4425
 5057TIP3    H136586   1.172   4.131   1.554 -0.0831 -0.8131 -1.3589
 5057TIP3    H236587   1.182   4.019   1.656  0.0497  0.2637 -0.1627
 5058TIP3   OH236588   4.770   0.801  17.173 -0.3929  0.2505  0.2079
 5058TIP3    H136589   4.725   0.743  17.234 -1.1996  1.5039  0.8373
 5058TIP3    H236590   4.702   0.826  17.109 -0.1423  0.7317  0.1243
 5059TIP3   OH236591   6.526   3.413   3.246 -0.1053 -0.2201  0.1088
 5059TIP3    H136592   6.583   3.463   3.187 -1.0427  0.7968  0.0243
 5059TIP3    H236593   6.514   3.470   3.322 -0.5900 -0.6338  0.3495
 5060TIP3   OH236594   6.402   3.106   2.752  0.0863 -0.3828 -0.0891
 5060TIP3    H136595   6.444   3.074   2.831 -0.4944  1.0102  0.8395
 5060TIP3    H236596   6.373   3.195   2.775 -0.2052  0.0121 -1.8258
 5061TIP3   OH236597   6.330   0.559  11.609  0.2811  0.1103  0.0874
 5061TIP3    H136598   6.362   0.528  11.525 -0.0757  0.0097 -0.0107
 5061TIP3    H236599   6.405   0.549  11.668 -0.0970 -1.8345  0.2944
 5062TIP3   OH236600   0.456   3.930   2.834  0.1281 -0.0467  0.2297
 5062TIP3    H136601   0.448   3.948   2.740 -0.4066 -0.1348  0.2540
 5062TIP3    H236602   0.538   3.972   2.860  0.1133  0.2593 -0.2115
 5063TIP3   OH236603   5.139   6.774   2.111  0.1430  0.0185 -0.4202
 5063TIP3    H136604   5.175   6.796   2.025  1.5428 -1.5018 -0.2845
 5063TIP3    H236605   5.195   6.702   2.142 -0.7076  0.1299  1.4973
 5064TIP3   OH236606   2.197   3.897   3.747 -0.2388  0.0140  0.4856
 5064TIP3    H136607   2.254   3.878   3.673  0.1047  0.5185  0.6125
 5064TIP3    H236608   2.254   3.942   3.810 -0.2034 -1.4902  1.5863
 5065TIP3   OH236609   2.652   3.758  12.545  0.2548  0.0234  0.3154
 5065TIP3    H136610   2.680   3.835  12.495  0.9228  0.6539  1.6192
 5065TIP3    H236611   2.574   3.788  12.592  0.3091 -0.2030  0.5480
 5066TIP3   OH236612   1.630   1.032   4.583  0.1540 -0.5903  0.2587
 5066TIP3    H136613   1.666   1.033   4.672  1.4445 -0.4375 -0.2547
 5066TIP3    H236614   1.703   1.007   4.527 -0.3652  0.3868 -0.9002
 5067TIP3   OH236615   5.749   1.431   5.408  1.0244  0.1141 -0.2349
 5067TIP3    H136616   5.844   1.421   5.413  1.1871  0.9626 -1.2611
 5067TIP3    H236617   5.734   1.484   5.330 -0.3658 -0.7853 -0.6217
 5068TIP3   OH236618   1.348   1.875   2.755 -0.4457  0.1761 -0.7400
 5068TIP3    H136619   1.271   1.889   2.810 -0.8019  1.6872 -1.5510
 5068TIP3    H236620   1.416   1.843   2.815 -1.0940  0.8743  0.3990
 5069TIP3   OH236621   4.273   4.941   5.899  0.2679 -0.1462  0.0735
 5069TIP3    H136622   4.342   4.877   5.880  0.3713 -0.2319  0.7189
 5069TIP3    H236623   4.313   5.026   5.878  0.1753 -0.2805 -0.6553
 5070TIP3   OH236624   5.575   5.386  16.755  0.3091 -0.4291 -0.3145
 5070TIP3    H136625   5.606   5.352  16.839 -1.2266 -1.5096 -0.1325
 5070TIP3    H236626   5.487   5.419  16.774  0.4679  0.5520 -1.2226
 5071TIP3   OH236627   4.819   2.962   5.211  0.8993  0.0011  0.3704
 5071TIP3    H136628   4.801   3.012   5.132  0.6567  2.5260  1.9137
 5071TIP3    H236629   4.747   2.899   5.217 -0.7722  1.7863  0.0954
 5072TIP3   OH236630   0.930   6.424   3.950 -0.2012 -0.1744  0.0249
 5072TIP3    H136631   0.878   6.345   3.949 -1.1271  0.4062  0.7076
 5072TIP3    H236632   0.913   6.464   4.035  2.8560 -0.9217  1.1261
 5073TIP3   OH236633   4.508   1.767  14.411  0.6214 -0.1371 -0.4923
 5073TIP3    H136634   4.428   1.765  14.359  0.5862 -0.9748 -0.4222
 5073TIP3    H236635   4.525   1.860  14.426  0.6751  0.1316 -2.0604
 5074TIP3   OH236636   3.405   6.777  16.380  0.1663 -0.0702  0.2755
 5074TIP3    H136637   3.399   6.872  16.379  0.3794 -0.0429  1.0264
 5074TIP3    H236638   3.459   6.755  16.304  1.6864  0.5269  1.1620
 5075TIP3   OH236639   5.840   0.532  15.632  0.1545 -0.0007  0.0937
 5075TIP3    H136640   5.824   0.439  15.651  0.6540  0.1161  1.1714
 5075TIP3    H236641   5.843   0.574  15.718  0.8062  0.8665 -0.3378
 5076TIP3   OH236642   6.148   1.324   2.388  0.1860 -0.6672  0.0868
 5076TIP3    H136643   6.154   1.303   2.295  0.7285  0.7481 -0.2208
 5076TIP3    H236644   6.233   1.361   2.410  0.3409 -1.7329  1.3626
 5077TIP3   OH236645   0.856   4.872  14.124 -0.4345  0.0095 -0.1951
 5077TIP3    H136646   0.877   4.894  14.033  1.6134  0.8523  0.4225
 5077TIP3    H236647   0.773   4.916  14.140 -0.6082  0.2198 -1.5276
 5078TIP3   OH236648   2.241   0.027   5.703 -0.0405  0.4473 -0.1334
 5078TIP3    H136649   2.268  -0.055   5.662 -1.4922  1.4739 -3.4563
 5078TIP3    H236650   2.214   0.002   5.792 -1.9080 -2.9839 -1.4734
 5079TIP3   OH236651   0.774   3.091   0.544 -0.0388  0.3428  0.2801
 5079TIP3    H136652   0.821   3.139   0.476  0.6136  0.2952  0.6913
 5079TIP3    H236653   0.841   3.064   0.606 -0.5384 -0.1886  0.6070
 5080TIP3   OH236654   3.869   4.435  15.059 -0.0568 -0.2372  0.1710
 5080TIP3    H136655   3.877   4.517  15.106 -1.2477 -0.9327  1.6936
 5080TIP3    H236656   3.924   4.374  15.108 -0.1417 -0.6279 -0.2153
 5081TIP3   OH236657   4.205   5.992   1.571 -0.2357 -0.2373 -0.2940
 5081TIP3    H136658   4.216   5.966   1.479 -1.0522  0.7805 -0.7075
 5081TIP3    H236659   4.160   6.077   1.566 -3.5081 -1.7137  1.0982
 5082TIP3   OH236660   6.066   2.515   0.603  0.2575 -0.8301  0.6536
 5082TIP3    H136661   6.115   2.519   0.521  0.0562  0.3356  0.5819
 5082TIP3    H236662   6.043   2.422   0.612  1.0042 -1.1116 -0.1710
 5083TIP3   OH236663   1.409   4.775   4.291 -0.1404  0.0628  0.4077
 5083TIP3    H136664   1.479   4.795   4.354  1.7734  1.5931 -2.0021
 5083TIP3    H236665   1.349   4.850   4.298 -0.3645 -0.1620  0.9403
 5084TIP3   OH236666   4.109   3.676  12.448  0.8396  0.3753  0.1359
 5084TIP3    H136667   4.031   3.632  12.484  0.8857  0.1124 -0.0807
 5084TIP3    H236668   4.137   3.736  12.518  0.9654 -0.1754  0.5722
 5085TIP3   OH236669   3.367   1.938  14.815  0.1122  0.1159 -0.0316
 5085TIP3    H136670   3.309   1.971  14.884  0.2382  0.5022 -0.1089
 5085TIP3    H236671   3.421   2.013  14.791 -1.1780  0.5297 -1.8506
 5086TIP3   OH236672   5.303   0.525   5.027  0.4674  0.0482 -0.7558
 5086TIP3    H136673   5.259   0.440   5.018 -1.3913  0.9613 -0.8764
 5086TIP3    H236674   5.334   0.527   5.118  0.7720 -0.8537 -0.8329
 5087TIP3   OH236675   4.654   2.805  15.946 -0.2574  0.0781  0.4371
 5087TIP3    H136676   4.564   2.830  15.925 -0.0831  0.9136  0.6575
 5087TIP3    H236677   4.651   2.709  15.952 -0.7393 -0.0430 -1.3190
 5088TIP3   OH236678   1.294   2.503   4.068  0.2164 -0.1830 -0.4951
 5088TIP3    H136679   1.316   2.549   4.149  0.2204 -1.2105  0.1071
 5088TIP3    H236680   1.293   2.572   4.001  1.5153  0.4780  0.1234
 5089TIP3   OH236681   0.982   5.981  11.632  0.0867  0.0457 -0.6427
 5089TIP3    H136682   0.900   5.933  11.647  0.2637  0.1345  0.6933
 5089TIP3    H236683   0.997   6.030  11.713  1.5836 -0.1605 -0.7657
 5090TIP3   OH236684   2.139   6.482  15.360  0.0351 -0.0563 -0.0029
 5090TIP3    H136685   2.123   6.427  15.437 -0.8253  1.0596  0.6255
 5090TIP3    H236686   2.109   6.429  15.287 -2.3783  0.1872  0.7430
 5091TIP3   OH236687   5.157   0.126   1.056  0.2888 -0.3429  0.2864
 5091TIP3    H136688   5.235   0.163   1.013  0.1140  0.5720  0.7188
 5091TIP3    H236689   5.181   0.036   1.075  0.8040 -0.4170 -0.6607
 5092TIP3   OH236690   5.106   5.486   5.374 -0.4769  0.1746  0.4187
 5092TIP3    H136691   5.080   5.452   5.288 -1.3473 -2.3310  1.5903
 5092TIP3    H236692   5.032   5.540   5.403 -0.0424  1.3094 -0.4760
 5093TIP3   OH236693   5.331   6.401   4.184  0.1041  0.2617 -0.0302
 5093TIP3    H136694   5.239   6.384   4.203  0.4600 -2.6591 -0.4121
 5093TIP3    H236695   5.330   6.449   4.101 -1.0848 -1.9648 -1.4006
 5094TIP3   OH236696   3.058   0.471   1.558 -0.0433 -1.1277  0.3718
 5094TIP3    H136697   3.077   0.518   1.476 -1.5291  1.0948  1.2231
 5094TIP3    H236698   3.143   0.435   1.585  1.0928  0.7247 -0.5706
 5095TIP3   OH236699   0.586   2.825   4.311  0.8342 -0.3412 -1.1888
 5095TIP3    H136700   0.640   2.873   4.373 -2.3983 -0.0452  1.7471
 5095TIP3    H236701   0.535   2.893   4.266  1.1572 -0.7079 -2.1276
 5096TIP3   OH236702   4.064   5.405   2.940  0.6221  0.6622 -0.3750
 5096TIP3    H136703   4.091   5.402   2.848  0.1985 -0.4080 -0.4767
 5096TIP3    H236704   4.031   5.317   2.958 -2.2999  1.6942 -0.1048
 5097TIP3   OH236705   5.183   1.705   4.406  0.0126  0.3001  0.2990
 5097TIP3    H136706   5.189   1.790   4.363 -1.4029  0.5165  0.4688
 5097TIP3    H236707   5.098   1.707   4.451 -1.5792 -2.3411 -2.2435
 5098TIP3   OH236708   3.511   1.602  12.106  0.0851  0.3885  0.0935
 5098TIP3    H136709   3.559   1.523  12.080  0.6632  0.4881  0.8166
 5098TIP3    H236710   3.535   1.668  12.041  1.9832  0.8072  1.1564
 5099TIP3   OH236711   5.502   3.177  13.315 -0.0989  0.5835  0.0341
 5099TIP3    H136712   5.451   3.123  13.376  0.0027 -0.8885 -1.1226
 5099TIP3    H236713   5.445   3.189  13.239  0.6480  0.3153 -0.5836
 5100TIP3   OH236714   5.053   4.281  15.160 -0.5436  0.7787  0.0277
 5100TIP3    H136715   4.992   4.317  15.225 -0.1418  1.1055  0.2313
 5100TIP3    H236716   5.023   4.317  15.076  0.4943  2.5116  0.3525
 5101TIP3   OH236717   2.437   1.635   0.175  0.1396 -0.3051  0.2090
 5101TIP3    H136718   2.532   1.631   0.175  0.2822  1.3126 -1.8807
 5101TIP3    H236719   2.411   1.581   0.100 -0.3905  1.0953 -0.6657
 5102TIP3   OH236720   3.337   0.926   5.520  0.5976  0.1086  0.5422
 5102TIP3    H136721   3.243   0.910   5.530  0.6917 -0.8031  0.0186
 5102TIP3    H236722   3.345   1.022   5.524 -0.6716  0.4023 -1.9275
 5103TIP3   OH236723   5.052   3.880  12.552  0.0195  0.0136  0.3356
 5103TIP3    H136724   4.992   3.954  12.544  1.4268  1.1480 -0.3804
 5103TIP3    H236725   5.100   3.879  12.469  1.3738 -0.4724  1.0825
 5104TIP3   OH236726   3.330   6.201   4.558  0.5707  0.3654  0.0722
 5104TIP3    H136727   3.336   6.137   4.629  0.7476  0.6218  0.2913
 5104TIP3    H236728   3.328   6.148   4.478 -1.8827 -0.0395  0.3314
 5105TIP3   OH236729   2.891   6.097  14.867 -0.2818 -0.1381  0.3051
 5105TIP3    H136730   2.843   6.057  14.795  1.1404 -0.8509 -0.3000
 5105TIP3    H236731   2.853   6.058  14.946 -2.3532  1.2080  0.0279
 5106TIP3   OH236732   5.449   6.272  17.096 -0.4882  0.2264 -0.7671
 5106TIP3    H136733   5.516   6.255  17.162 -1.5956  0.9663  0.6056
 5106TIP3    H236734   5.490   6.334  17.035  1.0741 -1.6216 -1.7192
 5107TIP3   OH236735   1.398   5.863  13.670  0.1031 -0.2509  0.0043
 5107TIP3    H136736   1.458   5.873  13.596  0.4466 -0.6919  0.2145
 5107TIP3    H236737   1.355   5.949  13.678 -0.2664 -0.3321 -0.9733
 5108TIP3   OH236738   6.772   2.997   2.364 -0.1554 -0.8855 -0.7433
 5108TIP3    H136739   6.801   3.029   2.450 -0.6439  0.7495 -1.1475
 5108TIP3    H236740   6.800   3.065   2.303 -0.9679 -1.3933 -1.7097
 5109TIP3   OH236741   5.083   6.356  11.581 -0.5222  0.4182  0.3932
 5109TIP3    H136742   5.065   6.287  11.518  0.8052 -1.2761  1.7732
 5109TIP3    H236743   5.069   6.438  11.532  0.2326 -0.8055 -2.0035
 5110TIP3   OH236744   1.789   0.449   4.277 -0.2699 -0.3628  0.5885
 5110TIP3    H136745   1.760   0.413   4.361 -0.7537 -3.1932 -0.6766
 5110TIP3    H236746   1.880   0.422   4.270  0.6095  2.1262  1.2563
 5111TIP3   OH236747   6.451   4.612  16.629  0.1498 -0.4733 -0.6532
 5111TIP3    H136748   6.356   4.623  16.619  0.2734  0.5441 -0.8774
 5111TIP3    H236749   6.488   4.691  16.589  1.1017 -0.9596 -0.7525
 5112TIP3   OH236750   3.314   4.111   1.630  0.5714 -0.1394  0.1231
 5112TIP3    H136751   3.308   4.130   1.537 -1.0249 -3.3942 -0.5861
 5112TIP3    H236752   3.234   4.147   1.668  0.4710 -0.1623 -0.0655
 5113TIP3   OH236753   2.849   3.816   5.494  0.7256  0.2133 -0.1512
 5113TIP3    H136754   2.927   3.783   5.540 -0.2218 -0.7139  0.8407
 5113TIP3    H236755   2.848   3.768   5.412  1.8057  1.0627 -0.7003
 5114TIP3   OH236756   4.821   0.047   5.064  0.0032  0.0574 -0.4193
 5114TIP3    H136757   4.840   0.100   5.141 -0.4850  0.5698 -0.6468
 5114TIP3    H236758   4.726   0.035   5.066 -0.0571  0.3901 -1.1457
 5115TIP3   OH236759   4.882   0.928   1.859  0.2502  1.1172  0.3427
 5115TIP3    H136760   4.873   0.878   1.939  1.2850  0.7845  0.2625
 5115TIP3    H236761   4.906   1.016   1.888  1.8549  0.6942  0.3796
 5116TIP3   OH236762   1.397   0.220   1.568 -0.2258  0.6749  0.0303
 5116TIP3    H136763   1.429   0.287   1.628 -0.0115 -1.0540  1.9824
 5116TIP3    H236764   1.344   0.268   1.504  1.6289  2.9079  0.0607
 5117TIP3   OH236765   3.786   0.594   1.713  0.0667 -0.0278  0.1679
 5117TIP3    H136766   3.735   0.516   1.690  0.7001 -0.0628 -1.2506
 5117TIP3    H236767   3.726   0.667   1.698  0.4369 -0.0572 -1.6644
 5118TIP3   OH236768   6.190   6.662  13.537 -0.0871 -0.2020 -0.0651
 5118TIP3    H136769   6.247   6.596  13.577 -0.4754 -0.6164 -0.1774
 5118TIP3    H236770   6.177   6.632  13.447  1.9149  1.4767 -0.9711
 5119TIP3   OH236771   1.070   2.566   5.311  0.5058  0.2347 -0.0364
 5119TIP3    H136772   1.030   2.532   5.391 -1.7497  0.2076 -1.1062
 5119TIP3    H236773   1.164   2.573   5.332 -0.1055  1.0449  2.8662
 5120TIP3   OH236774   3.249   5.272  10.889 -0.6347  0.9000 -0.2330
 5120TIP3    H136775   3.218   5.267  10.979  0.7072 -0.8412  0.1831
 5120TIP3    H236776   3.343   5.284  10.897 -0.1973 -1.3892 -1.3492
 5121TIP3   OH236777   1.019   1.543   3.829 -0.1288  0.2581  0.3466
 5121TIP3    H136778   1.058   1.629   3.813 -1.0689  0.7135  0.4223
 5121TIP3    H236779   1.004   1.541   3.924  0.7695 -0.3861  0.4876
 5122TIP3   OH236780   3.844   3.129  14.673 -0.1513  0.2708  0.9046
 5122TIP3    H136781   3.753   3.135  14.703 -0.0714 -0.0228  1.2144
 5122TIP3    H236782   3.875   3.045  14.707  0.2278  0.3557  0.7749
 5123TIP3   OH236783   3.710   1.082   0.757  0.4130 -0.7985 -0.3420
 5123TIP3    H136784   3.642   1.118   0.700  0.1078 -0.1727  0.4016
 5123TIP3    H236785   3.792   1.119   0.724  0.2615 -0.6138 -0.5103
 5124TIP3   OH236786   6.462   6.632   4.289 -0.1483  0.0476  0.1765
 5124TIP3    H136787   6.506   6.708   4.251 -1.7059  1.4651  1.1253
 5124TIP3    H236788   6.400   6.604   4.222 -1.2123  1.0855  0.6897
 5125TIP3   OH236789   4.929   3.686   4.662 -0.0754  0.2552 -0.0524
 5125TIP3    H136790   4.859   3.749   4.681 -1.0830 -0.7647 -0.2979
 5125TIP3    H236791   4.955   3.706   4.573 -0.0223  0.6619  0.0513
 5126TIP3   OH236792   1.481   6.523   3.740  0.5470 -0.4306 -0.2981
 5126TIP3    H136793   1.393   6.539   3.706 -0.4854 -1.3243  1.7760
 5126TIP3    H236794   1.538   6.580   3.687 -1.0888 -0.6145 -2.4019
 5127TIP3   OH236795   6.742   1.993   0.710 -0.2818  0.4346  1.1440
 5127TIP3    H136796   6.685   1.922   0.680 -0.2715  1.0122 -0.3092
 5127TIP3    H236797   6.760   1.972   0.802  0.1525 -1.7410  0.6238
 5128TIP3   OH236798   0.411   1.916   4.415  0.7796  0.0301 -0.1455
 5128TIP3    H136799   0.410   1.833   4.461  0.0266  0.9208  1.5469
 5128TIP3    H236800   0.502   1.944   4.417  0.7522  0.0916  0.9254
 5129TIP3   OH236801   0.960   0.583  14.769  0.5504  0.3270  0.4467
 5129TIP3    H136802   0.883   0.631  14.800  0.1708 -0.6027  0.9781
 5129TIP3    H236803   0.979   0.521  14.840  0.9806 -0.3618 -0.2641
 5130TIP3   OH236804   0.520   2.439  14.018 -0.1798  0.0502 -0.1222
 5130TIP3    H136805   0.467   2.433  13.939  0.6572  1.8053 -0.8605
 5130TIP3    H236806   0.463   2.481  14.082  0.0008  1.1523 -0.6559
 5131TIP3   OH236807   2.252   5.618  15.996  0.1264  0.1283 -0.2519
 5131TIP3    H136808   2.341   5.606  16.029  0.1246  1.7812  0.4183
 5131TIP3    H236809   2.258   5.694  15.938 -0.5639 -0.6760 -1.4312
 5132TIP3   OH236810   3.968   0.921   0.808 -0.1420  0.0848 -0.4048
 5132TIP3    H136811   3.876   0.942   0.791 -1.0282  0.7735  4.1185
 5132TIP3    H236812   3.969   0.826   0.815 -0.4363  0.0578 -0.6701
 5133TIP3   OH236813   3.637   3.395  13.896  0.3043  0.5564 -0.4147
 5133TIP3    H136814   3.621   3.455  13.968 -0.3668 -1.7981  1.5430
 5133TIP3    H236815   3.718   3.349  13.920 -0.3487 -0.8103 -0.7222
 5134TIP3   OH236816   0.588   0.572  10.559 -0.0152  0.1180 -0.3077
 5134TIP3    H136817   0.652   0.580  10.488  2.1903  0.0782  1.5245
 5134TIP3    H236818   0.504   0.559  10.515  1.2052  0.2047 -2.8702
 5135TIP3   OH236819   5.923   6.675   2.826  0.2059 -0.3543 -0.3328
 5135TIP3    H136820   5.886   6.605   2.772 -1.8036  0.4263 -0.0664
 5135TIP3    H236821   5.947   6.744   2.764  1.8267 -1.0777 -0.5588
 5136TIP3   OH236822   5.227   4.982   1.542 -0.3192  0.6816  0.2564
 5136TIP3    H136823   5.251   4.937   1.461 -1.9417  0.6387 -0.2343
 5136TIP3    H236824   5.219   5.074   1.517  1.7790  1.1174  0.9883
 5137TIP3   OH236825   3.704   6.028   1.867 -0.0263  0.2483  0.3112
 5137TIP3    H136826   3.666   5.942   1.886  0.2774 -0.3188 -1.4942
 5137TIP3    H236827   3.629   6.081   1.841 -0.0409  0.1591  0.1707
 5138TIP3   OH236828   0.328   1.353  15.809  0.1811  0.1428 -0.2855
 5138TIP3    H136829   0.239   1.332  15.835 -0.3353  1.5369 -0.8251
 5138TIP3    H236830   0.330   1.449  15.805  1.0641  0.0933 -2.4847
 5139TIP3   OH236831   4.105   3.553  14.830  0.2213  0.2043  0.2042
 5139TIP3    H136832   4.073   3.548  14.921 -2.5590 -1.4110 -0.7277
 5139TIP3    H236833   4.132   3.644  14.819  2.7514 -0.0364  3.2340
 5140TIP3   OH236834   0.727   3.343   0.928 -0.3209  0.0765  0.0898
 5140TIP3    H136835   0.647   3.335   0.876 -0.2142  1.0678 -0.2490
 5140TIP3    H236836   0.768   3.424   0.897  0.5544 -0.1478  0.6177
 5141TIP3   OH236837   2.256   6.715   1.685 -0.1829  0.1554 -0.4029
 5141TIP3    H136838   2.234   6.720   1.592  1.0655  3.8836 -0.6671
 5141TIP3    H236839   2.185   6.762   1.729  0.2065  0.0807  0.3194
 5142TIP3   OH236840   6.750   6.654   0.841  0.1770  0.3780 -0.0254
 5142TIP3    H136841   6.770   6.710   0.766  0.2261 -0.3849 -0.6020
 5142TIP3    H236842   6.705   6.711   0.903 -0.5318  0.8528 -0.9569
 5143TIP3   OH236843   5.750   4.049  14.819  0.2893  0.3237  0.1760
 5143TIP3    H136844   5.713   4.116  14.762 -0.5032 -1.1206 -1.0764
 5143TIP3    H236845   5.839   4.036  14.786  0.3300  0.5178  0.2078
 5144TIP3   OH236846   6.121   4.798  13.260 -0.6384  0.0163  0.1122
 5144TIP3    H136847   6.142   4.756  13.343 -0.4259 -1.4013 -0.6257
 5144TIP3    H236848   6.197   4.852  13.239 -0.2892 -0.3721  0.3802
 5145TIP3   OH236849   3.925   3.927   6.706  0.3057  0.1386  0.1012
 5145TIP3    H136850   3.982   3.850   6.703  2.1874  1.4869 -1.7641
 5145TIP3    H236851   3.837   3.892   6.698  0.9924 -1.8956  0.7221
 5146TIP3   OH236852   1.342   4.492  11.451 -0.4010 -0.3608 -0.2970
 5146TIP3    H136853   1.380   4.473  11.537  1.5001 -0.3393 -1.0823
 5146TIP3    H236854   1.258   4.533  11.470  0.0888 -0.1434  1.5568
 5147TIP3   OH236855   2.034   0.433  15.837  0.7951 -0.0307  0.3017
 5147TIP3    H136856   2.070   0.355  15.794  0.7696  0.6712 -1.0645
 5147TIP3    H236857   2.042   0.415  15.930  2.0966 -1.0816  0.0254
 5148TIP3   OH236858   6.785   4.887  17.079 -0.1988  0.1221 -0.3515
 5148TIP3    H136859   6.843   4.945  17.030  0.4762 -0.6757 -0.5411
 5148TIP3    H236860   6.811   4.799  17.051 -0.7352 -0.2968  0.4219
 5149TIP3   OH236861   1.615   0.499  14.369  0.7081  0.0941 -0.4052
 5149TIP3    H136862   1.625   0.441  14.444 -0.6005 -0.2219 -0.4387
 5149TIP3    H236863   1.520   0.507  14.358  0.8714  1.3352 -1.1054
 5150TIP3   OH236864   5.593   3.704  14.229 -0.2782  0.0349  0.0324
 5150TIP3    H136865   5.513   3.653  14.228  0.2115 -0.7499 -0.7510
 5150TIP3    H236866   5.603   3.733  14.320 -1.7238  0.6181  0.0270
 5151TIP3   OH236867   0.003   4.879  11.645  0.1921 -0.3929  0.1879
 5151TIP3    H136868  -0.014   4.969  11.672  0.8455 -0.5911  1.2942
 5151TIP3    H236869   0.095   4.864  11.665  0.4190 -0.9235 -1.1357
 5152TIP3   OH236870   4.643   3.583  17.227 -0.0593  0.2573 -0.0372
 5152TIP3    H136871   4.609   3.542  17.147 -0.0141  0.3074 -0.0824
 5152TIP3    H236872   4.577   3.565  17.293  0.9678 -1.8399  0.5171
 5153TIP3   OH236873   4.325   4.953   3.678 -0.2675 -0.0375 -0.1433
 5153TIP3    H136874   4.246   4.969   3.730  0.4399  0.5128  0.7851
 5153TIP3    H236875   4.393   5.006   3.719  1.1728 -2.2376  0.5330
 5154TIP3   OH236876   1.287   1.323  17.235 -0.1601  0.5317  0.0437
 5154TIP3    H136877   1.200   1.351  17.264  0.6279  2.7653  0.4177
 5154TIP3    H236878   1.334   1.304  17.316 -0.4194 -1.2507 -0.1763
 5155TIP3   OH236879   0.094   6.450  15.701 -0.1902 -0.1491  0.0269
 5155TIP3    H136880   0.083   6.545  15.694  2.3849  0.1386 -1.1208
 5155TIP3    H236881   0.023   6.414  15.648 -1.4405  1.0866  0.7909
 5156TIP3   OH236882   3.393   0.980  14.722  0.0593 -0.3759 -0.1897
 5156TIP3    H136883   3.454   1.007  14.654 -0.5623 -0.7828 -0.9180
 5156TIP3    H236884   3.309   1.019  14.697 -0.6361 -2.1326 -0.7402
 5157TIP3   OH236885   4.171   2.589   0.699 -0.0792  0.2928  0.0506
 5157TIP3    H136886   4.230   2.518   0.674  0.4861  0.6548  0.3571
 5157TIP3    H236887   4.201   2.617   0.785 -2.0040 -0.9358  1.1993
 5158TIP3   OH236888   1.797   5.759   1.872  0.2767 -0.0003  0.2131
 5158TIP3    H136889   1.755   5.673   1.863 -0.9844  0.6471 -0.3753
 5158TIP3    H236890   1.750   5.801   1.943  1.7459 -0.2544  1.3758
 5159TIP3   OH236891   5.549   1.964  11.594  0.1383 -0.0117 -0.3060
 5159TIP3    H136892   5.506   1.897  11.647 -0.8738  2.0037  1.6312
 5159TIP3    H236893   5.628   1.987  11.644 -0.3153  1.2422 -0.1277
 5160TIP3   OH236894   1.779   5.647  14.484 -0.7468  1.0893  0.0821
 5160TIP3    H136895   1.785   5.732  14.440  1.9312  0.9432  0.0176
 5160TIP3    H236896   1.725   5.593  14.426 -1.6334  2.4141 -0.3780
 5161TIP3   OH236897   5.825   5.939  16.783  0.2582 -0.0691  0.5189
 5161TIP3    H136898   5.868   5.902  16.860  0.6971 -0.7497 -0.0388
 5161TIP3    H236899   5.767   6.007  16.817  1.5302  0.6351  1.3201
 5162TIP3   OH236900   2.940   2.005  10.516  0.9342  0.7956 -0.1977
 5162TIP3    H136901   2.914   2.006  10.608 -1.2122  2.2572 -0.7584
 5162TIP3    H236902   2.969   2.095  10.498 -0.4489  1.0334 -1.3899
 5163TIP3   OH236903   0.501   1.455   5.410  0.1815 -0.5459 -0.1310
 5163TIP3    H136904   0.503   1.547   5.384 -0.9026 -0.2365  0.7470
 5163TIP3    H236905   0.491   1.406   5.328 -2.5336  0.3468 -0.4339
 5164TIP3   OH236906   4.677   4.650   5.711 -0.4418 -0.3367 -0.1979
 5164TIP3    H136907   4.646   4.669   5.622 -0.4361 -1.6831 -0.5009
 5164TIP3    H236908   4.666   4.556   5.721  0.7263 -0.3958  0.7788
 5165TIP3   OH236909   1.898   2.456  12.038 -0.1623 -0.1336 -0.2501
 5165TIP3    H136910   1.880   2.549  12.047 -0.2525 -0.2471  0.8881
 5165TIP3    H236911   1.982   2.452  11.992 -0.1994  0.4950 -0.3784
 5166TIP3   OH236912   5.240   6.447   1.955 -0.6026  0.8505  0.5483
 5166TIP3    H136913   5.227   6.483   2.043  1.9773  0.1079  1.3144
 5166TIP3    H236914   5.296   6.371   1.969  1.4195  1.7687 -1.9014
 5167TIP3   OH236915   2.660   6.342   0.386 -0.1157 -0.1252 -0.3484
 5167TIP3    H136916   2.564   6.337   0.391 -0.0237 -0.8846  1.1973
 5167TIP3    H236917   2.680   6.433   0.408 -0.4613 -0.0204 -0.4491
 5168TIP3   OH236918   5.053   1.816  12.065  0.1178 -0.0240 -0.3618
 5168TIP3    H136919   5.064   1.766  12.146  1.9552 -0.2433 -0.7052
 5168TIP3    H236920   5.120   1.884  12.069  2.6198 -2.0575 -3.1251
 5169TIP3   OH236921   5.253   5.058   4.341  0.8069  0.2774  0.1176
 5169TIP3    H136922   5.237   5.057   4.247  0.1984 -2.0998  0.1966
 5169TIP3    H236923   5.198   4.988   4.376  0.2946  1.6993  2.3922
 5170TIP3   OH236924   5.417   5.171  12.689 -0.1298  0.0497 -0.0065
 5170TIP3    H136925   5.507   5.182  12.718 -0.7446  0.4066  1.8991
 5170TIP3    H236926   5.385   5.095  12.738 -1.4955  1.2354  1.0446
 5171TIP3   OH236927   4.547   1.174   6.530  0.0170  0.2758  0.4927
 5171TIP3    H136928   4.639   1.178   6.504 -0.0176 -2.1538 -0.1753
 5171TIP3    H236929   4.504   1.239   6.475  1.1536  0.6420 -0.0016
 5172TIP3   OH236930   5.390   3.646  12.433  0.4509 -0.1918 -0.2091
 5172TIP3    H136931   5.311   3.700  12.438  0.3819 -0.3886  1.8244
 5172TIP3    H236932   5.363   3.568  12.385 -0.5784 -0.1863  0.3272
 5173TIP3   OH236933   4.393   2.058   2.630 -0.4474 -0.3891 -0.2970
 5173TIP3    H136934   4.403   1.991   2.698 -0.1947  0.6453  0.7304
 5173TIP3    H236935   4.308   2.041   2.591 -1.0764 -0.3814  1.0261
 5174TIP3   OH236936   6.788   0.887   4.736 -0.1362 -0.2501 -0.5094
 5174TIP3    H136937   6.874   0.860   4.705  0.8777  0.5932  1.3803
 5174TIP3    H236938   6.770   0.830   4.810 -0.4048  0.6714  0.1607
 5175TIP3   OH236939   0.116   0.014  15.959  0.4227  0.5646  0.5604
 5175TIP3    H136940   0.201  -0.023  15.937  0.2747 -0.2091  1.2569
 5175TIP3    H236941   0.135   0.105  15.985  1.0807  0.3004  1.0289
 5176TIP3   OH236942   1.406   2.362   1.768 -0.5070 -0.2902  0.0314
 5176TIP3    H136943   1.391   2.452   1.741 -3.4448 -1.2273 -1.9033
 5176TIP3    H236944   1.426   2.315   1.686 -2.9018 -2.0388  0.3501
 5177TIP3   OH236945   6.010   0.930   5.122  0.4873 -0.5129  0.2186
 5177TIP3    H136946   6.105   0.934   5.122  0.4650  0.1109  0.4062
 5177TIP3    H236947   5.984   0.957   5.210  0.0875  0.8723 -0.2943
 5178TIP3   OH236948   3.563   0.530  12.718 -0.0983 -0.0202 -0.0506
 5178TIP3    H136949   3.541   0.493  12.633  1.2591  0.6369 -0.7266
 5178TIP3    H236950   3.571   0.624  12.703  2.2088 -0.0878  0.2600
 5179TIP3   OH236951   4.750   1.495   6.154  0.3007  0.0341 -0.2870
 5179TIP3    H136952   4.797   1.520   6.074  1.6916  1.2117  0.8415
 5179TIP3    H236953   4.674   1.554   6.156  1.5728  1.7312  0.4591
 5180TIP3   OH236954   3.136   1.511  12.329 -0.2474 -0.6803  0.1360
 5180TIP3    H136955   3.227   1.541  12.340 -0.8398  1.5058 -0.3304
 5180TIP3    H236956   3.126   1.501  12.234 -0.7834  0.2053  0.0849
 5181TIP3   OH236957   1.601   6.608  10.405  0.1247  0.2053  0.2569
 5181TIP3    H136958   1.672   6.582  10.463 -0.1749  0.2777  0.6612
 5181TIP3    H236959   1.550   6.528  10.393  0.1724  0.1963  0.1123
 5182TIP3   OH236960   5.572   4.335   4.976 -0.1212  0.6908 -0.1595
 5182TIP3    H136961   5.544   4.353   4.887  0.6007 -0.6114 -0.6702
 5182TIP3    H236962   5.491   4.315   5.023 -0.6042  2.2309 -0.2846
 5183TIP3   OH236963   6.397   3.454  15.876 -0.8315 -0.0429 -0.1081
 5183TIP3    H136964   6.420   3.533  15.925  2.5827 -0.2025 -1.1934
 5183TIP3    H236965   6.428   3.382  15.930  1.5142 -0.2787 -1.5988
 5184TIP3   OH236966   3.326   0.130  14.864 -0.1507 -0.3379 -0.1332
 5184TIP3    H136967   3.314   0.127  14.769  1.0659  1.1160 -0.3662
 5184TIP3    H236968   3.270   0.060  14.897 -0.0933 -1.3058 -1.9618
 5185TIP3   OH236969   2.714   3.361   6.184 -0.5489  0.0827  0.4901
 5185TIP3    H136970   2.729   3.301   6.256  1.2019 -0.7245 -0.4929
 5185TIP3    H236971   2.786   3.423   6.189  0.2757 -0.6793 -1.2286
 5186TIP3   OH236972   5.921   2.811   5.009 -0.2351  0.6374  0.1731
 5186TIP3    H136973   5.863   2.807   5.085 -1.5603 -2.6494 -0.8101
 5186TIP3    H236974   5.999   2.761   5.035 -0.4831 -0.0761 -0.4146
 5187TIP3   OH236975   4.509   2.059   1.919 -0.1733  0.2492  0.4703
 5187TIP3    H136976   4.430   2.113   1.918 -0.8860 -0.7867  0.3447
 5187TIP3    H236977   4.487   1.984   1.974 -0.5288 -1.8761 -2.3957
 5188TIP3   OH236978   5.600   2.039   1.206  0.4413 -0.1461  0.0254
 5188TIP3    H136979   5.580   1.945   1.210 -0.2507  0.0134  2.6468
 5188TIP3    H236980   5.633   2.059   1.294 -0.7714  2.3229 -0.0128
 5189TIP3   OH236981   3.805   2.123  11.825 -0.2733  0.0864  0.4557
 5189TIP3    H136982   3.816   2.167  11.741 -1.9357 -0.5554 -0.1451
 5189TIP3    H236983   3.718   2.149  11.855  0.1841  0.0906  1.8591
 5190TIP3   OH236984   3.319   6.317   5.714  0.0521 -1.1124  0.6701
 5190TIP3    H136985   3.259   6.247   5.688  0.2271 -1.2087  0.5165
 5190TIP3    H236986   3.401   6.296   5.668 -0.0347 -0.5438  0.2538
 5191TIP3   OH236987   0.065   5.481  12.246 -0.5020 -0.1306 -0.7232
 5191TIP3    H136988   0.004   5.501  12.176  0.2128  0.3668 -1.2109
 5191TIP3    H236989   0.031   5.400  12.285  0.1595 -1.5690 -2.9172
 5192TIP3   OH236990   5.310   5.068  15.769  0.4473  0.0921  0.0768
 5192TIP3    H136991   5.227   5.027  15.792 -0.9513  2.6939  0.1003
 5192TIP3    H236992   5.337   5.027  15.687 -0.6397 -1.0884  0.2977
 5193TIP3   OH236993   4.325   0.561   3.924 -0.5319  0.1000  0.3184
 5193TIP3    H136994   4.386   0.634   3.913  0.6047 -1.0333 -1.5233
 5193TIP3    H236995   4.303   0.561   4.017  1.5986  1.1207  0.8817
 5194TIP3   OH236996   5.260   6.565   2.238 -0.0670  0.2539 -0.6803
 5194TIP3    H136997   5.276   6.477   2.273 -0.8918  1.2563  2.5810
 5194TIP3    H236998   5.323   6.621   2.283 -2.9457  2.0345  1.5370
 5195TIP3   OH236999   6.274   6.112   0.508 -0.4825  0.0665  0.1613
 5195TIP3    H137000   6.233   6.108   0.594 -0.0085 -0.1776  0.3772
 5195TIP3    H237001   6.272   6.022   0.476  0.0376  0.0239  0.2449
 5196TIP3   OH237002   3.723   6.304  13.779  0.9387  0.1672 -0.0888
 5196TIP3    H137003   3.781   6.357  13.725 -0.1625  1.8186  0.2854
 5196TIP3    H237004   3.746   6.326  13.869  0.4283  0.0682  0.0695
 5197TIP3   OH237005   4.115   1.474  13.917  0.2127 -0.9801  0.3056
 5197TIP3    H137006   4.177   1.431  13.858  1.0946 -0.0583  0.5413
 5197TIP3    H237007   4.169   1.528  13.974 -0.9375  1.6356 -0.9240
 5198TIP3   OH237008   0.320   6.380  16.218 -0.2010  0.7047  0.0895
 5198TIP3    H137009   0.311   6.293  16.179  0.9423 -0.3419  1.9947
 5198TIP3    H237010   0.235   6.421  16.204 -0.4354 -0.2800 -1.7936
 5199TIP3   OH237011   3.268   1.254  13.723 -0.2215  0.4590 -0.2312
 5199TIP3    H137012   3.310   1.208  13.796 -1.9391  0.1532  0.6117
 5199TIP3    H237013   3.206   1.314  13.765 -3.9337 -2.2368 -1.3436
 5200TIP3   OH237014   1.291   2.617  14.648 -0.1101 -0.0192 -0.2345
 5200TIP3    H137015   1.313   2.629  14.556 -2.9345  1.6948 -0.8129
 5200TIP3    H237016   1.323   2.696  14.691 -0.0019 -0.1901  0.0031
 5201TIP3   OH237017   0.094   2.564  11.847 -0.0639  0.2960 -0.1991
 5201TIP3    H137018   0.135   2.566  11.761  0.5552  0.5164  0.0985
 5201TIP3    H237019   0.055   2.477  11.853  3.1114 -1.2133  0.7773
 5202TIP3   OH237020   0.032   5.240  12.423 -0.1880 -0.1335 -0.2561
 5202TIP3    H137021   0.124   5.221  12.442 -0.2838 -0.4876 -0.1416
 5202TIP3    H237022  -0.004   5.273  12.505 -0.4460 -1.0758  0.0206
 5203TIP3   OH237023   6.588   2.058  12.752 -0.0177 -0.2211  0.1449
 5203TIP3    H137024   6.616   2.149  12.756  2.3524 -0.8210 -0.9378
 5203TIP3    H237025   6.493   2.062  12.740 -0.0156  2.0784  0.5658
 5204TIP3   OH237026   0.350   1.845  16.628 -0.9878 -0.5016  0.4809
 5204TIP3    H137027   0.258   1.857  16.651 -0.3787 -0.1217  2.9586
 5204TIP3    H237028   0.396   1.849  16.711  1.3178 -0.4562 -0.7346
 5205TIP3   OH237029   2.229   6.621   1.387  0.6812 -0.6156 -0.2524
 5205TIP3    H137030   2.204   6.532   1.361  0.1821 -0.4244 -0.4451
 5205TIP3    H237031   2.201   6.676   1.314  1.6873 -0.3857 -0.4712
 5206TIP3   OH237032   4.249   4.935  16.510 -0.1257  0.0382 -0.2830
 5206TIP3    H137033   4.184   4.948  16.579  1.2451 -1.2523  1.3543
 5206TIP3    H237034   4.319   4.996  16.533 -0.0075  0.1839 -1.0228
 5207TIP3   OH237035   1.456   6.470   4.663  0.2303 -1.0609  0.4166
 5207TIP3    H137036   1.367   6.460   4.698  0.3046 -1.8493  0.3966
 5207TIP3    H237037   1.444   6.469   4.568  0.2340 -0.9294  0.4150
 5208TIP3   OH237038   4.971   5.348  14.710  0.6694  0.0707  0.1337
 5208TIP3    H137039   5.065   5.351  14.698  0.4719 -0.1962 -1.9589
 5208TIP3    H237040   4.948   5.256  14.696  0.0205  0.2984 -0.4081
 5209TIP3   OH237041   1.595   3.712   2.106 -0.1938 -0.2392 -0.4101
 5209TIP3    H137042   1.605   3.767   2.184 -0.7634  0.3188 -0.7204
 5209TIP3    H237043   1.505   3.680   2.111 -0.0618 -0.6414 -0.5637
 5210TIP3   OH237044   5.397   1.384  16.342 -0.1727 -0.0351 -0.1318
 5210TIP3    H137045   5.488   1.413  16.351  0.6396 -2.3219 -0.3386
 5210TIP3    H237046   5.402   1.304  16.290 -2.3706  0.0121 -0.5206
 5211TIP3   OH237047   5.673   2.991  12.247 -0.4411 -0.0828  0.0240
 5211TIP3    H137048   5.717   3.034  12.321  0.4904  1.2747 -1.2590
 5211TIP3    H237049   5.594   2.954  12.285  0.1695  0.2975  1.7685
 5212TIP3   OH237050   1.370   4.738   3.561  0.0959 -0.9152 -0.4717
 5212TIP3    H137051   1.441   4.681   3.589  0.6785  0.3143  0.6225
 5212TIP3    H237052   1.300   4.678   3.536  0.7432 -2.1079  0.4800
 5213TIP3   OH237053   6.132   4.685  12.476 -0.0790 -0.3385  0.3231
 5213TIP3    H137054   6.156   4.600  12.513 -3.4794 -1.4538  0.3621
 5213TIP3    H237055   6.072   4.723  12.540 -1.1276  0.5980 -1.1405
 5214TIP3   OH237056   3.019   2.808  10.885 -0.2093 -0.6887 -0.1663
 5214TIP3    H137057   2.944   2.776  10.935 -0.6031 -0.8167 -0.8347
 5214TIP3    H237058   3.010   2.768  10.799  0.0701  0.0948 -0.5720
 5215TIP3   OH237059   2.927   3.822  12.831 -0.4852 -0.1718  0.4247
 5215TIP3    H137060   2.898   3.735  12.859  1.2455 -0.8787  0.1332
 5215TIP3    H237061   2.956   3.865  12.911 -3.2594  1.0034  0.9241
 5216TIP3   OH237062   6.626   4.568   4.290  0.3004 -0.5423  0.1705
 5216TIP3    H137063   6.606   4.657   4.320  0.6993 -0.4323  0.1168
 5216TIP3    H237064   6.558   4.548   4.226 -0.3974 -0.6706  0.9241
 5217TIP3   OH237065   1.535   6.107   2.354  0.4043  0.4892  0.8493
 5217TIP3    H137066   1.597   6.037   2.336  2.6935  2.1052  1.9110
 5217TIP3    H237067   1.509   6.093   2.445  0.1643  0.5082  0.7841
 5218TIP3   OH237068   0.059   5.350  11.651  0.1955 -0.4262 -0.2918
 5218TIP3    H137069  -0.008   5.282  11.638  0.3920 -0.3770 -1.7902
 5218TIP3    H237070   0.140   5.309  11.619 -0.1227  1.2951 -3.8168
 5219TIP3   OH237071   2.385   0.333   0.621  0.0840  0.3652  0.0219
 5219TIP3    H137072   2.328   0.397   0.578 -0.5193  1.9222  2.8560
 5219TIP3    H237073   2.473   0.357   0.594 -0.3463  0.1705 -1.6448
 5220TIP3   OH237074   6.700   1.236  12.354  0.4392 -0.7887  0.4658
 5220TIP3    H137075   6.750   1.155  12.362  1.6396 -0.1254 -0.0155
 5220TIP3    H237076   6.652   1.243  12.436 -0.6160 -2.5633  0.0665
 5221TIP3   OH237077   4.293   6.085  14.485  0.4886 -0.0757  0.1330
 5221TIP3    H137078   4.238   6.017  14.523  0.8401  0.0336  0.8640
 5221TIP3    H237079   4.243   6.118  14.411  0.6733 -1.6757 -0.7395
 5222TIP3   OH237080   5.285   6.548   1.010  0.0176  0.3458 -0.0712
 5222TIP3    H137081   5.328   6.615   1.063  1.1638 -0.2699 -0.1932
 5222TIP3    H237082   5.245   6.596   0.938  1.7939  0.8084 -0.7973
 5223TIP3   OH237083   3.089   4.766   2.834  0.2296 -0.3992  0.4796
 5223TIP3    H137084   3.019   4.730   2.780 -0.3673  0.0692  0.9300
 5223TIP3    H237085   3.170   4.737   2.791 -0.2345 -0.4009 -0.4087
 5224TIP3   OH237086   5.670   2.445  13.013 -0.0527  0.5053  0.0365
 5224TIP3    H137087   5.673   2.533  12.977  0.3008  1.1767  1.6491
 5224TIP3    H237088   5.761   2.424  13.034  0.2693 -1.2574 -2.5483
 5225TIP3   OH237089   1.106   3.241   6.102 -0.1746 -0.2903 -0.1080
 5225TIP3    H137090   1.050   3.295   6.046  1.8988  0.5161 -1.5054
 5225TIP3    H237091   1.071   3.254   6.190 -0.0835  2.9935 -0.4405
 5226TIP3   OH237092   4.516   4.888   6.344 -0.4801 -0.2060  0.1251
 5226TIP3    H137093   4.579   4.933   6.287 -0.3031  0.8279  1.0969
 5226TIP3    H237094   4.536   4.795   6.332  1.3490  0.0928  0.5187
 5227TIP3   OH237095   1.357   3.277  13.704  0.1556  0.3142  0.9503
 5227TIP3    H137096   1.386   3.226  13.628 -0.7827 -1.1526  1.5282
 5227TIP3    H237097   1.350   3.367  13.672 -0.1073 -0.2567 -0.6655
 5228TIP3   OH237098   6.052   1.660  13.335 -0.1787  0.0936 -0.0726
 5228TIP3    H137099   6.110   1.639  13.261 -0.6396  0.6758 -0.6131
 5228TIP3    H237100   6.020   1.575  13.364 -0.3568 -0.1190 -0.8558
 5229TIP3   OH237101   4.850   3.926  14.280 -0.4540 -0.1503 -0.4652
 5229TIP3    H137102   4.806   4.010  14.291  0.1452 -0.0640  1.7084
 5229TIP3    H237103   4.943   3.947  14.281 -0.3019 -0.7777 -0.7570
 5230TIP3   OH237104   3.037   3.806  13.955  0.1240 -0.0107 -0.0996
 5230TIP3    H137105   3.047   3.754  13.875  0.7933 -1.9390  1.1661
 5230TIP3    H237106   3.111   3.780  14.010  0.2422  2.0092  0.7911
 5231TIP3   OH237107   6.140   3.237  14.894  0.8182  0.4117  0.6013
 5231TIP3    H137108   6.059   3.203  14.933 -0.3981  1.0795 -1.1923
 5231TIP3    H237109   6.165   3.310  14.950 -1.5438  2.1087 -0.3516
 5232TIP3   OH237110   0.062   3.149  14.099  0.5067  0.2829 -0.2440
 5232TIP3    H137111  -0.022   3.194  14.110 -0.2448 -1.2313  0.4806
 5232TIP3    H237112   0.127   3.220  14.099 -0.6588  1.3967  0.3839
 5233TIP3   OH237113   0.819   0.643   2.908  0.0871 -0.3603 -0.6654
 5233TIP3    H137114   0.888   0.583   2.934  1.0994  1.0393  0.0476
 5233TIP3    H237115   0.805   0.626   2.816  1.7828 -0.3335 -0.9655
 5234TIP3   OH237116   1.557   1.388  12.247 -0.4242 -0.3476  0.0163
 5234TIP3    H137117   1.583   1.355  12.333  2.2160 -2.4296 -1.3981
 5234TIP3    H237118   1.585   1.479  12.247 -0.5806 -0.2772  1.3955
 5235TIP3   OH237119   4.266   2.557  16.452  0.9654 -0.5725 -0.1976
 5235TIP3    H137120   4.244   2.639  16.496  1.1430 -0.8652  0.4536
 5235TIP3    H237121   4.305   2.583  16.369 -0.1072 -0.0214 -0.5458
 5236TIP3   OH237122   3.727   2.955  10.493 -0.3222  0.1382  0.0771
 5236TIP3    H137123   3.645   2.975  10.539 -1.1666  1.2609 -1.8089
 5236TIP3    H237124   3.793   3.009  10.536 -0.8480  0.2727  0.7239
 5237TIP3   OH237125   0.364   6.607   6.296  0.3740 -0.0224 -0.9574
 5237TIP3    H137126   0.321   6.541   6.242  1.1969 -1.5298  0.1738
 5237TIP3    H237127   0.443   6.630   6.247 -0.1598  0.5392 -1.5894
 5238TIP3   OH237128   2.747   4.788   1.176 -0.2035 -0.4099  0.1791
 5238TIP3    H137129   2.722   4.801   1.268  1.9247 -1.6168  1.0041
 5238TIP3    H237130   2.838   4.816   1.172 -0.7277  1.2696 -2.0399
 5239TIP3   OH237131   4.024   5.054  16.280  0.4052  0.2421 -0.3598
 5239TIP3    H137132   3.970   5.087  16.208 -0.1586  1.0571  0.4229
 5239TIP3    H237133   3.985   5.092  16.358  0.1185 -1.7799  0.5316
 5240TIP3   OH237134   2.363   5.279   4.048 -0.1986  0.3124 -0.3305
 5240TIP3    H137135   2.318   5.360   4.070 -2.5139 -0.5413 -1.5747
 5240TIP3    H237136   2.303   5.210   4.078  0.5237 -0.9041 -1.5848
 5241TIP3   OH237137   2.815   4.487   5.478 -0.0055 -0.1165  0.0298
 5241TIP3    H137138   2.880   4.421   5.502  1.5925  1.3345 -0.1538
 5241TIP3    H237139   2.762   4.445   5.410  0.2552 -1.5706  0.6813
 5242TIP3   OH237140   2.485   0.292   6.408 -0.3275  0.0773 -0.1226
 5242TIP3    H137141   2.476   0.224   6.341 -0.4349  0.9329 -1.0002
 5242TIP3    H237142   2.402   0.291   6.455  0.1345 -1.2517  0.7266
 5243TIP3   OH237143   5.225   0.717   4.182 -0.0351  0.2784 -0.6097
 5243TIP3    H137144   5.155   0.655   4.202  0.4393  0.2817  1.3504
 5243TIP3    H237145   5.266   0.735   4.267  0.5730  2.4171 -1.2764
 5244TIP3   OH237146   0.149   1.357  10.462 -0.3987  0.1891 -0.6167
 5244TIP3    H137147   0.233   1.313  10.475  0.4173  2.0788  0.8566
 5244TIP3    H237148   0.115   1.371  10.551 -0.7057  2.3366 -1.0251
 5245TIP3   OH237149   3.168   2.520   1.132  0.3349 -0.5427 -0.2307
 5245TIP3    H137150   3.129   2.557   1.053  0.1286 -0.9985 -0.3493
 5245TIP3    H237151   3.138   2.429   1.133 -1.5531  0.0005  1.5427
 5246TIP3   OH237152   1.477   6.349  15.588 -0.0950  0.9541  0.2600
 5246TIP3    H137153   1.553   6.395  15.625  0.6409  0.1181 -0.1815
 5246TIP3    H237154   1.413   6.418  15.571  0.9806  1.8170 -0.3709
 5247TIP3   OH237155   0.456   2.620  17.235  0.0874  0.0492  0.4542
 5247TIP3    H137156   0.546   2.601  17.210  0.2346  2.4113 -1.1578
 5247TIP3    H237157   0.403   2.582  17.164  0.0237  0.7278  0.1233
 5248TIP3   OH237158   3.311   5.874   3.852  0.4409  0.0958 -0.1909
 5248TIP3    H137159   3.384   5.858   3.792  0.6169  2.4660 -0.7183
 5248TIP3    H237160   3.240   5.821   3.818  1.1131 -0.1095 -1.3403
 5249TIP3   OH237161   4.015   4.481   6.108 -0.6519  0.0375  0.1710
 5249TIP3    H137162   4.050   4.448   6.191  1.4063 -1.4632 -1.1798
 5249TIP3    H237163   4.093   4.497   6.055 -1.9023  1.3993 -1.3463
 5250TIP3   OH237164   1.714   6.378   1.996  0.1200  0.0435 -0.0386
 5250TIP3    H137165   1.636   6.404   2.045  2.0827  0.0421  3.4510
 5250TIP3    H237166   1.696   6.404   1.906 -2.9888  2.0592  0.9971
 5251TIP3   OH237167   0.239   5.227  16.603 -0.3801  0.0698  0.1412
 5251TIP3    H137168   0.215   5.318  16.623 -1.8661  0.2091 -1.8958
 5251TIP3    H237169   0.162   5.176  16.628 -0.6150 -0.2589 -1.1760
 5252TIP3   OH237170   1.047   0.602   3.692 -1.2794  0.4398  0.5915
 5252TIP3    H137171   1.131   0.556   3.684 -3.1443 -3.1088 -0.7908
 5252TIP3    H237172   1.014   0.575   3.778 -1.8801  0.1458  0.2709
 5253TIP3   OH237173   6.587   4.844   3.228  0.1767 -0.1909  0.0334
 5253TIP3    H137174   6.575   4.750   3.217  1.1479 -0.3066 -0.0636
 5253TIP3    H237175   6.516   4.883   3.176 -0.3283 -0.8644  0.2066
 5254TIP3   OH237176   0.177   5.789  13.947 -0.1582 -0.1789 -0.8176
 5254TIP3    H137177   0.148   5.706  13.908  0.3383  0.4725 -2.6832
 5254TIP3    H237178   0.266   5.802  13.914  0.3170  0.4162  0.6141
 5255TIP3   OH237179   5.031   2.722   4.331  0.0594  0.2482 -0.0819
 5255TIP3    H137180   5.083   2.720   4.411  0.2272 -1.1531 -0.2032
 5255TIP3    H237181   4.941   2.708   4.360  0.3760 -2.8200 -0.2762
 5256TIP3   OH237182   5.992   0.269  15.354  0.2304  0.6945 -0.0743
 5256TIP3    H137183   6.053   0.333  15.391 -0.5353  1.2879  0.1938
 5256TIP3    H237184   5.949   0.231  15.430  0.2535  0.2848 -0.2647
 5257TIP3   OH237185   1.925   1.992  13.042  0.1094  0.1957  0.0416
 5257TIP3    H137186   1.835   1.973  13.069  0.2349 -1.0694 -0.3790
 5257TIP3    H237187   1.932   1.956  12.954  0.6673  1.4290 -0.4546
 5258TIP3   OH237188   6.572   3.229  11.162  0.3115  0.4678 -0.4069
 5258TIP3    H137189   6.509   3.222  11.091 -1.0463  0.3118  0.7536
 5258TIP3    H237190   6.587   3.323  11.173 -1.3896  0.6628  0.6503
 5259TIP3   OH237191   4.402   2.320  15.870 -0.5258  0.4611  0.0857
 5259TIP3    H137192   4.371   2.410  15.856 -1.5214  0.0232 -0.6826
 5259TIP3    H237193   4.447   2.297  15.789  1.0329  0.7489  0.8324
 5260TIP3   OH237194   0.721   5.922  12.364  0.8089  0.4259 -0.3579
 5260TIP3    H137195   0.712   6.001  12.418 -1.0866  1.0184 -1.4385
 5260TIP3    H237196   0.770   5.861  12.419 -0.8981  1.0508  2.0040
 5261TIP3   OH237197   0.716   0.092  16.053  0.0373 -0.1883  0.0644
 5261TIP3    H137198   0.650   0.137  16.001 -1.0314  0.6684  2.0298
 5261TIP3    H237199   0.701  -0.001  16.037 -1.3507  0.0122  0.0809
 5262TIP3   OH237200   5.878   6.585   5.108  0.6081  0.2555 -0.6227
 5262TIP3    H137201   5.879   6.600   5.014  1.6709 -2.9782 -1.2771
 5262TIP3    H237202   5.970   6.576   5.132  0.3113  0.0067  0.4864
 5263TIP3   OH237203   3.161   1.839   4.225 -0.4194  0.6183  0.5681
 5263TIP3    H137204   3.212   1.907   4.268 -1.2524  2.0358 -0.6053
 5263TIP3    H237205   3.225   1.784   4.182  0.1894  1.7574 -0.0109
 5264TIP3   OH237206   0.561   2.363  13.199 -0.6808  0.3985  0.2180
 5264TIP3    H137207   0.601   2.283  13.232 -1.4087  0.6535  1.8225
 5264TIP3    H237208   0.509   2.335  13.123  1.6170 -0.0840 -1.2636
 5265TIP3   OH237209   3.958   4.080  14.570  0.0272 -0.0060  0.3457
 5265TIP3    H137210   3.900   4.155  14.556 -0.4462  0.1859  2.9608
 5265TIP3    H237211   4.030   4.094  14.508 -0.6121  2.0045 -0.0163
 5266TIP3   OH237212   5.131   3.115  12.740  0.4729 -0.1470  0.3296
 5266TIP3    H137213   5.148   3.187  12.680  2.8981 -1.0663 -0.2210
 5266TIP3    H237214   5.038   3.097  12.732 -0.1897  2.8452  0.4628
 5267TIP3   OH237215   3.594   2.451  13.589  0.1103 -0.2850 -0.4248
 5267TIP3    H137216   3.666   2.390  13.604 -0.4768 -1.4937 -2.2006
 5267TIP3    H237217   3.613   2.490  13.503  0.4793  2.1352  0.6537
 5268TIP3   OH237218   3.468   0.518  17.080 -0.9503 -0.3551 -0.3046
 5268TIP3    H137219   3.384   0.501  17.036 -0.8867  0.7997 -0.9228
 5268TIP3    H237220   3.467   0.613  17.096  0.3903 -0.2595 -0.6718
 5269TIP3   OH237221   5.364   4.791  14.697  0.1754  0.2934 -0.2354
 5269TIP3    H137222   5.353   4.712  14.644  0.8226  0.7586 -1.0999
 5269TIP3    H237223   5.276   4.828  14.704 -0.2359 -0.8034  0.6882
 5270TIP3   OH237224   1.017   0.055   3.492  0.1918 -0.0402  0.0604
 5270TIP3    H137225   0.993   0.113   3.564 -1.0700 -0.3351 -0.0996
 5270TIP3    H237226   1.039   0.114   3.420 -1.2222  0.2605 -0.1449
 5271TIP3   OH237227   4.164   1.799   5.636 -0.0634 -0.0932 -0.2510
 5271TIP3    H137228   4.138   1.879   5.591 -2.6239 -0.6327  0.1407
 5271TIP3    H237229   4.253   1.782   5.605  0.9050  3.2689  0.2308
 5272TIP3   OH237230   1.495   2.870   1.730 -0.0839  0.0228 -0.4698
 5272TIP3    H137231   1.484   2.788   1.778 -0.5738 -0.5809 -1.5807
 5272TIP3    H237232   1.576   2.858   1.680 -0.1586  0.2193 -0.6377
 5273TIP3   OH237233   1.902   3.793  15.432 -0.2731 -0.4410 -0.4481
 5273TIP3    H137234   1.917   3.875  15.384 -0.9521 -0.8235 -1.3391
 5273TIP3    H237235   1.989   3.759  15.448  0.1138  1.1799  1.2488
 5274TIP3   OH237236   3.286   5.591  12.048  0.6781  0.1432 -0.2341
 5274TIP3    H137237   3.270   5.498  12.065  1.5073  0.1976  0.9316
 5274TIP3    H237238   3.355   5.592  11.982  1.4874 -0.0883  0.5877
 5275TIP3   OH237239   6.145   4.603  16.582  0.0062 -0.2318  0.1265
 5275TIP3    H137240   6.075   4.539  16.572 -0.0806 -0.1428  0.1616
 5275TIP3    H237241   6.154   4.643  16.496  0.6748 -0.9191 -0.1346
 5276TIP3   OH237242   4.153   3.210  12.158 -0.3872 -0.6472  0.0566
 5276TIP3    H137243   4.066   3.181  12.130 -1.5646  1.0276  1.7128
 5276TIP3    H237244   4.205   3.130  12.163 -1.0523 -1.4324 -3.2982
 5277TIP3   OH237245   6.592   4.671   3.713 -0.2521  0.7380  0.2778
 5277TIP3    H137246   6.672   4.724   3.706 -1.3819  2.3760 -0.9734
 5277TIP3    H237247   6.610   4.595   3.658  1.6019 -0.5461  2.5206
 5278TIP3   OH237248   0.603   4.756  11.683  0.1061 -0.1933  0.2437
 5278TIP3    H137249   0.672   4.801  11.733 -0.6041  0.9595  0.2213
 5278TIP3    H237250   0.559   4.826  11.636 -0.6222 -1.0137 -0.3126
 5279TIP3   OH237251   0.336   0.768   2.660  0.6023  1.1711  0.2447
 5279TIP3    H137252   0.348   0.761   2.755  0.7140  1.6431  0.2671
 5279TIP3    H237253   0.241   0.763   2.648  0.6505 -3.7988 -0.0320
 5280TIP3   OH237254   4.094   1.141   4.006  0.0590 -0.6856 -0.3711
 5280TIP3    H137255   4.133   1.164   4.090  0.4066 -0.3432 -0.6219
 5280TIP3    H237256   4.007   1.181   4.008  1.0670  1.7132 -1.2640
 5281TIP3   OH237257   4.652   4.767   4.009 -0.3686  0.2318  0.1940
 5281TIP3    H137258   4.632   4.674   3.995 -0.3801  0.2111  0.3563
 5281TIP3    H237259   4.586   4.814   3.958  0.7529  0.1356 -1.4466
 5282TIP3   OH237260   4.150   5.663   3.018  0.1294 -0.0538  0.0464
 5282TIP3    H137261   4.100   5.582   3.004 -0.5545 -0.1103  2.3726
 5282TIP3    H237262   4.239   5.641   2.990 -0.4813 -0.9247 -1.3118
 5283TIP3   OH237263   2.758   5.685   3.594  0.3965 -0.0784 -0.0480
 5283TIP3    H137264   2.665   5.696   3.570  0.1557 -0.5594  0.6568
 5283TIP3    H237265   2.804   5.741   3.532 -0.4755  1.3183  0.5034
 5284TIP3   OH237266   3.088   6.233   0.234  0.4359  0.1226  0.4496
 5284TIP3    H137267   3.038   6.254   0.314  0.1840  0.5538  0.1828
 5284TIP3    H237268   3.157   6.173   0.264  0.6238  0.6387  1.0696
 5285TIP3   OH237269   1.035   5.523   0.756  0.2445 -0.2334  0.0055
 5285TIP3    H137270   0.987   5.452   0.801 -0.8574  0.6534  0.2770
 5285TIP3    H237271   1.086   5.478   0.689 -0.4473 -1.2955  0.1562
 5286TIP3   OH237272   3.794   6.233  14.405  0.0936 -0.4398 -0.0814
 5286TIP3    H137273   3.753   6.244  14.491 -0.3948  0.4327 -0.4105
 5286TIP3    H237274   3.761   6.306  14.354  0.6146 -0.7859 -0.9285
 5287TIP3   OH237275   4.222   3.158   0.913 -0.8856 -0.2535  0.0355
 5287TIP3    H137276   4.149   3.124   0.965 -1.3349 -1.1073 -1.0895
 5287TIP3    H237277   4.182   3.182   0.829  0.3253 -2.2666 -1.2050
 5288TIP3   OH237278   6.116   1.364  15.647 -0.0287 -0.4042 -0.3436
 5288TIP3    H137279   6.113   1.277  15.685 -1.9177 -0.2227 -0.0009
 5288TIP3    H237280   6.066   1.419  15.707  0.0785  0.6615 -1.1863
 5289TIP3   OH237281   5.593   4.893   5.413 -0.0572  0.1969  0.1259
 5289TIP3    H137282   5.531   4.961   5.386  0.2538  0.6480  0.5314
 5289TIP3    H237283   5.576   4.880   5.506 -1.2596 -1.5007 -0.2801
 5290TIP3   OH237284   1.972   0.039  14.963  0.3068 -0.3140  0.1370
 5290TIP3    H137285   1.900   0.096  14.934  0.9079  0.5074  0.2183
 5290TIP3    H237286   2.000   0.078  15.046  0.6662 -0.7950  0.2428
 5291TIP3   OH237287   5.085   2.096  16.796  0.2379 -0.2010 -0.2543
 5291TIP3    H137288   5.155   2.132  16.850 -0.3791  1.1751 -0.3223
 5291TIP3    H237289   5.110   2.115  16.706 -0.6920  1.2797 -0.2364
 5292TIP3   OH237290   4.245   4.778   5.335  0.1976  0.2908 -0.3445
 5292TIP3    H137291   4.221   4.712   5.270  0.3251 -0.5341  0.4363
 5292TIP3    H237292   4.206   4.859   5.302  1.0119  0.0857 -1.9189
 5293TIP3   OH237293   5.664   1.390  14.479 -0.4984 -0.2245 -0.1678
 5293TIP3    H137294   5.693   1.469  14.525  0.1965 -0.2818 -0.4854
 5293TIP3    H237295   5.571   1.383  14.498 -0.2289 -0.2417  1.2358
 5294TIP3   OH237296   3.346   0.781   1.406 -0.3285  0.3400  0.0558
 5294TIP3    H137297   3.364   0.733   1.487 -0.4949  3.5999  2.2032
 5294TIP3    H237298   3.427   0.772   1.356 -0.5706 -2.5945 -0.0092
 5295TIP3   OH237299   2.365   3.457   1.275  0.3009  0.4147 -0.0271
 5295TIP3    H137300   2.380   3.478   1.367  0.2306  0.4004 -0.0124
 5295TIP3    H237301   2.284   3.406   1.274 -0.5941  1.7970 -0.2628
 5296TIP3   OH237302   1.994   5.750   6.268  0.7957  0.5136  0.3037
 5296TIP3    H137303   2.078   5.782   6.302  0.6075 -1.1576  2.5618
 5296TIP3    H237304   2.017   5.674   6.214  0.7617  0.3040  0.5848
 5297TIP3   OH237305   5.256   2.347  14.571 -0.4606  0.2098 -0.0829
 5297TIP3    H137306   5.217   2.303  14.647  1.3196  2.4800  2.3354
 5297TIP3    H237307   5.324   2.286  14.541 -1.4124 -0.8693 -0.1350
 5298TIP3   OH237308   1.160   5.202   3.083  0.4319 -0.5699 -0.1362
 5298TIP3    H137309   1.209   5.252   3.018 -1.8089 -0.2642 -1.6847
 5298TIP3    H237310   1.178   5.247   3.166  2.2354 -0.1194 -0.7353
 5299TIP3   OH237311   0.372   6.660   3.212 -0.3977  0.2907 -1.1055
 5299TIP3    H137312   0.421   6.599   3.267 -0.7768  1.5159  0.6794
 5299TIP3    H237313   0.285   6.663   3.251 -0.0913  2.7584 -0.4453
 5300TIP3   OH237314   1.430   3.999   3.609 -0.1099 -0.1500  0.1149
 5300TIP3    H137315   1.349   4.049   3.622 -0.5837 -0.6252 -0.9247
 5300TIP3    H237316   1.481   4.017   3.688  0.3873  3.1970 -0.7987
 5301TIP3   OH237317   2.950   6.574  15.850 -0.8547 -0.4471 -0.3055
 5301TIP3    H137318   2.949   6.644  15.785 -2.7705  0.2956  0.4592
 5301TIP3    H237319   2.911   6.499  15.805  1.2881 -1.1220 -1.1566
 5302TIP3   OH237320   6.285   5.708  14.372  0.1809 -0.4248  0.1583
 5302TIP3    H137321   6.378   5.686  14.367  0.1642 -0.6144  0.6421
 5302TIP3    H237322   6.282   5.803  14.364  0.2466 -0.5604 -2.0674
 5303TIP3   OH237323   4.120   1.376  15.535  0.6736 -0.1153  0.2733
 5303TIP3    H137324   4.174   1.298  15.525  0.1779 -0.3959 -0.2945
 5303TIP3    H237325   4.130   1.423  15.452 -1.4903 -1.1837 -0.6960
 5304TIP3   OH237326   6.139   3.443   5.128 -0.2951 -0.2967  0.4655
 5304TIP3    H137327   6.084   3.375   5.088 -1.5333  0.3148  1.0492
 5304TIP3    H237328   6.228   3.422   5.101 -0.9435 -0.5663 -1.6835
 5305TIP3   OH237329   4.959   0.182  14.992  0.3056 -0.3088 -0.4626
 5305TIP3    H137330   4.931   0.179  14.900 -0.4954 -2.1046 -0.2025
 5305TIP3    H237331   4.879   0.202  15.041  0.3580 -1.0718 -0.0485
 5306TIP3   OH237332   3.173   3.474   0.035  0.3454 -0.9616  0.0704
 5306TIP3    H137333   3.083   3.461   0.005  0.1159 -0.8249  0.6933
 5306TIP3    H237334   3.224   3.486  -0.046 -0.1844 -1.0811 -0.2850
 5307TIP3   OH237335   4.611   5.925   3.512  0.1826 -0.2759 -0.4395
 5307TIP3    H137336   4.631   5.975   3.433  0.5990  1.4785  0.7130
 5307TIP3    H237337   4.558   5.852   3.481 -0.8290  1.0949 -2.1946
 5308TIP3   OH237338   4.186   2.369   5.648  0.4451  0.1144 -0.0568
 5308TIP3    H137339   4.279   2.352   5.655  0.3181  0.0863  2.9248
 5308TIP3    H237340   4.169   2.438   5.712 -1.2701  1.7617 -2.1036
 5309TIP3   OH237341   6.737   5.349  12.647  0.2263  0.0328  0.1149
 5309TIP3    H137342   6.691   5.433  12.644 -0.4921 -0.3350  0.6405
 5309TIP3    H237343   6.796   5.358  12.722 -1.2648 -0.6204  1.4249
 5310TIP3   OH237344   1.648   5.190   2.496 -0.2873 -0.1502 -0.1552
 5310TIP3    H137345   1.578   5.174   2.433 -1.7607  0.2622  1.3251
 5310TIP3    H237346   1.612   5.255   2.557  2.2242  1.9156 -0.6803
 5311TIP3   OH237347   2.736   6.695   3.279  0.4491  0.2956 -0.3473
 5311TIP3    H137348   2.734   6.702   3.375  0.8787  0.7005 -0.3688
 5311TIP3    H237349   2.817   6.649   3.260 -0.1519 -0.7636 -0.4688
 5312TIP3   OH237350   4.826   0.316  16.387 -0.4808 -0.1653 -0.7051
 5312TIP3    H137351   4.842   0.226  16.358 -0.7332 -0.5707  0.3601
 5312TIP3    H237352   4.905   0.340  16.435 -0.1895  0.3926 -1.4450
 5313TIP3   OH237353   2.611   2.671  12.262  0.1900 -0.1498 -0.6040
 5313TIP3    H137354   2.620   2.583  12.300 -0.1514 -0.6980 -1.7587
 5313TIP3    H237355   2.517   2.686  12.258  0.2421  0.1642 -0.6704
 5314TIP3   OH237356   0.920   1.710   0.935 -0.3496  0.0108  0.1369
 5314TIP3    H137357   0.838   1.664   0.953  0.3311 -0.9820  0.8432
 5314TIP3    H237358   0.976   1.642   0.897  1.8304 -0.8090  4.1961
 5315TIP3   OH237359   1.839   2.753   5.967 -0.5141 -0.8367 -0.1742
 5315TIP3    H137360   1.922   2.801   5.966 -0.8268 -0.2567 -2.1761
 5315TIP3    H237361   1.841   2.704   6.049  1.3443 -0.0494  0.3079
 5316TIP3   OH237362   1.494   0.407   0.328  0.1561 -0.0835 -0.2438
 5316TIP3    H137363   1.553   0.340   0.362 -0.5913 -1.2727 -1.2150
 5316TIP3    H237364   1.429   0.358   0.277 -2.2795  1.0276  1.5569
 5317TIP3   OH237365   0.897   0.119  14.734 -0.4415  0.0484  0.5843
 5317TIP3    H137366   0.830   0.139  14.668  3.0507  1.5466 -2.9311
 5317TIP3    H237367   0.927   0.031  14.711  2.1573  1.3140 -1.4152
 5318TIP3   OH237368   2.433   0.186  15.845 -0.3557  0.1405 -0.4349
 5318TIP3    H137369   2.382   0.205  15.767  1.8678 -0.9327 -2.2490
 5318TIP3    H237370   2.424   0.092  15.858  1.1793 -0.0953 -0.8692
 5319TIP3   OH237371   5.734   1.357   0.984  0.0117  0.2375  0.0003
 5319TIP3    H137372   5.713   1.450   0.999  0.2261  0.5807 -1.5596
 5319TIP3    H237373   5.648   1.314   0.978 -0.0878  0.3243  0.7949
 5320TIP3   OH237374   1.786   4.131   2.558  0.0339  0.6559 -0.1334
 5320TIP3    H137375   1.778   4.150   2.651  0.6170 -0.8500  0.2495
 5320TIP3    H237376   1.696   4.119   2.527 -0.1278  0.5914  0.3598
 5321TIP3   OH237377   2.735   2.074  17.092 -0.1023  0.0392 -0.2250
 5321TIP3    H137378   2.829   2.083  17.074  0.1703 -1.9241 -0.0362
 5321TIP3    H237379   2.720   2.129  17.168  0.7871  0.7789 -0.5639
 5322TIP3   OH237380   4.143   0.099   3.196  0.3720 -0.2637  0.8922
 5322TIP3    H137381   4.213   0.153   3.157  0.5726 -0.3989  1.0630
 5322TIP3    H237382   4.136   0.131   3.285  0.1694 -0.2070  0.8555
 5323TIP3   OH237383   3.864   2.655  12.935 -0.0461  0.0314  0.3086
 5323TIP3    H137384   3.781   2.615  12.961 -0.2753 -1.1719 -2.0551
 5323TIP3    H237385   3.897   2.599  12.865  1.9062  1.4914 -0.0166
 5324TIP3   OH237386   0.048   4.452   0.353  0.4754 -0.1509 -0.8718
 5324TIP3    H137387  -0.032   4.491   0.317  0.3861  0.4025 -0.0931
 5324TIP3    H237388   0.103   4.527   0.376  0.1263 -0.4228  1.0585
 5325TIP3   OH237389   6.611   3.162   2.099 -0.0691 -0.1976  0.0929
 5325TIP3    H137390   6.600   3.087   2.157 -0.4927  0.2191  0.5645
 5325TIP3    H237391   6.524   3.176   2.061 -0.0357  0.1586  0.1423
 5326TIP3   OH237392   3.675   4.309   5.122 -0.2968 -0.1715  0.0542
 5326TIP3    H137393   3.668   4.216   5.144 -1.1205 -0.4241 -1.1388
 5326TIP3    H237394   3.714   4.310   5.035  1.2211  0.6892  0.7171
 5327TIP3   OH237395   0.711   1.498   0.985 -0.3817 -0.5989  0.0912
 5327TIP3    H137396   0.619   1.473   0.983 -0.3464 -0.7440  0.3007
 5327TIP3    H237397   0.757   1.426   0.941 -0.4516 -0.1620 -0.7087
 5328TIP3   OH237398   5.966   3.840  13.287  0.2145  0.2119 -0.2316
 5328TIP3    H137399   5.915   3.803  13.215 -0.0803 -1.2578  0.6819
 5328TIP3    H237400   6.020   3.767  13.317 -0.8832  0.2634  2.1021
 5329TIP3   OH237401   1.808   3.799  12.987 -0.0529 -0.0881  0.5433
 5329TIP3    H137402   1.818   3.768  12.897  0.6351  1.2400  0.1401
 5329TIP3    H237403   1.861   3.878  12.991  1.6632 -1.2418  2.7052
 5330TIP3   OH237404   2.027   1.388  13.357 -0.1080  0.0308 -0.5113
 5330TIP3    H137405   1.995   1.478  13.346  0.5367  0.1957 -1.1296
 5330TIP3    H237406   2.120   1.398  13.377  0.1022 -0.5172 -1.1879
 5331TIP3   OH237407   2.802   1.697  15.966  0.3353  0.1751  0.1419
 5331TIP3    H137408   2.716   1.698  15.923 -1.4194  1.1716  3.3254
 5331TIP3    H237409   2.839   1.611  15.944 -2.1025 -0.8699 -0.2244
 5332TIP3   OH237410   2.652   5.910  12.335  0.4056  0.2203  0.1593
 5332TIP3    H137411   2.744   5.922  12.360  0.1345 -0.5058  1.6159
 5332TIP3    H237412   2.645   5.818  12.311 -0.1323  0.0276  1.0034
 5333TIP3   OH237413   1.779   4.932  11.604 -0.4775 -0.2743 -0.6036
 5333TIP3    H137414   1.777   5.024  11.578 -2.6808  0.1395  0.7093
 5333TIP3    H237415   1.853   4.925  11.664  1.7547 -0.1939 -3.1632
 5334TIP3   OH237416   6.279   4.116   5.297  0.2955 -0.0917  0.1630
 5334TIP3    H137417   6.326   4.048   5.248  0.1828  0.2004 -0.3579
 5334TIP3    H237418   6.207   4.069   5.339  0.2536 -0.3077 -0.1487
 5335TIP3   OH237419   5.336   0.009   4.117  0.0490 -0.4550 -0.2574
 5335TIP3    H137420   5.336  -0.074   4.070  2.3890 -0.5734 -0.1825
 5335TIP3    H237421   5.280  -0.006   4.193 -1.1169 -1.3087 -1.2440
 5336TIP3   OH237422   5.872   1.033  12.293 -0.2972 -0.1719 -0.3409
 5336TIP3    H137423   5.827   1.090  12.230 -2.1328  0.2918  1.2844
 5336TIP3    H237424   5.959   1.071  12.302 -0.4297  0.4913 -1.6432
 5337TIP3   OH237425   1.498   2.617  10.894 -0.4950 -0.4915  0.6197
 5337TIP3    H137426   1.500   2.706  10.859  1.5981 -1.0166 -0.8539
 5337TIP3    H237427   1.411   2.585  10.873 -0.3401  0.2863 -1.5034
 5338TIP3   OH237428   4.609   5.348   5.170  0.3951 -0.3735 -0.5823
 5338TIP3    H137429   4.656   5.396   5.238  0.8583 -0.6916 -0.6722
 5338TIP3    H237430   4.654   5.373   5.089 -2.9985  3.7790 -1.5358
 5339TIP3   OH237431   1.382   2.513   3.604 -0.4975 -0.2947  0.1738
 5339TIP3    H137432   1.437   2.592   3.601 -0.2301 -0.4899 -1.7493
 5339TIP3    H237433   1.308   2.537   3.659 -1.0195  1.7628 -1.2807
 5340TIP3   OH237434   4.017   3.158  16.574 -0.9567  0.0791 -0.5003
 5340TIP3    H137435   4.047   3.231  16.628 -1.4709  1.3133 -1.8200
 5340TIP3    H237436   4.071   3.162  16.495  0.3347 -2.1839  0.1694
 5341TIP3   OH237437   6.384   5.846   0.405 -0.1252 -0.3658  0.3652
 5341TIP3    H137438   6.409   5.893   0.325 -1.9469  0.7273  0.3664
 5341TIP3    H237439   6.462   5.798   0.430  0.5086 -0.7629 -2.0877
 5342TIP3   OH237440   1.447   2.183   2.927 -0.3755  0.5082  0.4712
 5342TIP3    H137441   1.399   2.124   2.869 -1.3138  2.5729 -0.9333
 5342TIP3    H237442   1.395   2.184   3.008 -0.5753 -0.2145  0.3632
 5343TIP3   OH237443   2.021   1.489   0.888  0.2391  0.1312 -0.2840
 5343TIP3    H137444   2.105   1.495   0.934 -0.1206 -0.5760  0.4802
 5343TIP3    H237445   2.041   1.518   0.799  1.2459  0.1774 -0.0589
 5344TIP3   OH237446   0.352   5.710   5.777 -0.0511  0.1599  0.0136
 5344TIP3    H137447   0.349   5.784   5.839  0.9574 -1.0133  1.5504
 5344TIP3    H237448   0.332   5.634   5.831  3.5989 -1.2793 -0.3743
 5345TIP3   OH237449   4.572   6.086  14.527 -0.0457 -0.0080 -0.4261
 5345TIP3    H137450   4.477   6.078  14.524  0.0960 -2.7661  0.0778
 5345TIP3    H237451   4.594   6.068  14.618  0.8853  2.8725  0.0197
 5346TIP3   OH237452   4.964   5.802   3.265 -0.1976 -0.2563  0.1579
 5346TIP3    H137453   5.012   5.843   3.338 -0.7233 -0.2633  0.5162
 5346TIP3    H237454   4.871   5.818   3.286 -0.3692 -0.6876 -0.2592
 5347TIP3   OH237455   2.432   3.932  14.422  0.5438  0.4673  0.0894
 5347TIP3    H137456   2.479   3.861  14.465  1.7923  0.3103 -1.4484
 5347TIP3    H237457   2.341   3.922  14.451  1.2117  0.0834  2.2476
 5348TIP3   OH237458   6.215   2.793   4.497 -0.0243  0.1004  0.1096
 5348TIP3    H137459   6.275   2.835   4.559  1.3997 -0.5697 -0.7592
 5348TIP3    H237460   6.162   2.735   4.551 -0.8109  1.6493  1.0762
 5349TIP3   OH237461   1.114   0.464  16.641 -0.1995  0.0359  0.1927
 5349TIP3    H137462   1.206   0.450  16.667 -0.2029 -1.5961 -0.5321
 5349TIP3    H237463   1.119   0.500  16.553 -0.2636  0.6271  0.4244
 5350TIP3   OH237464   0.176   3.567   0.327  0.0411 -0.1136  0.5426
 5350TIP3    H137465   0.251   3.580   0.270  0.3110  0.3574  0.9940
 5350TIP3    H237466   0.183   3.637   0.392 -2.2173  1.6207 -0.8932
 5351TIP3   OH237467   5.809   3.170  12.498  0.3745  0.0988 -0.5720
 5351TIP3    H137468   5.720   3.202  12.509  0.5240  0.8505 -1.3777
 5351TIP3    H237469   5.852   3.187  12.582 -0.2019 -0.1502 -0.2239
 5352TIP3   OH237470   3.019   3.113   6.303  0.1354  0.1595 -0.5453
 5352TIP3    H137471   3.037   3.156   6.219  0.2494  2.4033  0.5605
 5352TIP3    H237472   3.098   3.061   6.320  1.3216  1.8833 -0.5543
 5353TIP3   OH237473   4.129   3.223  14.903  0.2859  0.2925 -0.2836
 5353TIP3    H137474   4.204   3.165  14.918  0.4846  0.7135  0.4301
 5353TIP3    H237475   4.169   3.308  14.882  0.0236  0.5779  0.3334
 5354TIP3   OH237476   4.353   6.301  11.759  0.1813 -0.3270  0.2396
 5354TIP3    H137477   4.285   6.233  11.753 -0.3205  0.1145  0.7842
 5354TIP3    H237478   4.413   6.281  11.687 -0.4240 -0.8432 -0.1367
 5355TIP3   OH237479   6.711   1.890   0.994 -0.0582  0.7480  0.1308
 5355TIP3    H137480   6.646   1.959   1.010 -0.8836  0.2187 -0.8212
 5355TIP3    H237481   6.785   1.914   1.049 -0.1017  2.7181 -0.5882
 5356TIP3   OH237482   1.571   5.479  16.611  0.1535  0.5935  0.0790
 5356TIP3    H137483   1.528   5.425  16.677 -1.9314 -0.0351 -1.6745
 5356TIP3    H237484   1.541   5.568  16.629  1.9918  0.9610  1.7298
 5357TIP3   OH237485   2.483   0.361  14.573 -0.2659  0.4348 -0.6520
 5357TIP3    H137486   2.392   0.333  14.562 -0.2648  1.1865 -3.1633
 5357TIP3    H237487   2.535   0.289  14.537  0.3705 -1.0025  2.7420
 5358TIP3   OH237488   2.022   3.439   5.718 -0.3030 -0.2840  0.4793
 5358TIP3    H137489   1.994   3.498   5.788  0.6839  2.0086 -0.9296
 5358TIP3    H237490   1.941   3.416   5.672 -0.6255  0.6241  0.5783
 5359TIP3   OH237491   2.982   0.028  14.288  0.0091 -1.1762 -0.4009
 5359TIP3    H137492   2.985   0.124  14.289  2.4422 -1.1866 -0.1729
 5359TIP3    H237493   2.914   0.006  14.224 -1.9734  0.6545  0.9326
 5360TIP3   OH237494   1.203   1.226  15.214  0.6476 -0.0788  0.1749
 5360TIP3    H137495   1.141   1.192  15.150 -0.1176 -0.8513  1.2804
 5360TIP3    H237496   1.285   1.181  15.194  0.1776 -1.0322  0.3120
 5361TIP3   OH237497   0.567   3.580  16.815 -0.2119  0.0273  0.0057
 5361TIP3    H137498   0.644   3.625  16.778 -0.3796 -0.8821 -1.5346
 5361TIP3    H237499   0.548   3.510  16.753 -2.0233 -0.0524  0.5942
 5362TIP3   OH237500   4.535   5.494   1.360 -0.0895  0.0101 -0.0899
 5362TIP3    H137501   4.468   5.468   1.297 -0.5358 -0.5772  0.6024
 5362TIP3    H237502   4.573   5.411   1.390  0.1255  0.2814  0.3958
 5363TIP3   OH237503   4.838   1.723   3.119  0.6879  0.2739  0.1831
 5363TIP3    H137504   4.922   1.677   3.118  0.3653 -0.3517  0.7014
 5363TIP3    H237505   4.832   1.765   3.033  0.8408 -0.9555 -0.4560
 5364TIP3   OH237506   0.142   5.026   4.580  0.1073 -0.6415  0.1458
 5364TIP3    H137507   0.127   4.932   4.577  0.0648 -0.6282 -0.0711
 5364TIP3    H237508   0.133   5.055   4.489 -0.7215 -0.2985  0.3249
 5365TIP3   OH237509   0.796   2.893  13.795  0.2268 -0.3624  0.0335
 5365TIP3    H137510   0.820   2.828  13.860  0.1445  0.3371  0.7754
 5365TIP3    H237511   0.720   2.938  13.832  0.4370  0.3262 -0.3495
 5366TIP3   OH237512   5.096   4.418   2.092 -0.5951  0.2929 -0.2416
 5366TIP3    H137513   5.041   4.496   2.094  2.1959  2.4524  1.6192
 5366TIP3    H237514   5.067   4.365   2.167 -1.6199  0.1943 -0.6982
 5367TIP3   OH237515   2.992   5.931  15.285 -0.2247  0.2360 -0.1956
 5367TIP3    H137516   3.046   5.880  15.345 -1.0619 -0.5105 -0.0414
 5367TIP3    H237517   3.005   6.022  15.311  2.5631  0.3049 -1.4959
 5368TIP3   OH237518   5.917   5.153   5.464 -0.1636  0.5158 -0.0896
 5368TIP3    H137519   5.977   5.226   5.449  0.7144 -0.0825  0.3642
 5368TIP3    H237520   5.932   5.094   5.390  0.3647  0.0299  0.3793
 5369TIP3   OH237521   6.780   4.854  15.435  0.0828  0.3147  0.0598
 5369TIP3    H137522   6.825   4.799  15.500 -0.2986  0.2500  0.2724
 5369TIP3    H237523   6.691   4.863  15.469 -0.1960  0.0683 -0.5845
 5370TIP3   OH237524   5.447   0.479   2.070 -0.0380 -0.3348 -0.3100
 5370TIP3    H137525   5.488   0.561   2.042  1.1353 -0.5171  0.7897
 5370TIP3    H237526   5.446   0.425   1.991  0.7928  0.0903 -0.6207
 5371TIP3   OH237527   6.580   5.267  15.615 -0.3088  0.2687  0.4127
 5371TIP3    H137528   6.487   5.276  15.598 -0.4816  0.0093  1.1839
 5371TIP3    H237529   6.604   5.346  15.664  0.3152  1.3181 -1.4866
 5372TIP3   OH237530   6.631   6.502   1.511  0.3947 -0.2952 -0.0432
 5372TIP3    H137531   6.700   6.443   1.481  1.3217 -0.1717  1.6893
 5372TIP3    H237532   6.594   6.457   1.587 -1.4118 -0.3237 -0.8980
 5373TIP3   OH237533   0.210   6.441  15.370 -0.2671 -0.6788  0.1545
 5373TIP3    H137534   0.262   6.392  15.434 -0.3637 -1.2869 -0.2254
 5373TIP3    H237535   0.211   6.531  15.402  1.2359 -0.6235  0.0237
 5374TIP3   OH237536   6.534   1.699  13.565 -0.0485 -0.6712 -0.6949
 5374TIP3    H137537   6.512   1.764  13.631 -0.6293 -1.4845 -0.0607
 5374TIP3    H237538   6.614   1.731  13.524 -1.0338  1.1166 -1.3225
 5375TIP3   OH237539   1.246   5.759  16.960  0.0669 -0.0328  0.0405
 5375TIP3    H137540   1.308   5.770  17.032 -1.3387  0.2138  1.2520
 5375TIP3    H237541   1.201   5.677  16.979  0.0982 -0.2732 -0.8939
 5376TIP3   OH237542   2.179   0.240  13.337  0.7350 -0.3006  0.8299
 5376TIP3    H137543   2.087   0.260  13.359 -0.0483 -0.1833 -2.1643
 5376TIP3    H237544   2.214   0.199  13.416 -2.6301 -2.6757  1.2898
 5377TIP3   OH237545   6.003   5.091   4.721 -0.3548  0.2507  0.4721
 5377TIP3    H137546   5.991   5.126   4.810  0.3659 -1.2889  1.2262
 5377TIP3    H237547   6.098   5.083   4.712 -0.3789  1.0881 -0.7591
 5378TIP3   OH237548   3.303   6.029   0.241  0.2273 -0.5139  0.3207
 5378TIP3    H137549   3.269   6.041   0.152 -0.8612 -0.2593  0.7590
 5378TIP3    H237550   3.277   5.940   0.265 -1.0616  0.0287  1.0331
 5379TIP3   OH237551   2.434   3.278   1.879 -0.0382 -0.1811 -0.0311
 5379TIP3    H137552   2.530   3.279   1.880 -0.0244  0.1274 -0.6397
 5379TIP3    H237553   2.409   3.362   1.917 -0.1207 -1.0001  1.8279
 5380TIP3   OH237554   1.370   4.904  14.171 -0.9355  0.3373  0.0487
 5380TIP3    H137555   1.379   4.866  14.084 -1.4808 -0.1548  0.2007
 5380TIP3    H237556   1.344   4.995  14.155 -1.2147  0.1991 -0.3011
 5381TIP3   OH237557   6.345   5.367  14.433 -1.1067 -0.1104  0.6019
 5381TIP3    H137558   6.318   5.434  14.497 -0.6868  1.8228 -1.1266
 5381TIP3    H237559   6.280   5.374  14.363 -0.4765 -0.8283 -0.0655
 5382TIP3   OH237560   1.393   2.541   2.009 -0.0725  0.1745 -0.4634
 5382TIP3    H137561   1.417   2.513   1.921 -0.2046 -0.2657 -0.3582
 5382TIP3    H237562   1.476   2.543   2.058  0.2334  1.8074 -0.9674
 5383TIP3   OH237563   0.131   4.926  16.645 -0.2649 -0.2393  0.7000
 5383TIP3    H137564   0.111   4.862  16.577 -0.8904  1.8845 -1.2684
 5383TIP3    H237565   0.211   4.894  16.686 -0.0147 -1.7703 -0.8744
 5384TIP3   OH237566   0.063   2.162  14.501 -0.4747 -0.6685 -0.0287
 5384TIP3    H137567   0.100   2.239  14.458 -1.0884 -0.3472  0.0050
 5384TIP3    H237568   0.014   2.118  14.433  0.0120 -1.1251 -0.0876
 5385TIP3   OH237569   1.235   1.147  15.481 -0.1459  0.3164 -0.6515
 5385TIP3    H137570   1.234   1.193  15.397 -0.7018 -0.2700 -0.9809
 5385TIP3    H237571   1.173   1.075  15.469 -1.6253  1.2880  0.8732
 5386TIP3   OH237572   4.887   4.987  14.294  0.2918  0.2117 -0.5731
 5386TIP3    H137573   4.804   4.982  14.342  0.3302 -0.5344 -0.5795
 5386TIP3    H237574   4.937   4.911  14.323  1.3503  1.1309  0.1151
 5387TIP3   OH237575   4.127   6.143  12.833  0.2872 -0.0867 -0.2408
 5387TIP3    H137576   4.065   6.127  12.761 -0.3635  1.1892  0.0025
 5387TIP3    H237577   4.080   6.202  12.892  1.1829 -0.3272  0.7462
 5388TIP3   OH237578   5.520   2.932  14.310  0.2185 -0.2287 -0.3988
 5388TIP3    H137579   5.470   2.907  14.387  3.5225 -0.7302  1.8131
 5388TIP3    H237580   5.513   3.027  14.305  0.4445 -0.1306  0.9326
 5389TIP3   OH237581   4.899   1.267  12.819 -0.5543 -0.3119 -0.2196
 5389TIP3    H137582   4.900   1.359  12.792  0.6739 -0.2277  0.0322
 5389TIP3    H237583   4.840   1.264  12.894  1.0361  0.6999  1.1298
 5390TIP3   OH237584   2.253   2.668   0.030  0.1917 -0.0349 -0.0349
 5390TIP3    H137585   2.190   2.626  -0.029  0.4395  0.6441 -0.7962
 5390TIP3    H237586   2.265   2.756  -0.005  1.2542 -0.0118  0.3356
 5391TIP3   OH237587   5.426   3.648   3.110 -0.2695 -0.0939 -0.4281
 5391TIP3    H137588   5.507   3.628   3.158 -0.5189 -0.1943 -0.0438
 5391TIP3    H237589   5.439   3.611   3.023 -0.2815 -0.9488 -0.0709
 5392TIP3   OH237590   3.103   2.093   2.106 -0.3481 -0.0852  0.1351
 5392TIP3    H137591   3.056   2.128   2.181  1.3383  2.9870 -0.0593
 5392TIP3    H237592   3.041   2.099   2.034 -1.0958 -0.4484  0.7363
 5393TIP3   OH237593   6.516   4.266  12.924 -0.5755 -0.4997  0.1258
 5393TIP3    H137594   6.561   4.191  12.884  1.4014 -0.8588  2.8005
 5393TIP3    H237595   6.423   4.242  12.920 -0.0748 -2.6446 -0.0179
 5394TIP3   OH237596   0.439   1.651  10.945  0.1232 -0.4045 -0.3709
 5394TIP3    H137597   0.440   1.685  11.035 -0.1518 -0.4673 -0.3448
 5394TIP3    H237598   0.362   1.691  10.905 -1.4672 -2.6373  0.2899
 5395TIP3   OH237599   0.031   6.499   4.369 -0.3894  0.5998  0.0320
 5395TIP3    H137600   0.105   6.537   4.417 -0.7185  0.0102  1.0324
 5395TIP3    H237601  -0.046   6.545   4.404 -0.5444  0.9954 -0.7867
 5396TIP3   OH237602   0.358   3.265  12.694 -0.7439  0.1177 -0.0001
 5396TIP3    H137603   0.312   3.243  12.613 -0.0318  1.0644 -0.6910
 5396TIP3    H237604   0.441   3.219  12.687 -0.9064 -0.2436  0.4536
 5397TIP3   OH237605   1.432   4.550   4.115  0.3562  0.1668  0.2260
 5397TIP3    H137606   1.413   4.630   4.164  0.1489  0.1584  0.1609
 5397TIP3    H237607   1.527   4.538   4.123  0.4042  0.4839  0.1350
 5398TIP3   OH237608   4.885   1.124   0.376  0.4827 -0.7381  0.7319
 5398TIP3    H137609   4.847   1.071   0.306 -0.7713  1.7433 -0.5931
 5398TIP3    H237610   4.977   1.098   0.379  0.4581 -1.2668 -1.4910
 5399TIP3   OH237611   0.722   5.731   4.265  0.1777  0.4236  0.1857
 5399TIP3    H137612   0.639   5.773   4.289  0.9486  0.7973  2.4406
 5399TIP3    H237613   0.778   5.742   4.342  1.0888 -3.1278  0.2055
 5400TIP3   OH237614   5.673   4.802   5.166 -0.1196  0.5345 -0.0001
 5400TIP3    H137615   5.684   4.806   5.261  0.9224  0.1773 -0.0861
 5400TIP3    H237616   5.609   4.732   5.152 -0.2977  0.6099  0.4367
 5401TIP3   OH237617   0.125   6.479  11.416  0.1005 -0.2672  0.2169
 5401TIP3    H137618   0.055   6.499  11.477  0.7347  1.2579  0.4879
 5401TIP3    H237619   0.172   6.406  11.456 -1.5263 -1.6007 -0.1739
 5402TIP3   OH237620   0.276   1.412   0.742  0.1450  0.0522  0.9880
 5402TIP3    H137621   0.257   1.482   0.804 -1.2851 -0.3695  1.0609
 5402TIP3    H237622   0.191   1.390   0.704  0.8022 -0.5811 -0.1779
 5403TIP3   OH237623   2.661   4.307   5.278  0.1981  0.1985 -0.2265
 5403TIP3    H137624   2.659   4.212   5.294 -1.5272  0.3832  0.8474
 5403TIP3    H237625   2.591   4.323   5.215  0.8018  0.7165 -0.7834
 5404TIP3   OH237626   0.105   2.042   0.162  0.1065 -0.2392 -0.3374
 5404TIP3    H137627   0.148   2.124   0.188 -1.5386 -0.1237  2.4107
 5404TIP3    H237628   0.176   1.978   0.156  1.0908  0.7764  0.1873
 5405TIP3   OH237629   4.430   5.717   4.016  0.2031  0.5736  0.4262
 5405TIP3    H137630   4.350   5.769   4.023  0.5025  0.9323  1.3618
 5405TIP3    H237631   4.496   5.777   3.983 -0.1117  0.0359 -1.2728
 5406TIP3   OH237632   5.686   5.816   4.689  0.1869  0.0906 -0.0191
 5406TIP3    H137633   5.701   5.778   4.602  0.5436  2.5768 -1.1465
 5406TIP3    H237634   5.646   5.901   4.671 -1.7944 -0.2132  2.3972
 5407TIP3   OH237635   5.364   0.270   3.603 -0.3138  0.3821  0.2581
 5407TIP3    H137636   5.303   0.293   3.533  0.2990  2.6269  0.3655
 5407TIP3    H237637   5.412   0.351   3.620  1.3991 -0.8071  1.4646
 5408TIP3   OH237638   3.456   0.248  16.011  0.3831 -0.3684 -0.0632
 5408TIP3    H137639   3.400   0.309  15.964  1.0476  0.7666  0.5664
 5408TIP3    H237640   3.545   0.272  15.983  0.6235 -1.4630 -0.2736
 5409TIP3   OH237641   3.826   4.932  12.999  0.3508 -0.3701  0.1553
 5409TIP3    H137642   3.755   4.876  13.028 -0.7018  0.6108 -0.4346
 5409TIP3    H237643   3.836   4.911  12.906  0.2648  0.0855  0.0427
 5410TIP3   OH237644   1.057   2.680   2.807 -0.1400  0.6342 -0.1296
 5410TIP3    H137645   0.982   2.694   2.751 -0.5853  0.0835  0.3083
 5410TIP3    H237646   1.020   2.658   2.893  0.5187  0.9377  0.2478
 5411TIP3   OH237647   6.410   3.591  13.521  0.1440  0.1770 -0.1725
 5411TIP3    H137648   6.404   3.498  13.542  1.5033  0.2556  0.7615
 5411TIP3    H237649   6.437   3.632  13.604 -0.7153  1.4414 -0.4932
 5412TIP3   OH237650   0.089   4.625  16.782 -0.4235 -0.4804  0.2446
 5412TIP3    H137651   0.056   4.557  16.724  1.1141 -1.4146  0.4177
 5412TIP3    H237652   0.068   4.707  16.737  0.1211 -1.1509 -1.3037
 5413TIP3   OH237653   6.571   4.459   5.415 -0.3376  0.3259 -0.3670
 5413TIP3    H137654   6.546   4.453   5.323 -0.0696 -1.6070 -0.3567
 5413TIP3    H237655   6.639   4.526   5.417 -0.9007  0.9607 -1.4344
 5414TIP3   OH237656   6.339   0.825   3.052  0.0142  0.3044  0.0341
 5414TIP3    H137657   6.247   0.836   3.027  0.6238  0.8294 -2.1699
 5414TIP3    H237658   6.355   0.731   3.042 -0.0230  0.3615 -0.5955
 5415TIP3   OH237659   3.711   4.911  16.011  0.7613  0.1651  0.4463
 5415TIP3    H137660   3.702   4.816  16.012  1.0935  0.1266  0.1563
 5415TIP3    H237661   3.753   4.930  15.927 -0.8768  0.7052 -0.3102
 5416TIP3   OH237662   1.616   2.702  13.159 -0.1846  0.0762 -0.4651
 5416TIP3    H137663   1.543   2.655  13.119 -0.4397  0.2574 -0.2162
 5416TIP3    H237664   1.608   2.791  13.126  0.0198  0.0603 -0.5622
 5417TIP3   OH237665   5.733   3.834   1.829 -0.2946  0.3570 -0.1075
 5417TIP3    H137666   5.792   3.882   1.888  1.3908 -1.3545 -0.3039
 5417TIP3    H237667   5.645   3.860   1.857  0.5023  1.8871  1.1623
 5418TIP3   OH237668   4.882   5.326   4.500  0.4134  0.4610 -0.1352
 5418TIP3    H137669   4.873   5.410   4.453 -1.5704  0.7838  0.7104
 5418TIP3    H237670   4.923   5.349   4.583  3.3677 -0.0259 -1.3346
 5419TIP3   OH237671   4.645   4.980  14.431 -0.4667 -0.1114  0.3427
 5419TIP3    H137672   4.564   5.026  14.408  0.1921  2.0360  1.9755
 5419TIP3    H237673   4.616   4.901  14.477 -1.6524  0.6356  0.9233
 5420TIP3   OH237674   0.666   3.875   1.118 -0.3777 -0.1094  0.4472
 5420TIP3    H137675   0.736   3.913   1.170 -1.4725  0.8042  1.2980
 5420TIP3    H237676   0.639   3.797   1.166 -0.5949  0.0805  0.6355
 5421TIP3   OH237677   5.852   4.589  14.507  0.0672 -0.7860  0.2917
 5421TIP3    H137678   5.905   4.663  14.537 -0.1546 -1.0896  1.4789
 5421TIP3    H237679   5.905   4.548  14.439 -0.0025  0.7100 -0.7244
 5422TIP3   OH237680   1.308   3.530   2.758  0.0446  0.5645  0.2929
 5422TIP3    H137681   1.320   3.492   2.846 -1.8327 -0.0216  0.3346
 5422TIP3    H237682   1.342   3.620   2.767  1.9680 -0.1599  0.9624
 5423TIP3   OH237683   5.770   5.637   6.012  0.2486  0.3723  0.8476
 5423TIP3    H137684   5.822   5.599   6.083  0.1678  0.5650  1.0119
 5423TIP3    H237685   5.686   5.593   6.017  0.4732 -0.1102  0.4299
 5424TIP3   OH237686   0.718   0.005  16.511  0.2430 -0.4283 -0.0287
 5424TIP3    H137687   0.629   0.040  16.522  0.0209 -0.5282 -1.3525
 5424TIP3    H237688   0.767   0.076  16.470  0.5880 -0.6260  0.0403
 5425TIP3   OH237689   6.656   2.635   0.602  0.0752  0.1134 -0.1903
 5425TIP3    H137690   6.733   2.600   0.646  0.6634  1.2066 -0.3252
 5425TIP3    H237691   6.672   2.617   0.509  0.5194  0.9702 -0.2901
 5426TIP3   OH237692   1.334   6.469  12.523 -0.3025 -0.7641  0.0339
 5426TIP3    H137693   1.407   6.445  12.580  0.5714 -0.0590 -0.7562
 5426TIP3    H237694   1.302   6.553  12.559 -1.7333 -1.7782  1.2796
 5427TIP3   OH237695   6.780   1.524   4.348 -0.4494 -0.4301  0.3451
 5427TIP3    H137696   6.750   1.586   4.414  1.0730 -0.4924  1.1348
 5427TIP3    H237697   6.774   1.438   4.390  1.0861 -0.4140  0.6733
 5428TIP3   OH237698   2.352   0.789  14.594 -0.0723  0.1129 -0.2374
 5428TIP3    H137699   2.349   0.880  14.566  1.2716  0.5852  0.9938
 5428TIP3    H237700   2.396   0.792  14.680 -1.1568 -1.5628  0.4202
 5429TIP3   OH237701   3.835   0.001   1.551 -0.6612 -0.4509  0.3746
 5429TIP3    H137702   3.867   0.045   1.629  0.2379 -3.1172  1.6426
 5429TIP3    H237703   3.740   0.011   1.554 -0.4963  1.5574  0.3948
 5430TIP3   OH237704   1.843   3.297  11.775  0.3068 -0.1079 -0.8830
 5430TIP3    H137705   1.764   3.335  11.736  0.5461  3.0156  1.3360
 5430TIP3    H237706   1.810   3.227  11.831 -1.0894  1.6958  0.6710
 5431TIP3   OH237707   1.422   6.324  10.915 -0.2275  0.1189  0.2131
 5431TIP3    H137708   1.463   6.317  10.829 -0.4716  0.7748  0.0361
 5431TIP3    H237709   1.409   6.234  10.943  0.6335 -0.1030 -0.0606
 5432TIP3   OH237710   3.404   5.380   5.220 -0.6342  0.0989  0.3940
 5432TIP3    H137711   3.441   5.447   5.277 -0.6731  2.3285 -2.0279
 5432TIP3    H237712   3.333   5.341   5.272 -0.3124  1.5892  2.0523
 5433TIP3   OH237713   6.754   1.511   3.783  1.0243 -0.2031 -0.2406
 5433TIP3    H137714   6.822   1.557   3.833 -0.2639  1.2647  0.2514
 5433TIP3    H237715   6.721   1.446   3.844  1.5685 -0.5218 -0.2771
 5434TIP3   OH237716   6.743   3.800  17.149  0.2611  0.1159  0.7245
 5434TIP3    H137717   6.676   3.849  17.197 -0.1242  0.0172  0.2863
 5434TIP3    H237718   6.794   3.867  17.104  1.5934  0.3487  2.4572
 5435TIP3   OH237719   4.353   3.079  13.551 -0.2729  0.0695  0.6078
 5435TIP3    H137720   4.329   3.024  13.477 -0.3532  0.6863  0.1660
 5435TIP3    H237721   4.446   3.063  13.564 -0.4427 -0.6835  0.9240
 5436TIP3   OH237722   0.536   3.564   3.496  0.1460  0.1449 -0.3679
 5436TIP3    H137723   0.532   3.484   3.548 -0.3302  0.8864  0.7752
 5436TIP3    H237724   0.596   3.621   3.544 -1.2162  1.2824  0.0483
 5437TIP3   OH237725   3.178   3.127  15.142 -0.3928  0.5066  0.2930
 5437TIP3    H137726   3.190   3.205  15.087  0.1426  0.4460  0.3233
 5437TIP3    H237727   3.095   3.143  15.187 -0.1824  1.1616  0.4670
 5438TIP3   OH237728   1.788   5.561   3.925  0.1237 -0.1320 -0.4798
 5438TIP3    H137729   1.823   5.643   3.958 -1.7333  0.9975 -1.1173
 5438TIP3    H237730   1.854   5.495   3.946  2.5604  1.8036 -1.6273
 5439TIP3   OH237731   2.900   3.816   1.483  0.2250  0.0891  0.3816
 5439TIP3    H137732   2.843   3.889   1.461  2.5964  2.2687  0.9683
 5439TIP3    H237733   2.970   3.819   1.417 -0.0590 -2.2941 -0.1453
 5440TIP3   OH237734   0.916   6.634  13.611  0.3785 -0.5506  0.4382
 5440TIP3    H137735   0.980   6.684  13.560 -1.5646  1.2285 -0.4268
 5440TIP3    H237736   0.966   6.598  13.684  2.6939 -0.7800 -1.1319
 5441TIP3   OH237737   1.512   4.401   0.424 -0.1064  0.6230  0.3056
 5441TIP3    H137738   1.553   4.359   0.499 -0.4058  0.7258  0.5277
 5441TIP3    H237739   1.547   4.355   0.348  0.7700  1.0029  0.4663
 5442TIP3   OH237740   2.508   4.647   3.223 -0.1897  0.3649 -0.3313
 5442TIP3    H137741   2.525   4.630   3.131  1.7139 -0.9149  0.2031
 5442TIP3    H237742   2.581   4.606   3.269 -0.9981  1.1248  1.7446
 5443TIP3   OH237743   5.067   3.132  13.529  0.0457  0.0200 -0.1662
 5443TIP3    H137744   5.004   3.090  13.471 -0.6829 -0.1286  0.7054
 5443TIP3    H237745   5.023   3.135  13.614 -0.0560  2.8176 -0.2304
 5444TIP3   OH237746   1.969   6.616   5.998 -0.2448  0.0801  0.3564
 5444TIP3    H137747   1.954   6.541   5.941 -0.4405  0.3067  0.1088
 5444TIP3    H237748   2.061   6.640   5.982  0.3927 -1.1984  1.7476
 5445TIP3   OH237749   6.055   2.609  15.140 -0.1105  0.8708  0.1065
 5445TIP3    H137750   6.119   2.670  15.104 -1.4545  0.9815 -2.3159
 5445TIP3    H237751   5.999   2.664  15.197 -0.7932  1.7813 -1.3795
 5446TIP3   OH237752   5.408   5.995   2.841 -0.1238 -0.0192 -0.2390
 5446TIP3    H137753   5.408   5.914   2.892  0.6158  0.6701  0.9191
 5446TIP3    H237754   5.480   5.984   2.779  1.3422  0.5339  1.2968
 5447TIP3   OH237755   4.477   1.755   4.839 -0.1898  0.3601 -0.5756
 5447TIP3    H137756   4.441   1.843   4.851 -1.0945 -0.1380  0.4486
 5447TIP3    H237757   4.428   1.719   4.765 -0.3373  0.4430 -0.5190
 5448TIP3   OH237758   5.086   2.302   4.754 -0.0412 -0.5988 -0.3066
 5448TIP3    H137759   4.993   2.312   4.776  0.2723 -1.0680  1.3238
 5448TIP3    H237760   5.114   2.223   4.800  0.8807 -1.2126 -1.8253
 5449TIP3   OH237761   0.955   6.029  15.489 -0.2668  0.7157 -0.7881
 5449TIP3    H137762   0.895   5.960  15.460  0.5013  0.1929 -1.1649
 5449TIP3    H237763   1.001   6.056  15.410 -0.3333  1.4531 -0.5849
 5450TIP3   OH237764   2.286   4.538  12.672 -0.1187  0.5209  0.6094
 5450TIP3    H137765   2.240   4.492  12.602  1.7733 -1.1963  0.4086
 5450TIP3    H237766   2.303   4.625  12.636  0.9060 -0.3441 -1.1866
 5451TIP3   OH237767   0.760   6.680   4.457  0.2825 -0.3675 -0.0959
 5451TIP3    H137768   0.736   6.599   4.412  0.3149 -0.6185  0.3242
 5451TIP3    H237769   0.694   6.688   4.526  1.4299 -1.1241  1.1425
 5452TIP3   OH237770   0.710   1.937   4.388 -0.3499 -0.2026 -0.0347
 5452TIP3    H137771   0.780   1.907   4.445  0.8249  1.2056 -0.6484
 5452TIP3    H237772   0.703   2.031   4.407 -1.6120 -0.1940 -0.4673
 5453TIP3   OH237773   6.166   5.044   3.590 -0.2166  0.2017 -0.0833
 5453TIP3    H137774   6.172   5.068   3.497  0.7631  1.2318  0.2202
 5453TIP3    H237775   6.249   5.074   3.627 -0.0425 -1.3594  0.8848
 5454TIP3   OH237776   5.843   3.940   0.164  0.2871  0.2391 -0.8662
 5454TIP3    H137777   5.832   3.848   0.187  0.1315  0.4929  0.1332
 5454TIP3    H237778   5.812   3.988   0.241  0.8814  1.1175 -1.1548
 5455TIP3   OH237779   5.881   4.477   5.200 -0.1223 -0.0809 -0.6994
 5455TIP3    H137780   5.854   4.428   5.122  0.6911 -1.4518 -0.1713
 5455TIP3    H237781   5.974   4.455   5.210 -0.7602 -2.0613  2.0919
 5456TIP3   OH237782   1.964   0.026   4.027 -0.0557 -0.7453 -0.7777
 5456TIP3    H137783   1.894  -0.005   4.085 -0.7870 -0.0447 -1.2582
 5456TIP3    H237784   1.998  -0.053   3.986  0.0437 -1.1824  0.1245
 5457TIP3   OH237785   1.863   5.526  11.609  0.0564 -0.6329  0.1365
 5457TIP3    H137786   1.883   5.611  11.648  2.2072 -0.6848 -0.6824
 5457TIP3    H237787   1.821   5.476  11.678  0.2048  0.5759  1.1271
 5458TIP3   OH237788   6.402   4.681  13.173  0.0349  0.1622 -0.5957
 5458TIP3    H137789   6.399   4.673  13.268 -2.8211 -0.4420 -0.6342
 5458TIP3    H237790   6.347   4.610  13.141  0.2580  0.8453 -2.6659
 5459TIP3   OH237791   2.518   0.995  14.898  0.2063 -0.0030 -0.3606
 5459TIP3    H137792   2.497   0.904  14.920  2.0395 -0.2177  0.7454
 5459TIP3    H237793   2.500   1.043  14.979 -0.1860  0.5176 -0.7572
 5460TIP3   OH237794   5.991   3.258   2.111 -0.1333 -0.4773  0.0530
 5460TIP3    H137795   6.009   3.297   2.196  1.3248  0.4499 -0.6353
 5460TIP3    H237796   6.028   3.320   2.048  0.2456 -1.8937 -1.1768
 5461TIP3   OH237797   5.745   0.559   2.128  0.0650 -0.0961 -0.2428
 5461TIP3    H137798   5.767   0.487   2.187 -0.4101 -0.0668 -0.0193
 5461TIP3    H237799   5.742   0.519   2.041  1.3698 -0.0139 -0.3348
 5462TIP3   OH237800   1.480   1.685   4.855 -0.7011  0.3394 -0.3643
 5462TIP3    H137801   1.415   1.615   4.866 -2.4205  1.8343 -0.5313
 5462TIP3    H237802   1.518   1.696   4.942  0.3525 -1.4574 -0.5505
 5463TIP3   OH237803   5.647   5.139  16.574  0.9484  0.0492  0.5469
 5463TIP3    H137804   5.640   5.235  16.571  1.6431  0.0839 -1.4539
 5463TIP3    H237805   5.575   5.109  16.520  0.7757 -0.5724  1.1167
 5464TIP3   OH237806   1.887   0.482   5.317 -0.3492 -0.7332  0.1631
 5464TIP3    H137807   1.969   0.529   5.331 -0.7226 -0.5002  1.6693
 5464TIP3    H237808   1.889   0.458   5.224  0.6898  0.6597 -0.2061
 5465TIP3   OH237809   5.353   1.227  15.423  0.2220  0.4341 -0.2326
 5465TIP3    H137810   5.340   1.135  15.448 -1.3542  1.1987  2.0997
 5465TIP3    H237811   5.378   1.223  15.330  1.1344 -2.3690  0.0160
 5466TIP3   OH237812   5.517   6.712   4.866  0.4894 -0.0091 -0.4523
 5466TIP3    H137813   5.573   6.784   4.895 -0.3373  0.2371  0.6201
 5466TIP3    H237814   5.504   6.659   4.944 -3.4958  1.7886  0.3725
 5467TIP3   OH237815   4.900   0.497   4.655 -0.3068 -0.0490 -0.0577
 5467TIP3    H137816   4.813   0.458   4.658 -0.2804 -0.1731 -0.8398
 5467TIP3    H237817   4.954   0.432   4.608  0.1548  0.1265  0.2203
 5468TIP3   OH237818   5.278   1.162  11.540  0.0305  0.2022  0.4881
 5468TIP3    H137819   5.330   1.218  11.482 -0.0160  0.4077  0.6457
 5468TIP3    H237820   5.193   1.155  11.497  0.6648 -1.4437 -0.6088
 5469TIP3   OH237821   1.786   0.388   1.459 -0.3729  0.1134  0.0327
 5469TIP3    H137822   1.804   0.298   1.432 -0.4056  0.6550 -1.9504
 5469TIP3    H237823   1.810   0.391   1.552  2.4013 -1.1875 -0.5496
 5470TIP3   OH237824   0.514   0.693  14.678 -0.2677 -0.2327  0.4577
 5470TIP3    H137825   0.511   0.749  14.756 -3.0365  0.2089  0.1323
 5470TIP3    H237826   0.587   0.634  14.695  1.5120  2.1518  1.7103
 5471TIP3   OH237827   0.967   5.929   1.742 -0.0246 -0.0943 -0.0742
 5471TIP3    H137828   1.012   5.970   1.815 -1.6060  1.8244 -0.1018
 5471TIP3    H237829   1.036   5.912   1.678  0.9218  1.1583  0.5729
 5472TIP3   OH237830   4.726   6.327  15.993  0.5639  0.0900 -0.0107
 5472TIP3    H137831   4.650   6.334  15.936 -0.1151 -0.4481  0.7915
 5472TIP3    H237832   4.801   6.334  15.935 -0.1044  0.2220 -0.8738
 5473TIP3   OH237833   1.654   0.251  12.480  0.8843 -0.4283  0.2196
 5473TIP3    H137834   1.645   0.158  12.460  0.5311 -0.1607 -0.9395
 5473TIP3    H237835   1.734   0.257  12.532  0.5311 -1.4589  0.8963
 5474TIP3   OH237836   6.481   4.413  16.849  0.3334 -0.9541  0.2124
 5474TIP3    H137837   6.447   4.451  16.930  2.2838  0.1495  0.5578
 5474TIP3    H237838   6.487   4.487  16.789  2.4776 -1.0068  0.3036
 5475TIP3   OH237839   3.873   3.391   0.494 -0.1548 -0.1280 -1.0369
 5475TIP3    H137840   3.803   3.409   0.557  0.3747 -0.5683 -0.3009
 5475TIP3    H237841   3.834   3.328   0.433  0.1427 -1.9021  0.4970
 5476TIP3   OH237842   0.937   0.676  13.259 -0.2357  0.2182 -0.5531
 5476TIP3    H137843   0.922   0.584  13.240 -1.2012  0.3586 -0.5073
 5476TIP3    H237844   0.851   0.710  13.284 -0.0418  1.3055 -1.2881
 5477TIP3   OH237845   4.128   2.397   6.056 -0.4926 -0.1694 -0.5539
 5477TIP3    H137846   4.180   2.368   6.131 -2.0602  1.0521  1.0698
 5477TIP3    H237847   4.082   2.318   6.027  1.2811 -1.0106 -1.3073
 5478TIP3   OH237848   0.696   4.148   4.936 -0.1816 -0.6492 -0.1077
 5478TIP3    H137849   0.677   4.150   5.029 -0.3272  0.9710 -0.1541
 5478TIP3    H237850   0.697   4.054   4.914 -0.1152 -1.0521  1.5036
 5479TIP3   OH237851   3.357   4.110  15.630 -0.2529  0.2262 -0.2436
 5479TIP3    H137852   3.421   4.098  15.560 -0.7645  0.0335 -0.6802
 5479TIP3    H237853   3.285   4.157  15.589 -1.5393 -1.8070 -0.4417
 5480TIP3   OH237854   3.882   0.296   1.038 -0.4426 -0.4094  0.1431
 5480TIP3    H137855   3.972   0.280   1.011  0.1722  1.0915  1.1895
 5480TIP3    H237856   3.869   0.390   1.024 -1.5605 -0.4500  0.8143
 5481TIP3   OH237857   6.415   2.861  15.208 -0.0997  0.0149 -0.5082
 5481TIP3    H137858   6.463   2.792  15.254 -1.6653 -0.5502  0.3375
 5481TIP3    H237859   6.484   2.920  15.176  1.3036 -1.9992 -1.4426
 5482TIP3   OH237860   4.984   1.812  15.785  0.0306  0.0115  0.1495
 5482TIP3    H137861   4.918   1.865  15.831 -1.3174 -0.5923 -0.9961
 5482TIP3    H237862   5.016   1.869  15.716 -0.9354 -0.4054 -0.6682
 5483TIP3   OH237863   2.496   2.642   3.516 -0.0238 -0.0074 -0.5762
 5483TIP3    H137864   2.584   2.628   3.482  0.4395  0.5728  0.3518
 5483TIP3    H237865   2.508   2.654   3.610 -0.9154  1.6084 -0.6347
 5484TIP3   OH237866   0.199   4.104  15.099  0.5683 -0.1428 -0.0761
 5484TIP3    H137867   0.159   4.191  15.093 -1.1959 -0.7467  1.7482
 5484TIP3    H237868   0.194   4.069  15.010 -0.0826  1.0550 -0.5341
 5485TIP3   OH237869   5.183   3.784  12.307 -0.2369 -0.0337 -0.3259
 5485TIP3    H137870   5.100   3.737  12.312  0.7198 -1.6765  1.8980
 5485TIP3    H237871   5.220   3.758  12.222 -0.6055 -1.8568  0.0228
 5486TIP3   OH237872   4.984   3.728  16.447 -0.2243  0.2410  0.0657
 5486TIP3    H137873   4.916   3.757  16.386  0.0936  1.6370  0.3295
 5486TIP3    H237874   5.063   3.772  16.417  0.6912 -1.6654 -0.4652
 5487TIP3   OH237875   1.439   0.039   1.802  1.2070 -0.1555 -0.2437
 5487TIP3    H137876   1.411   0.086   1.880 -0.8727 -0.8796 -0.5049
 5487TIP3    H237877   1.456  -0.050   1.831  2.2603  0.0088 -0.3026
 5488TIP3   OH237878   5.646   6.457   4.558  0.1197 -0.0305 -0.1275
 5488TIP3    H137879   5.647   6.522   4.628 -2.2694 -0.6844  0.6037
 5488TIP3    H237880   5.569   6.478   4.505 -0.3154 -1.7987 -0.2930
 5489TIP3   OH237881   4.682   1.436  15.863  0.0784 -0.3193 -0.3233
 5489TIP3    H137882   4.756   1.461  15.808 -0.6056  2.0669 -0.3001
 5489TIP3    H237883   4.717   1.371  15.923  1.6544 -0.6336 -1.5240
 5490TIP3   OH237884   2.478   2.697   5.672  0.1674  0.3258  0.5212
 5490TIP3    H137885   2.501   2.648   5.751  1.4701  1.5306  0.9188
 5490TIP3    H237886   2.562   2.711   5.627 -0.2841  1.5125  0.0159
 5491TIP3   OH237887   5.121   2.555  13.820 -0.4886 -0.9989  0.6350
 5491TIP3    H137888   5.111   2.461  13.835  0.7314 -1.1973  0.3485
 5491TIP3    H237889   5.088   2.596  13.899 -0.1446 -1.7190  1.1614
 5492TIP3   OH237890   5.906   4.106  11.835 -1.0561 -0.4014 -0.0366
 5492TIP3    H137891   5.851   4.030  11.816  0.3799 -1.4936 -0.0002
 5492TIP3    H237892   5.905   4.157  11.753 -0.8613 -1.2366 -0.5744
 5493TIP3   OH237893   5.807   6.290   5.418  0.3876 -0.2226 -0.1368
 5493TIP3    H137894   5.791   6.294   5.512 -1.8525 -0.5976 -0.4513
 5493TIP3    H237895   5.902   6.297   5.410  0.5810  0.5436  2.0906
 5494TIP3   OH237896   3.940   0.389   3.376  0.5613  0.0724 -0.1776
 5494TIP3    H137897   3.940   0.483   3.391  1.5807  0.1549 -0.6320
 5494TIP3    H237898   4.032   0.366   3.366  0.3472 -1.0212  0.2150
 5495TIP3   OH237899   4.863   2.278  12.768  0.4432 -0.4081  0.5732
 5495TIP3    H137900   4.834   2.243  12.853  0.1335 -2.7734 -0.4169
 5495TIP3    H237901   4.801   2.241  12.705  1.9919 -0.5600 -0.9308
 5496TIP3   OH237902   6.683   6.211  13.937 -0.1692  0.1797 -0.3393
 5496TIP3    H137903   6.694   6.302  13.966 -1.4133  0.1180  0.4210
 5496TIP3    H237904   6.606   6.180  13.986  0.3362 -1.3348 -0.4598
 5497TIP3   OH237905   3.025   2.404   0.586  0.2667  0.6341 -0.1181
 5497TIP3    H137906   3.083   2.347   0.535  1.2098  1.6559 -0.2327
 5497TIP3    H237907   2.939   2.394   0.545  0.3686 -0.8150 -0.0310
 5498TIP3   OH237908   5.892   6.421  16.664 -0.0094  0.2071 -0.2348
 5498TIP3    H137909   5.807   6.379  16.653  0.1058 -0.3313  0.7890
 5498TIP3    H237910   5.938   6.403  16.582 -0.2195 -1.0932 -0.1019
 5499TIP3   OH237911   3.548   5.282  11.731  0.2158 -0.6602  0.3597
 5499TIP3    H137912   3.518   5.331  11.655 -0.9534 -1.6487  0.1569
 5499TIP3    H237913   3.482   5.214  11.743  1.0201 -1.2602  1.5316
 5500TIP3   OH237914   4.367   2.020   5.595  0.1419 -0.2471  0.4164
 5500TIP3    H137915   4.440   2.011   5.656  0.6755 -0.5937 -0.2639
 5500TIP3    H237916   4.408   2.035   5.510 -0.6053  0.6209  0.1979
 5501TIP3   OH237917   0.613   2.802   4.791  0.3453 -0.7054 -0.2111
 5501TIP3    H137918   0.620   2.758   4.707  0.1401  1.2725 -1.3125
 5501TIP3    H237919   0.681   2.762   4.845 -0.4287 -2.9869 -0.8125
 5502TIP3   OH237920   5.866   2.999  11.285 -0.1888 -0.1641 -0.1616
 5502TIP3    H137921   5.894   3.072  11.340 -1.0479 -0.6004  0.8979
 5502TIP3    H237922   5.828   3.040  11.208  0.4230  0.4828 -0.1286
 5503TIP3   OH237923   4.200   6.072   5.773 -0.0904 -0.1619  0.2651
 5503TIP3    H137924   4.145   6.134   5.821 -0.8440 -0.9161  0.3981
 5503TIP3    H237925   4.138   6.013   5.730  0.6084 -0.6035 -0.1556
 5504TIP3   OH237926   5.444   6.440  13.141  0.2410 -0.4006  0.0811
 5504TIP3    H137927   5.487   6.491  13.210  0.6058  0.2944 -0.6521
 5504TIP3    H237928   5.366   6.404  13.183  0.2278  0.3689  0.7434
 5505TIP3   OH237929   5.403   3.054   3.016  0.6244 -0.4555  0.1267
 5505TIP3    H137930   5.430   3.029   3.104 -0.6064  1.5929  1.1700
 5505TIP3    H237931   5.410   3.150   3.015 -1.9553 -0.1844 -1.0695
 5506TIP3   OH237932   4.292   4.220   2.438 -0.2775 -0.6653 -0.1634
 5506TIP3    H137933   4.228   4.181   2.498 -0.3509  1.1782  1.0710
 5506TIP3    H237934   4.239   4.258   2.368 -0.5365  0.2394  0.4906
 5507TIP3   OH237935   2.233   3.246   1.030 -0.7474 -0.2431  0.0475
 5507TIP3    H137936   2.177   3.256   1.107 -0.8565 -2.5050  0.3329
 5507TIP3    H237937   2.316   3.214   1.064 -0.3806 -0.0901 -0.6869
 5508TIP3   OH237938   5.713   3.298   4.894  0.0140 -0.1695  0.0901
 5508TIP3    H137939   5.690   3.363   4.827  1.0286  0.3108  0.1953
 5508TIP3    H237940   5.774   3.239   4.851  1.5374  0.7813  0.8737
 5509TIP3   OH237941   5.404   4.017   4.645  0.8891  0.4118  0.6785
 5509TIP3    H137942   5.489   3.973   4.649  0.5449 -0.3346  0.0327
 5509TIP3    H237943   5.382   4.020   4.552  1.1903  2.5538  0.6288
 5510TIP3   OH237944   5.619   3.205   5.485  0.0731  0.2903  0.5500
 5510TIP3    H137945   5.565   3.268   5.533  0.3470  0.7809  0.2197
 5510TIP3    H237946   5.560   3.133   5.465 -0.4259  0.7519  0.3349
 5511TIP3   OH237947   0.701   0.996  11.256 -0.4238 -0.2938 -0.4922
 5511TIP3    H137948   0.782   1.034  11.221 -0.3429 -0.1647 -0.1664
 5511TIP3    H237949   0.661   1.068  11.305  0.7647 -1.1732  1.9258
 5512TIP3   OH237950   3.724   0.165   4.577 -0.0518  0.1932  0.7672
 5512TIP3    H137951   3.659   0.212   4.525  0.9934  1.0346  0.1767
 5512TIP3    H237952   3.694   0.074   4.577  0.4806 -0.0833 -2.2950
 5513TIP3   OH237953   1.071   3.578   2.639  0.2388  0.3013  0.4678
 5513TIP3    H137954   1.052   3.549   2.728 -0.4990 -2.3640 -0.4752
 5513TIP3    H237955   1.165   3.563   2.628 -0.0997 -1.8266  0.0501
 5514TIP3   OH237956   5.984   1.885  14.834 -0.2354 -0.1666 -0.0463
 5514TIP3    H137957   6.077   1.910  14.833 -0.2642 -0.0841 -1.0935
 5514TIP3    H237958   5.938   1.968  14.850 -0.2029  0.0693 -1.1122
 5515TIP3   OH237959   0.709   2.222   2.614  0.5627 -0.0632  0.4371
 5515TIP3    H137960   0.709   2.182   2.700 -0.1567  1.5312  1.2135
 5515TIP3    H237961   0.794   2.267   2.608  0.7350 -0.4131  0.1788
 5516TIP3   OH237962   6.301   0.871  16.151 -0.0176  0.6971 -0.5163
 5516TIP3    H137963   6.254   0.850  16.232 -2.1866 -0.0331 -1.8820
 5516TIP3    H237964   6.324   0.786  16.115  0.3954  0.9983 -0.9669
 5517TIP3   OH237965   6.195   5.766  10.508 -0.3044 -0.4756 -0.0744
 5517TIP3    H137966   6.104   5.772  10.481 -0.8336  0.5557  1.8248
 5517TIP3    H237967   6.194   5.712  10.587  0.6132  0.2300  0.4448
 5518TIP3   OH237968   3.983   6.572  13.061 -0.2816  0.1252  0.0798
 5518TIP3    H137969   3.910   6.539  13.115 -1.1744 -2.3807 -2.4089
 5518TIP3    H237970   3.942   6.632  12.999 -0.0713 -0.4338 -0.6134
 5519TIP3   OH237971   5.395   4.157   1.514  0.4247  0.0172 -0.2127
 5519TIP3    H137972   5.304   4.177   1.537  0.5627 -0.6144  0.9594
 5519TIP3    H237973   5.390   4.116   1.428 -0.4433 -0.4143  0.0348
 5520TIP3   OH237974   3.355   2.031   1.941  0.1420  0.0315  0.4279
 5520TIP3    H137975   3.305   2.065   2.015 -0.6731  0.9788 -0.5061
 5520TIP3    H237976   3.289   1.990   1.884  0.2806  1.7521 -1.0800
 5521TIP3   OH237977   1.522   3.370   5.567  0.2304 -0.2824 -0.0974
 5521TIP3    H137978   1.586   3.438   5.589 -1.0261  0.5292  1.2854
 5521TIP3    H237979   1.496   3.390   5.477  0.5846  0.4992 -0.0390
 5522TIP3   OH237980   1.285   2.537  11.772  0.3045 -0.3388 -0.3473
 5522TIP3    H137981   1.207   2.589  11.752  0.1877 -0.5042 -0.3255
 5522TIP3    H237982   1.329   2.585  11.842 -0.9580 -1.3884  1.2345
 5523TIP3   OH237983   6.702   2.856  16.058  0.6725 -0.0661  0.1953
 5523TIP3    H137984   6.622   2.838  16.009  0.4584  0.2483  0.4301
 5523TIP3    H237985   6.770   2.806  16.012  0.6096  0.7636 -0.8378
 5524TIP3   OH237986   5.836   1.661  14.796  0.2951  0.5063 -0.3625
 5524TIP3    H137987   5.758   1.716  14.805 -0.3124  0.0385 -2.2310
 5524TIP3    H237988   5.909   1.721  14.810 -0.3801  1.2099  0.2509
 5525TIP3   OH237989   4.853   0.534  14.900  0.4808  0.1829 -0.0159
 5525TIP3    H137990   4.840   0.494  14.814 -2.1156  2.6258 -0.9142
 5525TIP3    H237991   4.875   0.625  14.881 -1.8944  1.2480  1.8042
 5526TIP3   OH237992   4.705   5.442  15.268  0.4401 -0.9802 -1.0504
 5526TIP3    H137993   4.672   5.352  15.272 -0.2988 -0.7028 -0.8534
 5526TIP3    H237994   4.787   5.439  15.318 -0.7821 -1.0336  1.0781
 5527TIP3   OH237995   4.470   0.702   6.280  0.1442  0.3596 -0.0911
 5527TIP3    H137996   4.551   0.670   6.319 -0.2117 -0.6206 -0.1406
 5527TIP3    H237997   4.404   0.637   6.302 -0.3422  0.4357 -1.2111
 5528TIP3   OH237998   0.466   3.937   6.503 -0.3435  0.0136 -0.5167
 5528TIP3    H137999   0.439   4.015   6.455 -0.9657 -0.0085 -0.2107
 5528TIP3    H238000   0.398   3.924   6.568  0.7324  0.3363  0.7200
 5529TIP3   OH238001   0.787   2.020  16.359  0.0750 -0.1705  0.3372
 5529TIP3    H138002   0.803   2.047  16.450 -3.0012 -1.4177  1.3664
 5529TIP3    H238003   0.827   1.933  16.352  0.1030 -0.1745  0.5425
 5530TIP3   OH238004   0.815   4.754   4.062  0.0204  0.1781  0.1501
 5530TIP3    H138005   0.778   4.668   4.045  0.9742 -0.2660  0.2788
 5530TIP3    H238006   0.905   4.737   4.088  0.8327  1.3025 -1.7022
 5531TIP3   OH238007   6.306   2.266  14.765  0.0625 -0.0689 -0.3585
 5531TIP3    H138008   6.391   2.244  14.725  0.4040  0.8113 -0.1271
 5531TIP3    H238009   6.313   2.359  14.786 -0.9495 -0.0050 -0.2887
 5532TIP3   OH238010   2.939   2.643   5.191  0.7169  0.3773  0.2632
 5532TIP3    H138011   3.007   2.705   5.215 -0.6232  0.6379  4.0272
 5532TIP3    H238012   2.888   2.687   5.122  3.9922  0.2409 -2.5017
 5533TIP3   OH238013   6.577   1.639   2.818 -0.6343 -0.1072 -0.6001
 5533TIP3    H138014   6.608   1.549   2.835 -0.9664 -0.0510  0.3686
 5533TIP3    H238015   6.614   1.661   2.733  0.9458 -0.5173 -0.0600
 5534TIP3   OH238016   5.464   4.430  17.183  0.1668  0.4769  0.1272
 5534TIP3    H138017   5.542   4.403  17.135 -1.8035 -1.9925 -2.0077
 5534TIP3    H238018   5.449   4.358  17.245 -0.0998  1.2364  0.9604
 5535TIP3   OH238019   6.777   5.025   5.168 -0.3463  0.1603 -0.2279
 5535TIP3    H138020   6.771   5.118   5.144  1.1980  0.9319  2.0603
 5535TIP3    H238021   6.688   5.001   5.192 -1.1266  0.4793 -2.5491
 5536TIP3   OH238022   2.760   5.364  13.030 -0.4891 -0.1544  0.2618
 5536TIP3    H138023   2.759   5.269  13.045  0.1510 -0.0580  0.9769
 5536TIP3    H238024   2.822   5.397  13.094 -1.2621  0.8401  0.5090
 5537TIP3   OH238025   1.272   1.504   5.737 -0.0180 -0.3732 -0.1719
 5537TIP3    H138026   1.329   1.520   5.661  0.9856  1.2492  0.8557
 5537TIP3    H238027   1.330   1.465   5.803 -0.7731 -1.3228 -0.0492
 5538TIP3   OH238028   3.040   2.539   2.414 -0.0325 -0.4354 -0.4092
 5538TIP3    H138029   2.983   2.605   2.453  0.4286  1.2944 -2.4501
 5538TIP3    H238030   3.128   2.577   2.420  0.7761 -2.3879  1.3268
 5539TIP3   OH238031   4.895   6.038  15.994 -0.1196 -0.0569 -0.1842
 5539TIP3    H138032   4.934   5.972  16.052  1.2748  0.2195 -0.7497
 5539TIP3    H238033   4.937   6.120  16.021 -1.1851  0.4631 -0.0680
 5540TIP3   OH238034   2.209   3.789  15.766  0.2515 -0.3587  0.1876
 5540TIP3    H138035   2.186   3.851  15.835 -1.2213 -0.2840 -0.3383
 5540TIP3    H238036   2.299   3.812  15.742  1.1464 -0.9576  2.6597
 5541TIP3   OH238037   3.573   0.808  13.642  0.5284  0.6988 -0.4698
 5541TIP3    H138038   3.534   0.765  13.566  0.5054 -2.0154  0.9529
 5541TIP3    H238039   3.647   0.752  13.665  0.5338  1.4484  1.5013
 5542TIP3   OH238040   3.596   4.958  13.304 -0.3851  0.4551 -0.6283
 5542TIP3    H138041   3.533   4.922  13.242 -0.3931  0.8223 -0.8285
 5542TIP3    H238042   3.636   4.880  13.344 -1.6659  0.2004  0.2341
 5543TIP3   OH238043   1.845   4.059   1.746  0.0174  0.1217  0.0520
 5543TIP3    H138044   1.846   4.078   1.840  1.8089 -1.3801  0.3766
 5543TIP3    H238045   1.881   4.138   1.706  1.7108 -0.1801  0.8815
 5544TIP3   OH238046   1.951   0.758  14.037 -0.7488 -0.2455  0.0816
 5544TIP3    H138047   1.885   0.740  13.971 -0.3705 -1.0421 -0.0947
 5544TIP3    H238048   2.031   0.720  14.002 -0.0125  1.3370 -0.0360
 5545TIP3   OH238049   0.573   3.990  13.125  0.5543  0.5198 -0.3460
 5545TIP3    H138050   0.625   3.948  13.193  0.3952  1.2425  0.2349
 5545TIP3    H238051   0.545   4.073  13.163  1.5321  1.5365 -1.7270
 5546TIP3   OH238052   1.619   0.268  11.498  0.1209  0.3678  0.1961
 5546TIP3    H138053   1.673   0.331  11.450 -0.7135  0.6516 -0.3990
 5546TIP3    H238054   1.553   0.240  11.434  0.1532 -0.7051  0.6175
 5547TIP3   OH238055   3.062   0.121  12.953 -0.3008 -0.7127 -0.2014
 5547TIP3    H138056   3.016   0.040  12.971  0.4745 -1.4264 -1.2823
 5547TIP3    H238057   2.993   0.181  12.923 -1.5257  0.3320  4.0533
 5548TIP3   OH238058   1.154   0.842   6.058  0.8177 -0.2661 -0.6694
 5548TIP3    H138059   1.078   0.807   6.105 -0.9924  1.4664 -2.1367
 5548TIP3    H238060   1.219   0.772   6.062 -0.6299 -1.6082  1.1198
 5549TIP3   OH238061   1.259   0.886   1.702  0.6773 -0.7676  0.2698
 5549TIP3    H138062   1.349   0.877   1.733  0.0892 -1.4318  1.8904
 5549TIP3    H238063   1.207   0.893   1.782 -0.8192 -1.3832 -0.6073
 5550TIP3   OH238064   2.996   1.949  14.779 -0.2577  0.2877  0.1249
 5550TIP3    H138065   2.959   2.005  14.848  0.9699  2.5611 -0.9553
 5550TIP3    H238066   3.086   1.934  14.807 -0.8309 -2.0944  0.8939
 5551TIP3   OH238067   3.175   0.519  17.005  0.0254  0.8622  0.4892
 5551TIP3    H138068   3.168   0.614  17.019 -1.1464  0.5561  2.3733
 5551TIP3    H238069   3.090   0.494  16.969  0.7137  0.6506 -1.0451
 5552TIP3   OH238070   3.827   0.944   1.557 -0.2023 -0.1606  0.2914
 5552TIP3    H138071   3.827   1.012   1.490  0.4236 -0.3385  0.1053
 5552TIP3    H238072   3.871   0.870   1.516  1.9188  0.3365  1.5094
 5553TIP3   OH238073   5.460   1.868  14.570 -0.1650  0.3813  0.3597
 5553TIP3    H138074   5.462   1.776  14.543 -1.1069  0.8896 -1.6235
 5553TIP3    H238075   5.553   1.892  14.578  0.1005 -0.5465  0.2019
 5554TIP3   OH238076   4.555   2.306   1.046  0.3406  0.3820  0.2846
 5554TIP3    H138077   4.614   2.356   0.989  0.9068  2.2610  2.3611
 5554TIP3    H238078   4.554   2.219   1.009  2.1599  1.0465 -1.5068
 5555TIP3   OH238079   6.540   5.185   4.088 -0.3079 -0.3803 -0.0176
 5555TIP3    H138080   6.508   5.095   4.079  0.2646 -0.7500  1.3825
 5555TIP3    H238081   6.596   5.199   4.012 -0.1442 -1.3301 -0.0782
 5556TIP3   OH238082   1.884   2.641  13.096 -0.6094  1.0429 -0.2997
 5556TIP3    H138083   1.790   2.627  13.111 -0.5950  0.7013 -0.4965
 5556TIP3    H238084   1.915   2.556  13.064 -0.0458  0.8710  0.6749
 5557TIP3   OH238085   3.167   3.164  11.194 -0.2711 -0.2981  0.3659
 5557TIP3    H138086   3.235   3.201  11.138 -1.2114  1.6775  0.4342
 5557TIP3    H238087   3.093   3.147  11.134  0.0176 -1.8242  0.3984
 5558TIP3   OH238088   4.997   2.635   4.602 -0.2506  0.5476  0.1764
 5558TIP3    H138089   5.061   2.570   4.574 -0.9983 -0.6275  1.0466
 5558TIP3    H238090   4.966   2.603   4.687 -0.0018  2.5430  1.0793
 5559TIP3   OH238091   3.155   4.935   4.939  0.4906  0.3475  0.3138
 5559TIP3    H138092   3.201   4.851   4.933  1.0748  0.7375 -2.6333
 5559TIP3    H238093   3.225   5.000   4.946  0.0148  0.6395  3.8061
 5560TIP3   OH238094   3.707   0.983  14.229  0.0720  0.0559  0.7202
 5560TIP3    H138095   3.748   1.028  14.155 -1.0237  0.9850  0.6483
 5560TIP3    H238096   3.639   0.929  14.189  1.7145 -2.1688  0.7509
 5561TIP3   OH238097   3.025   5.125   4.578 -0.0160  0.3492  0.2293
 5561TIP3    H138098   2.986   5.064   4.641 -2.9284  1.4741 -0.2912
 5561TIP3    H238099   3.066   5.069   4.512 -2.4599 -1.1375 -0.1545
 5562TIP3   OH238100   0.968   5.105  16.125 -0.3834 -0.2751 -0.1736
 5562TIP3    H138101   0.975   5.068  16.213 -0.1723 -0.5409 -0.3038
 5562TIP3    H238102   0.945   5.197  16.140  0.1080 -0.2052  0.1702
 5563TIP3   OH238103   0.650   1.293  11.288  0.0640  0.6617 -0.0418
 5563TIP3    H138104   0.726   1.295  11.230 -0.0230 -0.4345 -0.2215
 5563TIP3    H238105   0.575   1.307  11.230 -0.0094 -0.2572 -0.1849
 5564TIP3   OH238106   1.481   3.951   0.508  0.5317 -0.3215  0.0919
 5564TIP3    H138107   1.389   3.976   0.516  1.0200  0.9773  2.4610
 5564TIP3    H238108   1.505   3.918   0.595  2.4229 -0.2024 -0.3407
 5565TIP3   OH238109   6.284   5.697  15.402  0.3509 -0.6935 -0.1254
 5565TIP3    H138110   6.315   5.641  15.473 -0.8471 -0.9307  0.2184
 5565TIP3    H238111   6.191   5.678  15.394  0.5550 -1.0913 -2.1469
 5566TIP3   OH238112   4.021   2.535   2.479 -0.3005  0.0272 -0.5760
 5566TIP3    H138113   3.966   2.533   2.400  0.1489  3.5600 -1.1845
 5566TIP3    H238114   4.090   2.598   2.457  1.0187 -0.4210  1.9601
 5567TIP3   OH238115   6.135   3.720  11.659  0.0903  0.1084  0.1245
 5567TIP3    H138116   6.144   3.767  11.576  0.1094 -1.3624 -0.7302
 5567TIP3    H238117   6.048   3.746  11.692 -0.1760  0.2372 -0.6609
 5568TIP3   OH238118   1.798   1.421  13.908  0.1360  0.3772  0.1681
 5568TIP3    H138119   1.703   1.420  13.905  0.1551 -1.1941 -1.1422
 5568TIP3    H238120   1.822   1.370  13.985 -0.0570  1.0265  0.6702
 5569TIP3   OH238121   3.943   0.558  15.224 -0.2635 -0.2135  0.5451
 5569TIP3    H138122   3.928   0.478  15.275  0.4257 -1.7987 -1.5718
 5569TIP3    H238123   3.865   0.567  15.169 -0.2678  0.5013  0.6594
 5570TIP3   OH238124   3.454   6.006  15.265  0.2027  0.2506 -0.5464
 5570TIP3    H138125   3.488   5.942  15.202 -0.9939 -0.5329 -0.4385
 5570TIP3    H238126   3.430   5.953  15.341 -1.2415  0.7376 -0.6290
 5571TIP3   OH238127   4.687   3.160   1.800 -0.2595  0.1684  0.4707
 5571TIP3    H138128   4.619   3.180   1.736 -0.2200 -0.6029  0.1774
 5571TIP3    H238129   4.686   3.065   1.806 -1.1542  0.2621  2.5847
 5572TIP3   OH238130   2.218   0.846  11.097  0.0510 -0.3622  0.0987
 5572TIP3    H138131   2.145   0.893  11.056 -0.2846 -1.2569 -0.3459
 5572TIP3    H238132   2.280   0.832  11.026  0.3367 -0.2290  0.3226
 5573TIP3   OH238133   3.767   1.266   5.437 -0.4841  0.1486 -0.1558
 5573TIP3    H138134   3.805   1.331   5.377 -1.6665 -0.2848 -1.4410
 5573TIP3    H238135   3.713   1.210   5.380  1.0993 -2.4659  0.7649
 5574TIP3   OH238136   3.409   0.847  12.132 -0.5035 -0.2601 -0.1644
 5574TIP3    H138137   3.367   0.921  12.175 -1.3455 -1.2142  0.6982
 5574TIP3    H238138   3.375   0.850  12.042 -0.7949  0.2017 -0.0454
 5575TIP3   OH238139   3.314   4.502  16.488  0.5188  0.4136  0.0291
 5575TIP3    H138140   3.313   4.598  16.494 -1.1532  0.3829  0.9311
 5575TIP3    H238141   3.370   4.473  16.560  0.9989  0.7039 -0.2249
 5576TIP3   OH238142   2.871   2.404   4.410 -0.1269  0.7805  0.3918
 5576TIP3    H138143   2.821   2.481   4.439 -0.2026  0.7353  0.3789
 5576TIP3    H238144   2.932   2.439   4.345 -0.0635  0.8553  0.4887
 5577TIP3   OH238145   2.385   0.377  13.650 -0.3297 -0.2273  0.5569
 5577TIP3    H138146   2.311   0.436  13.632 -0.8631 -0.8816  0.5489
 5577TIP3    H238147   2.462   0.431  13.639 -0.6981 -0.0448 -1.6216
 5578TIP3   OH238148   1.120   2.103  15.945  0.0051 -0.0304  0.3995
 5578TIP3    H138149   1.097   2.039  15.878  1.1911 -0.3837  0.2961
 5578TIP3    H238150   1.063   2.083  16.019 -0.8398 -0.0776 -0.2473
 5579TIP3   OH238151   3.945   0.064  14.132 -0.5023  0.4808  0.3354
 5579TIP3    H138152   3.972   0.127  14.199  0.1614  0.4529  0.1031
 5579TIP3    H238153   3.967   0.107  14.049 -2.0067  0.8397  0.0892
 5580TIP3   OH238154   0.558   2.687  11.509 -0.1551 -0.0914 -0.1683
 5580TIP3    H138155   0.652   2.702  11.502 -0.3132  0.5593 -0.9765
 5580TIP3    H238156   0.531   2.661  11.421 -0.4463 -2.0944  0.4476
 5581TIP3   OH238157   6.054   4.717   3.361 -0.3502  0.0625 -0.0836
 5581TIP3    H138158   6.127   4.759   3.314 -0.5913  0.1496 -0.3804
 5581TIP3    H238159   5.994   4.789   3.381 -0.5170 -0.0614 -0.1365
 5582TIP3   OH238160   3.062   5.824  14.025 -0.1091 -0.5914  0.1237
 5582TIP3    H138161   3.064   5.902  14.081 -1.0300 -0.5629  0.1253
 5582TIP3    H238162   3.100   5.854  13.942 -1.0589  0.0512 -0.0972
 5583TIP3   OH238163   0.949   2.430  17.121  0.0591  0.0093 -0.1927
 5583TIP3    H138164   0.990   2.515  17.131 -0.7975  0.2433  1.9864
 5583TIP3    H238165   1.021   2.367  17.121  0.6147  0.6447 -0.3034
 5584TIP3   OH238166   1.647   5.328   2.243  0.0506 -0.0780  0.2045
 5584TIP3    H138167   1.689   5.316   2.158  0.1238  1.0033  0.0791
 5584TIP3    H238168   1.562   5.285   2.233 -0.2628  0.7101 -0.6852
 5585TIP3   OH238169   2.862   4.732   3.579  0.4666 -0.2984 -0.4660
 5585TIP3    H138170   2.784   4.677   3.588 -0.9139  1.6970  0.3366
 5585TIP3    H238171   2.916   4.686   3.514 -0.4100 -2.7638  0.4380
 5586TIP3   OH238172   1.034   4.909  15.151  0.6532  0.3604  0.1693
 5586TIP3    H138173   1.021   4.846  15.222  0.2680 -1.6583 -1.6009
 5586TIP3    H238174   1.128   4.930  15.155  0.3521  1.5740  2.2337
 5587TIP3   OH238175   0.936   4.840  12.347  0.0429 -0.3744 -0.2157
 5587TIP3    H138176   1.010   4.900  12.353  0.0955 -0.3355 -1.1239
 5587TIP3    H238177   0.859   4.895  12.358  0.1270 -0.2955 -0.0295
 5588TIP3   OH238178   5.954   5.359   3.036  0.0049 -0.6735  0.2860
 5588TIP3    H138179   5.949   5.452   3.013  0.3374 -1.0392 -1.3567
 5588TIP3    H238180   5.873   5.322   3.002  0.0437 -1.0543  0.6119
 5589TIP3   OH238181   2.661   3.619  10.520  0.3639 -0.2420 -0.1760
 5589TIP3    H138182   2.640   3.551  10.457  2.2091 -0.0091 -1.1063
 5589TIP3    H238183   2.717   3.576  10.585 -0.0886 -0.0627  0.3447
 5590TIP3   OH238184   3.763   3.324   6.473  0.4099 -0.3998  0.1991
 5590TIP3    H138185   3.746   3.273   6.552  1.2967 -3.3672 -1.4106
 5590TIP3    H238186   3.854   3.306   6.451  0.3768  0.8835 -1.1674
 5591TIP3   OH238187   5.225   0.862  12.248  0.0855  0.3802  0.0003
 5591TIP3    H138188   5.219   0.896  12.159 -1.3085 -1.4707 -0.6998
 5591TIP3    H238189   5.300   0.906  12.287  0.4398  1.5689 -1.9401
 5592TIP3   OH238190   4.833   5.608  11.885 -0.4337  0.2633 -0.0333
 5592TIP3    H138191   4.828   5.538  11.950  1.2900  2.4183  2.6122
 5592TIP3    H238192   4.875   5.567  11.809  2.1070 -1.2625  2.0206
 5593TIP3   OH238193   5.750   4.928  15.424  0.0560 -0.2962 -0.1107
 5593TIP3    H138194   5.757   5.005  15.368 -0.9890  0.4111  0.6867
 5593TIP3    H238195   5.702   4.864  15.372 -0.2702  0.0916 -0.2943
 5594TIP3   OH238196   1.164   1.270   1.889  0.2290  0.3940  0.6232
 5594TIP3    H138197   1.240   1.230   1.930 -0.2486 -0.0604  1.0780
 5594TIP3    H238198   1.105   1.290   1.962 -0.0584  0.8028  0.2828
 5595TIP3   OH238199   6.681   0.791  11.466  0.0616 -0.2464  0.3472
 5595TIP3    H138200   6.671   0.713  11.521  2.8372 -1.4351 -0.6651
 5595TIP3    H238201   6.619   0.778  11.394  0.8108 -1.8356 -0.0639
 5596TIP3   OH238202   0.762   1.062   5.006  0.2171 -0.3832  0.4016
 5596TIP3    H138203   0.744   0.987   4.949  0.5110  0.2392 -0.5286
 5596TIP3    H238204   0.854   1.051   5.032  0.6749  0.3546 -0.8331
 5597TIP3   OH238205   0.721   3.903   5.920 -0.4587  0.5254  0.2498
 5597TIP3    H138206   0.775   3.910   5.842  0.8560  0.2531  1.1021
 5597TIP3    H238207   0.683   3.990   5.931  1.6454  1.4357  0.8745
 5598TIP3   OH238208   5.701   4.149  16.012 -0.3159  0.8816  0.1861
 5598TIP3    H138209   5.672   4.166  15.923  1.4073  3.9335  0.0769
 5598TIP3    H238210   5.645   4.203  16.067  0.3178  1.0594  0.6826
 5599TIP3   OH238211   6.642   6.728  11.020  0.2513  0.2216 -0.1147
 5599TIP3    H138212   6.680   6.715  11.107  0.0517  0.9818  0.0933
 5599TIP3    H238213   6.687   6.665  10.964  0.2905 -0.3690  0.5645
 5600TIP3   OH238214   2.029   3.157  13.982  0.0562  0.2702 -0.4948
 5600TIP3    H138215   2.029   3.116  13.895  2.2388 -0.7831 -0.0658
 5600TIP3    H238216   2.012   3.085  14.042 -1.1981  0.9548  0.0009
 5601TIP3   OH238217   2.704   1.020   0.657  0.1315  0.4758  0.1813
 5601TIP3    H138218   2.692   0.950   0.721  0.0736 -1.3139 -1.6967
 5601TIP3    H238219   2.616   1.053   0.639  0.1820  1.2594  1.2460
 5602TIP3   OH238220   2.133   5.982  11.208  0.4398 -0.1502 -0.1045
 5602TIP3    H138221   2.112   5.963  11.300  0.3247 -1.5410 -0.4094
 5602TIP3    H238222   2.185   5.908  11.178 -0.2771 -0.1538 -1.4216
 5603TIP3   OH238223   4.701   5.957   3.241  0.1710  0.0281 -0.6461
 5603TIP3    H138224   4.623   5.917   3.204  0.2255 -0.0839 -0.6400
 5603TIP3    H238225   4.717   6.035   3.186 -1.2983  1.3906  0.7591
 5604TIP3   OH238226   6.042   3.886   6.234  0.5435 -0.4562 -0.4906
 5604TIP3    H138227   6.039   3.975   6.269 -0.5828 -0.1065 -1.4226
 5604TIP3    H238228   5.986   3.889   6.156 -0.7376 -2.3310  0.2829
 5605TIP3   OH238229   5.219   4.440   1.319  0.0992 -0.2943  0.4524
 5605TIP3    H138230   5.303   4.396   1.334 -0.7866 -1.5926  1.8631
 5605TIP3    H238231   5.182   4.397   1.242 -0.1031 -1.0740  0.9650
 5606TIP3   OH238232   2.064   2.918   5.454  0.7466  0.3702  0.0028
 5606TIP3    H138233   2.030   2.902   5.542  0.3201 -0.3677 -0.2840
 5606TIP3    H238234   2.080   3.012   5.451 -1.1316  0.7322  0.2279
 5607TIP3   OH238235   4.603   1.160  15.337  0.2424  0.1641  0.1570
 5607TIP3    H138236   4.608   1.218  15.261 -0.3095  0.2367  0.1726
 5607TIP3    H238237   4.678   1.186  15.392  2.1463 -1.5234 -1.4860
 5608TIP3   OH238238   2.853   0.944  13.530  0.3906 -0.1075 -0.1036
 5608TIP3    H138239   2.899   1.028  13.523 -1.4847  1.0078  0.4513
 5608TIP3    H238240   2.923   0.879  13.527  1.8922  1.4492 -0.6954
 5609TIP3   OH238241   3.745   5.250   4.676  0.0699  0.2058 -0.2402
 5609TIP3    H138242   3.775   5.294   4.756  1.2090 -0.2608 -0.3855
 5609TIP3    H238243   3.722   5.162   4.704 -0.3792  0.3095 -0.2790
 5610TIP3   OH238244   1.680   2.620   3.904  0.2164  0.1597 -0.0524
 5610TIP3    H138245   1.754   2.673   3.932  0.6702 -1.0854  1.2037
 5610TIP3    H238246   1.606   2.681   3.904  0.8031  0.8960  0.9027
 5611TIP3   OH238247   0.870   6.335  13.169 -0.2139  0.5232  0.0783
 5611TIP3    H138248   0.866   6.282  13.249 -0.2350 -1.4422 -1.1517
 5611TIP3    H238249   0.858   6.425  13.199  2.4270  0.2023  2.6378
 5612TIP3   OH238250   2.465   4.239  15.191  0.3009  0.3247 -0.2264
 5612TIP3    H138251   2.452   4.147  15.169  0.2803  0.4933 -0.9347
 5612TIP3    H238252   2.514   4.275  15.117 -0.4632  1.0850 -0.3768
 5613TIP3   OH238253   0.975   2.241   3.515  0.3220 -0.4519 -0.0387
 5613TIP3    H138254   0.881   2.253   3.503  0.6002  0.4814 -1.4639
 5613TIP3    H238255   0.982   2.173   3.583 -1.3871 -2.4766 -1.7255
 5614TIP3   OH238256   1.836   0.655   4.853  0.0997  0.3388  0.1881
 5614TIP3    H138257   1.744   0.674   4.833  0.3431  0.6698 -0.6534
 5614TIP3    H238258   1.875   0.740   4.871 -0.1031  0.0597  2.1702
 5615TIP3   OH238259   0.914   3.622   1.165 -0.1563 -0.6441 -0.8889
 5615TIP3    H138260   0.854   3.686   1.205  3.7182  1.2036  2.6697
 5615TIP3    H238261   0.890   3.538   1.204 -0.0556  0.1877  1.0454
 5616TIP3   OH238262   0.067   6.100  15.016 -0.2090 -0.6116  0.5949
 5616TIP3    H138263  -0.014   6.080  15.062 -0.6313 -0.3014  0.0069
 5616TIP3    H238264   0.125   6.026  15.035 -1.2055 -1.6700 -0.3198
 5617TIP3   OH238265   3.346   5.015   3.150 -0.2175  0.3072  0.0695
 5617TIP3    H138266   3.282   4.956   3.191 -1.1119  1.4619  0.3879
 5617TIP3    H238267   3.323   5.014   3.057  0.7392 -0.9865 -0.1963
 5618TIP3   OH238268   1.205   0.784  14.569  0.0091 -0.6697 -0.0941
 5618TIP3    H138269   1.175   0.701  14.532 -0.5211 -0.1258 -0.9092
 5618TIP3    H238270   1.128   0.841  14.567  0.3593 -0.1627  0.4876
 5619TIP3   OH238271   6.405   3.374   5.118  0.2081  0.4453  0.1541
 5619TIP3    H138272   6.463   3.362   5.194  1.9922  0.8087 -1.0779
 5619TIP3    H238273   6.437   3.454   5.076 -1.2099  0.6492 -0.5814
 5620TIP3   OH238274   3.067   4.514   0.601  0.1053  0.6564 -0.2879
 5620TIP3    H138275   2.998   4.463   0.558  1.2410  0.1289 -1.5795
 5620TIP3    H238276   3.031   4.537   0.687 -1.4422 -0.0709 -0.7097
 5621TIP3   OH238277   2.860   3.953  14.969 -0.0601 -0.1270 -0.1856
 5621TIP3    H138278   2.904   3.937  15.053  0.4102 -0.5348 -0.5059
 5621TIP3    H238279   2.929   3.946  14.904 -0.4015  0.3212 -0.5988
 5622TIP3   OH238280   5.779   6.783  16.976  0.2575 -0.5339 -0.2793
 5622TIP3    H138281   5.840   6.730  16.925  0.4516  0.6153 -1.2719
 5622TIP3    H238282   5.800   6.873  16.953 -1.3607 -0.0861 -0.1005
 5623TIP3   OH238283   5.063   5.752  14.112 -0.2495 -0.2424  0.5324
 5623TIP3    H138284   5.135   5.781  14.168  0.5173  0.6835 -0.8858
 5623TIP3    H238285   5.100   5.749  14.024 -1.1220 -2.7069  0.1577
 5624TIP3   OH238286   4.715   4.809   3.618 -0.2724  0.3335 -0.2604
 5624TIP3    H138287   4.799   4.771   3.646 -0.4010 -1.2280 -1.8093
 5624TIP3    H238288   4.649   4.757   3.664 -0.4064  1.1529  0.4797
 5625TIP3   OH238289   3.764   2.948  12.221 -0.4126 -0.7396 -0.0743
 5625TIP3    H138290   3.737   2.950  12.312  1.8618 -1.3467  0.6629
 5625TIP3    H238291   3.766   2.855  12.198 -0.6174 -0.6100 -0.6447
 5626TIP3   OH238292   3.317   2.007   4.390  0.0079 -0.0988  0.6519
 5626TIP3    H138293   3.405   2.038   4.408  0.5291 -1.2565  0.2250
 5626TIP3    H238294   3.271   2.013   4.474  0.8590 -0.6179  1.1675
 5627TIP3   OH238295   1.818   3.855   6.703  0.1624  0.4505 -0.4069
 5627TIP3    H138296   1.757   3.905   6.649  0.3020 -1.4356 -2.4435
 5627TIP3    H238297   1.764   3.816   6.772 -0.5135  0.6470 -0.8249
 5628TIP3   OH238298   1.126   6.207   2.988  0.0470 -0.3848  0.5377
 5628TIP3    H138299   1.201   6.207   2.928 -1.6370 -1.5883 -1.7558
 5628TIP3    H238300   1.050   6.203   2.930 -1.7275 -1.2979  2.7855
 5629TIP3   OH238301   0.418   6.037  12.635  0.4690 -0.4002  0.1316
 5629TIP3    H138302   0.461   6.061  12.553 -0.6275  0.3664 -0.2393
 5629TIP3    H238303   0.449   6.102  12.698 -0.5680  0.5439 -0.2843
 5630TIP3   OH238304   1.729   4.563   2.129 -0.2160  0.5083  0.2779
 5630TIP3    H138305   1.662   4.509   2.086  0.5826 -0.0548 -0.2871
 5630TIP3    H238306   1.784   4.499   2.175  0.7418  0.8325 -0.3942
 5631TIP3   OH238307   0.255   2.263   2.422 -0.0320  0.2504 -0.1720
 5631TIP3    H138308   0.316   2.271   2.496 -0.1121 -1.4795  0.1238
 5631TIP3    H238309   0.186   2.326   2.441  0.3574  0.4007  0.8130
 5632TIP3   OH238310   0.211   4.923   0.620  0.0539  0.5724 -0.1371
 5632TIP3    H138311   0.194   4.853   0.556 -0.0325  0.9103 -0.4888
 5632TIP3    H238312   0.298   4.955   0.598  0.5717 -0.1675  0.7374
 5633TIP3   OH238313   1.749   6.383   5.512  0.3016 -0.3799  0.5002
 5633TIP3    H138314   1.756   6.474   5.485  1.2263 -0.8085 -0.8179
 5633TIP3    H238315   1.704   6.339   5.439 -0.1356 -0.9831  1.1143
 5634TIP3   OH238316   3.352   4.899  11.204 -0.0568 -0.6622 -0.0555
 5634TIP3    H138317   3.257   4.891  11.208 -0.1617  0.4817  0.0120
 5634TIP3    H238318   3.368   4.993  11.196  1.0069 -0.9339 -1.7795
 5635TIP3   OH238319   6.216   0.864   1.507  0.2203  0.0022 -0.9967
 5635TIP3    H138320   6.238   0.904   1.591  0.5875 -0.8184 -0.6992
 5635TIP3    H238321   6.245   0.929   1.442  0.3363  0.4466 -0.5078
 5636TIP3   OH238322   3.521   1.672   0.895  0.5699  0.0033 -0.0605
 5636TIP3    H138323   3.590   1.726   0.934  0.1985  0.7019 -0.3488
 5636TIP3    H238324   3.454   1.735   0.868 -0.1175 -0.6530  0.0889
 5637TIP3   OH238325   4.768   6.104  11.505 -0.1436  0.1406 -0.1652
 5637TIP3    H138326   4.701   6.131  11.568  0.1065 -0.2848  0.2907
 5637TIP3    H238327   4.719   6.069  11.432 -0.4306  0.3728 -0.0874
 5638TIP3   OH238328   5.423   0.300   3.164 -0.0291 -0.1695 -0.5231
 5638TIP3    H138329   5.459   0.222   3.121  0.7808  0.0163 -0.1922
 5638TIP3    H238330   5.426   0.368   3.097 -0.1754 -0.2638 -0.6273
 5639TIP3   OH238331   1.645   5.432  12.967  0.6561 -0.4628 -0.2217
 5639TIP3    H138332   1.643   5.340  12.942 -1.2388 -0.4340 -0.2879
 5639TIP3    H238333   1.689   5.433  13.052 -0.4579 -1.5975  0.3898
 5640TIP3   OH238334   5.141   3.659   3.688 -0.2277 -0.3195 -0.5048
 5640TIP3    H138335   5.114   3.614   3.608 -0.0830 -0.9387 -0.2130
 5640TIP3    H238336   5.173   3.744   3.658  1.6360 -1.2570 -1.3276
 5641TIP3   OH238337   4.824   5.583   4.808 -0.2413 -0.0863  0.3578
 5641TIP3    H138338   4.736   5.617   4.825  0.9137  1.6506  3.7426
 5641TIP3    H238339   4.845   5.613   4.719 -1.9367  2.1143  0.6198
 5642TIP3   OH238340   4.078   2.012   5.509  0.0898 -0.8146 -0.0602
 5642TIP3    H138341   4.065   1.964   5.428 -0.4379  0.6089 -0.8584
 5642TIP3    H238342   4.170   2.040   5.507  0.4056 -1.7851  0.4211
 5643TIP3   OH238343   3.146   4.824   0.225  0.9086  0.2311  0.5511
 5643TIP3    H138344   3.157   4.729   0.228 -2.2038 -0.2495 -0.3843
 5643TIP3    H238345   3.148   4.846   0.132  2.2025  1.2223  0.7809
 5644TIP3   OH238346   0.936   4.814   4.534 -0.4799  0.0253 -0.4814
 5644TIP3    H138347   0.957   4.737   4.587  1.2308  0.7129 -0.1013
 5644TIP3    H238348   0.866   4.858   4.583 -0.0767 -0.2337  0.3604
 5645TIP3   OH238349   0.543   2.448  12.758 -0.1602 -0.2172  0.0147
 5645TIP3    H138350   0.495   2.530  12.770  0.6438  0.1714  0.6538
 5645TIP3    H238351   0.518   2.419  12.670 -0.9693  0.3568  0.0360
 5646TIP3   OH238352   5.028   4.167   6.512  0.2842 -0.1938  0.4200
 5646TIP3    H138353   4.990   4.236   6.457  0.1817 -3.0883 -3.6358
 5646TIP3    H238354   4.953   4.130   6.559 -0.3507  0.0005 -0.4075
 5647TIP3   OH238355   0.813   2.932   1.366  0.4502 -0.6961  0.4657
 5647TIP3    H138356   0.891   2.956   1.317  0.2890 -1.3573 -0.1361
 5647TIP3    H238357   0.832   2.956   1.456  0.0339  2.3743 -0.1420
 5648TIP3   OH238358   6.240   1.164  17.083 -0.0452 -0.5555 -0.4516
 5648TIP3    H138359   6.155   1.129  17.056 -0.4720 -0.1894  0.3707
 5648TIP3    H238360   6.294   1.087  17.098 -1.0051 -0.9292  1.4398
 5649TIP3   OH238361   6.448   4.515  12.042 -0.1742 -0.2060  0.2581
 5649TIP3    H138362   6.486   4.432  12.070  0.1871  0.2866  1.2528
 5649TIP3    H238363   6.435   4.564  12.123 -3.7046 -0.6337  0.1369
 5650TIP3   OH238364   3.713   1.062   4.346  0.7839 -0.0167 -0.1403
 5650TIP3    H138365   3.691   0.983   4.395 -0.0006  0.4065  0.2052
 5650TIP3    H238366   3.694   1.039   4.255  2.0305 -0.7269 -0.2481
 5651TIP3   OH238367   6.645   0.841   5.060 -0.4532  0.3119 -0.2221
 5651TIP3    H138368   6.719   0.785   5.037  0.0292  2.0765 -3.4862
 5651TIP3    H238369   6.685   0.920   5.095 -0.7372  1.1404 -1.6901
 5652TIP3   OH238370   2.538   3.366   6.687 -0.2680 -0.2264  0.1645
 5652TIP3    H138371   2.502   3.401   6.769  0.8144 -0.8483  0.9189
 5652TIP3    H238372   2.552   3.273   6.704  1.2117 -0.1042 -0.2801
 5653TIP3   OH238373   1.508   1.502  16.896 -0.1467  0.5002  0.5137
 5653TIP3    H138374   1.581   1.548  16.855 -0.6169 -0.3155 -1.3181
 5653TIP3    H238375   1.543   1.415  16.917  0.1487  0.9665  2.1107
 5654TIP3   OH238376   5.914   2.290  10.944  0.3805 -0.1320 -0.1720
 5654TIP3    H138377   5.977   2.221  10.924 -0.0133  0.2187 -3.0814
 5654TIP3    H238378   5.967   2.368  10.957  0.6576 -0.2105 -0.7975
 5655TIP3   OH238379   6.747   3.549  11.503  0.2762 -0.1851 -0.4878
 5655TIP3    H138380   6.683   3.478  11.504 -1.3942  1.1408  3.0580
 5655TIP3    H238381   6.731   3.594  11.420 -1.6110 -1.3942 -0.8383
 5656TIP3   OH238382   1.147   4.729   5.722  0.6280  0.3626 -0.1495
 5656TIP3    H138383   1.176   4.647   5.682  1.9736  0.4003  0.6686
 5656TIP3    H238384   1.055   4.737   5.697  0.8085 -0.7487 -1.3009
 5657TIP3   OH238385   4.598   0.496   3.238 -0.2308  0.2607  0.0463
 5657TIP3    H138386   4.651   0.416   3.236  0.3652  0.6514 -0.0069
 5657TIP3    H238387   4.554   0.493   3.323 -0.5390 -0.3290 -0.1275
 5658TIP3   OH238388   6.335   6.167  13.930 -0.1865 -0.0841  0.8890
 5658TIP3    H138389   6.338   6.124  13.845 -0.0867 -0.0048  0.8522
 5658TIP3    H238390   6.299   6.254  13.912  1.9868  0.8132  0.5501
 5659TIP3   OH238391   5.657   6.149   1.030 -0.6944 -0.7050 -0.0591
 5659TIP3    H138392   5.602   6.111   1.098 -1.1875  0.0594 -0.0076
 5659TIP3    H238393   5.624   6.239   1.020  0.9142 -0.0185  0.3800
 5660TIP3   OH238394   1.742   0.626  15.772 -0.1079 -0.1702  0.6088
 5660TIP3    H138395   1.815   0.573  15.741 -0.9500 -1.1105  0.1784
 5660TIP3    H238396   1.755   0.632  15.866 -1.2501 -3.2101  1.0681
 5661TIP3   OH238397   2.379   4.441   0.916  0.0929  0.1006 -0.4466
 5661TIP3    H138398   2.377   4.532   0.886  0.0591 -0.6308 -2.8145
 5661TIP3    H238399   2.297   4.429   0.964 -0.3695  1.0309 -0.9929
 5662TIP3   OH238400   0.376   2.564  13.796  0.1139  0.0329  0.1336
 5662TIP3    H138401   0.460   2.603  13.819 -0.1535  0.5462  0.2444
 5662TIP3    H238402   0.321   2.637  13.768 -0.8460 -0.0386  1.7067
 5663TIP3   OH238403   5.438   4.618  11.525  0.2926 -0.0852  0.4386
 5663TIP3    H138404   5.347   4.629  11.552  0.3883 -0.2419  0.8265
 5663TIP3    H238405   5.474   4.554  11.586 -0.0283 -1.9975 -1.2569
 5664TIP3   OH238406   1.745   1.292   1.808 -0.4993  0.7834 -0.0827
 5664TIP3    H138407   1.681   1.301   1.880 -1.0671 -1.4264 -0.2406
 5664TIP3    H238408   1.827   1.269   1.852 -0.7494 -0.1696 -0.1055
 5665TIP3   OH238409   4.347   3.441  16.852 -0.4557  0.6395 -0.3577
 5665TIP3    H138410   4.433   3.484  16.842  0.2773  0.1204  2.7304
 5665TIP3    H238411   4.362   3.351  16.825  0.4636  0.1456  1.6677
 5666TIP3   OH238412   1.820   1.028   4.165  0.0380  0.3489  0.2387
 5666TIP3    H138413   1.839   1.117   4.195 -1.7887  0.6090  0.7606
 5666TIP3    H238414   1.743   1.002   4.216 -0.6713 -0.7669 -1.3371
 5667TIP3   OH238415   3.594   2.236  11.968 -0.6397 -0.1959  0.6089
 5667TIP3    H138416   3.666   2.298  11.957  0.1646 -1.4717 -2.3198
 5667TIP3    H238417   3.516   2.283  11.941 -0.1932 -0.0920 -0.5528
 5668TIP3   OH238418   1.346   2.017  12.286 -0.1419 -0.4409 -0.4017
 5668TIP3    H138419   1.326   1.960  12.360 -0.4631 -1.0551 -0.9511
 5668TIP3    H238420   1.281   1.994  12.220 -1.2097  1.5790 -0.1284
 5669TIP3   OH238421   4.241   6.628  11.190  0.5898  0.0986 -0.3744
 5669TIP3    H138422   4.222   6.535  11.206  1.0613  0.0187 -0.2712
 5669TIP3    H238423   4.319   6.646  11.242  0.6173  0.5038 -0.5520
 5670TIP3   OH238424   5.136   0.878   1.774  0.5628  0.0769 -0.2353
 5670TIP3    H138425   5.164   0.943   1.838  2.4521 -0.7280 -0.1832
 5670TIP3    H238426   5.042   0.870   1.788  0.5662  1.5658  0.8865
 5671TIP3   OH238427   3.484   0.792  15.413 -0.3228 -0.0395  0.3329
 5671TIP3    H138428   3.532   0.735  15.474 -0.8762 -0.2485  0.5796
 5671TIP3    H238429   3.481   0.877  15.457 -1.1138 -0.3028  0.8218
 5672TIP3   OH238430   1.195   4.994  12.685 -0.1483 -0.4146  0.1520
 5672TIP3    H138431   1.223   4.992  12.776 -2.0245  0.1592  0.7889
 5672TIP3    H238432   1.157   5.081  12.673 -0.1304 -0.5557 -1.1236
 5673TIP3   OH238433   2.069   6.277  15.860 -0.3590 -0.1756 -0.0222
 5673TIP3    H138434   2.052   6.301  15.951 -1.2289  1.6389 -0.5950
 5673TIP3    H238435   2.163   6.261  15.856 -0.1544  0.6541  1.0170
 5674TIP3   OH238436   2.493   1.073  16.375 -0.5148  0.4593 -0.0713
 5674TIP3    H138437   2.537   0.988  16.371  0.2372  0.8199  0.3734
 5674TIP3    H238438   2.421   1.064  16.313  0.2386 -0.1219 -0.9080
 5675TIP3   OH238439   5.378   0.623   3.521 -0.1885  0.1869 -0.0431
 5675TIP3    H138440   5.331   0.593   3.598  1.0237 -0.6459  0.4020
 5675TIP3    H238441   5.380   0.718   3.529  0.1613  0.0933  1.1054
 5676TIP3   OH238442   5.830   1.812  12.663 -0.1432  0.1482  0.4170
 5676TIP3    H138443   5.844   1.788  12.571  1.4485  0.6406  0.5108
 5676TIP3    H238444   5.796   1.732  12.703  1.1537 -0.7137 -0.1531
 5677TIP3   OH238445   3.752   2.014  13.666 -0.2520 -0.0938 -0.1246
 5677TIP3    H138446   3.836   2.028  13.623 -0.6028  0.8973 -0.5369
 5677TIP3    H238447   3.688   2.054  13.607 -0.9141 -0.0537  0.5942
 5678TIP3   OH238448   5.355   0.678   5.288 -0.2498  0.1617  0.8389
 5678TIP3    H138449   5.339   0.757   5.339 -2.9552 -0.4352  1.0472
 5678TIP3    H238450   5.366   0.609   5.353  2.0653  0.2650  0.6582
 5679TIP3   OH238451   0.483   0.440  12.199  0.1532 -0.1841  0.5750
 5679TIP3    H138452   0.490   0.428  12.105 -1.5413  0.5236  0.3118
 5679TIP3    H238453   0.482   0.351  12.235 -1.0389 -0.5328 -0.2643
 5680TIP3   OH238454   5.411   5.269   5.106 -0.1460 -0.1205  0.1559
 5680TIP3    H138455   5.442   5.298   5.193 -1.0334 -0.6576  0.6664
 5680TIP3    H238456   5.448   5.182   5.095 -0.0438 -0.0568 -0.0134
 5681TIP3   OH238457   3.411   2.435  16.390 -0.0716 -0.2949 -0.2307
 5681TIP3    H138458   3.335   2.460  16.443  1.4747  1.0119  1.5104
 5681TIP3    H238459   3.403   2.340  16.381 -2.8700 -0.0344 -1.7633
 5682TIP3   OH238460   1.505   4.965   6.105  0.9609 -0.1114 -0.2923
 5682TIP3    H138461   1.576   4.996   6.161  1.1699 -1.1709  0.0504
 5682TIP3    H238462   1.427   5.011   6.137  1.4288  0.8455 -0.4896
 5683TIP3   OH238463   3.773   2.269   4.904 -0.5324  0.3648 -0.0454
 5683TIP3    H138464   3.743   2.274   4.995 -0.3266 -1.0086  0.1099
 5683TIP3    H238465   3.749   2.354   4.867  1.7388  2.0294  1.9823
 5684TIP3   OH238466   5.812   2.585  16.719 -0.1175  0.5352 -0.0967
 5684TIP3    H138467   5.872   2.528  16.671 -1.8044  0.4248 -2.2328
 5684TIP3    H238468   5.799   2.542  16.803  1.4372 -0.3227 -0.2710
 5685TIP3   OH238469   6.764   4.154  12.549  0.1643 -0.3527 -0.2848
 5685TIP3    H138470   6.826   4.184  12.615 -1.1696  2.7758 -0.2708
 5685TIP3    H238471   6.806   4.175  12.466 -0.7757  1.8314 -0.2749
 5686TIP3   OH238472   4.955   3.435   2.595 -0.0794 -0.4675 -0.1155
 5686TIP3    H138473   5.046   3.427   2.623  0.3647  0.7525 -1.1028
 5686TIP3    H238474   4.960   3.480   2.511 -1.5979 -0.3627 -0.1742
 5687TIP3   OH238475   0.851   3.676  16.781 -0.1862 -0.6916  0.4485
 5687TIP3    H138476   0.923   3.633  16.735  0.6774  0.2070  0.9175
 5687TIP3    H238477   0.893   3.728  16.849 -1.1451  1.0176 -0.1880
 5688TIP3   OH238478   5.954   0.180  11.290  0.2214 -0.1236  0.0770
 5688TIP3    H138479   5.989   0.123  11.221  2.1199 -0.1829  1.0237
 5688TIP3    H238480   6.001   0.263  11.278 -1.6793  0.9344 -0.5666
 5689TIP3   OH238481   2.713   3.004  15.796  0.1723 -0.8432  0.0383
 5689TIP3    H138482   2.651   2.938  15.827 -1.2093  1.5836  2.8738
 5689TIP3    H238483   2.733   3.057  15.873  2.2175  1.3084 -1.8067
 5690TIP3   OH238484   4.894   0.842   1.186  0.1380  0.5781  0.4032
 5690TIP3    H138485   4.816   0.846   1.241  0.3155 -1.2534  0.8691
 5690TIP3    H238486   4.865   0.875   1.101 -1.1037  0.1033  0.6143
 5691TIP3   OH238487   1.814   5.853   0.499  0.1589 -0.6885 -0.0166
 5691TIP3    H138488   1.814   5.893   0.586  0.4791  4.3128 -1.9785
 5691TIP3    H238489   1.723   5.826   0.485 -0.8645  2.0781  0.5808
 5692TIP3   OH238490   3.583   2.950  13.114 -0.1793  0.0079 -0.4659
 5692TIP3    H138491   3.494   2.971  13.141 -0.3041 -0.5694 -0.4230
 5692TIP3    H238492   3.576   2.866  13.070  0.6201 -1.0008  1.2422
 5693TIP3   OH238493   0.625   6.076   4.251 -0.5764  0.5493  0.0730
 5693TIP3    H138494   0.542   6.066   4.298 -0.0099  1.7169  1.3688
 5693TIP3    H238495   0.615   6.157   4.201 -0.9958 -0.4384 -1.5100
 5694TIP3   OH238496   1.723   0.867  11.086  0.1834 -0.3459 -0.1769
 5694TIP3    H138497   1.673   0.864  11.167 -0.7334 -1.6856 -0.7489
 5694TIP3    H238498   1.658   0.880  11.018  1.0564  1.9112 -0.6446
 5695TIP3   OH238499   6.455   5.318   0.318  0.3186  0.0123 -0.1176
 5695TIP3    H138500   6.389   5.332   0.250  1.2468  2.0568 -0.6694
 5695TIP3    H238501   6.522   5.384   0.301  0.8234  0.2972  2.4859
 5696TIP3   OH238502   2.733   6.761   5.856  0.4070 -0.0059  0.3669
 5696TIP3    H138503   2.822   6.794   5.860  0.0201  0.9430  1.6797
 5696TIP3    H238504   2.708   6.770   5.764  1.6174 -0.2054  0.0077
 5697TIP3   OH238505   5.608   2.899   0.082 -0.0031  0.3585  0.5568
 5697TIP3    H138506   5.664   2.849   0.024 -1.0282 -0.8599  0.5693
 5697TIP3    H238507   5.665   2.966   0.119  1.3221 -0.5599  0.2523
 5698TIP3   OH238508   6.701   4.038  10.819 -0.6176  0.4336 -0.3358
 5698TIP3    H138509   6.634   4.100  10.845  0.8958  2.3811 -0.8848
 5698TIP3    H238510   6.696   4.036  10.723 -1.0437 -0.7893 -0.3097
 5699TIP3   OH238511   1.044   2.927   6.197 -0.0530  0.2259  0.4060
 5699TIP3    H138512   1.056   2.939   6.103 -0.0659 -1.4972  0.1467
 5699TIP3    H238513   1.103   2.855   6.220 -0.4507  0.2497  1.6097
 5700TIP3   OH238514   3.622   5.475  12.558  0.1250  0.5850 -0.2076
 5700TIP3    H138515   3.651   5.559  12.592 -1.1484 -0.5050  4.0890
 5700TIP3    H238516   3.693   5.415  12.578 -0.7119 -0.1303  0.6933
 5701TIP3   OH238517   0.626   3.577   2.824  0.0151  0.0504  0.1188
 5701TIP3    H138518   0.718   3.557   2.843  0.3710 -0.3450 -1.7496
 5701TIP3    H238519   0.592   3.616   2.904  1.4454 -1.0364  1.2985
 5702TIP3   OH238520   5.135   6.646  11.526 -0.0418  0.0394  0.2370
 5702TIP3    H138521   5.065   6.708  11.549 -2.0048 -2.1582  0.5963
 5702TIP3    H238522   5.180   6.630  11.609  0.3845  0.8262  0.1715
 5703TIP3   OH238523   6.773   1.628   4.811  0.0561 -0.1062  0.4239
 5703TIP3    H138524   6.773   1.601   4.904  1.1939 -0.4225  0.3565
 5703TIP3    H238525   6.856   1.675   4.801  0.1218 -0.4193 -0.5248
 5704TIP3   OH238526   2.150   4.212   2.261 -1.1808 -0.3184  0.2501
 5704TIP3    H138527   2.155   4.266   2.183 -2.5664  2.3361  1.8592
 5704TIP3    H238528   2.080   4.149   2.242 -1.5333  0.3211 -0.6155
 5705TIP3   OH238529   1.169   0.970  11.398  0.6455  0.2572 -0.3303
 5705TIP3    H138530   1.217   1.017  11.330  0.7147  0.2091 -0.3145
 5705TIP3    H238531   1.134   1.038  11.455 -0.0238  0.3363 -0.8223
 5706TIP3   OH238532   2.471   1.278   4.330  0.4877  0.3268 -0.3594
 5706TIP3    H138533   2.465   1.279   4.234 -0.2760 -0.0308 -0.3158
 5706TIP3    H238534   2.551   1.328   4.348  0.1196  1.2576 -1.1450
 5707TIP3   OH238535   0.546   5.388   5.859  0.0396 -0.2005 -0.2773
 5707TIP3    H138536   0.576   5.431   5.939  0.8070 -1.1256 -0.0531
 5707TIP3    H238537   0.455   5.417   5.849  0.5519  1.5648 -0.2172
 5708TIP3   OH238538   4.482   1.343   4.662 -0.1599  0.1631 -0.3820
 5708TIP3    H138539   4.556   1.290   4.690  0.2376  0.6135 -0.5801
 5708TIP3    H238540   4.436   1.365   4.744  0.3982  0.5812 -0.1757
 5709TIP3   OH238541   5.818   4.300  11.655 -0.1597 -0.0976 -0.4079
 5709TIP3    H138542   5.814   4.377  11.712  0.8969 -1.5111  1.6850
 5709TIP3    H238543   5.728   4.269  11.651 -0.5443  1.0433 -1.0130
 5710TIP3   OH238544   2.188   1.210  13.938 -0.1517 -0.6292  0.0865
 5710TIP3    H138545   2.209   1.214  14.032 -0.6904 -1.2530  0.2365
 5710TIP3    H238546   2.256   1.155  13.900  1.4616  1.4889 -0.3158
 5711TIP3   OH238547   2.963   1.409   5.889 -0.3256  0.6562  0.0401
 5711TIP3    H138548   3.031   1.341   5.885 -0.6505  0.3107  0.3162
 5711TIP3    H238549   3.010   1.488   5.915 -0.1945  0.1744  1.3620
 5712TIP3   OH238550   4.209   5.570   2.073 -0.2249  0.2319 -0.1075
 5712TIP3    H138551   4.301   5.544   2.070 -0.5632 -1.0812  0.3864
 5712TIP3    H238552   4.197   5.624   1.995  0.6706 -0.6131 -0.8491
 5713TIP3   OH238553   1.837   2.675   3.605 -0.3469  0.0385 -0.2296
 5713TIP3    H138554   1.905   2.642   3.665 -0.9332 -2.9362 -1.0033
 5713TIP3    H238555   1.876   2.663   3.518 -1.1870 -0.0449 -0.5995
 5714TIP3   OH238556   0.071   6.154   2.290  0.1034  0.1006  0.0587
 5714TIP3    H138557   0.157   6.165   2.330 -1.0943  0.1423  2.8144
 5714TIP3    H238558   0.030   6.240   2.298 -0.8670 -0.3887  0.5090
 5715TIP3   OH238559   4.416   1.715  13.767 -0.2190  0.4409 -0.0577
 5715TIP3    H138560   4.504   1.703  13.804  0.5518 -0.8938 -2.1170
 5715TIP3    H238561   4.431   1.761  13.684 -1.0619 -2.1795 -1.7942
 5716TIP3   OH238562   4.018   0.814   5.755 -0.1324 -0.2260  0.2768
 5716TIP3    H138563   3.924   0.819   5.774 -0.1180  0.9226  0.1465
 5716TIP3    H238564   4.033   0.723   5.731 -1.1431 -0.5108  0.6583
 5717TIP3   OH238565   6.204   3.843  11.385 -0.4483  0.1142 -0.1932
 5717TIP3    H138566   6.265   3.812  11.317 -1.0930 -2.1591  0.1634
 5717TIP3    H238567   6.233   3.932  11.405  1.9443 -0.4217 -0.9428
 5718TIP3   OH238568   4.249   4.304  14.942  0.0459  0.4317  0.3126
 5718TIP3    H138569   4.206   4.390  14.952 -2.3576 -0.7029  0.5909
 5718TIP3    H238570   4.177   4.245  14.919  1.8937 -1.2509 -1.4845
 5719TIP3   OH238571   4.512   4.287   5.519  0.3068  0.3773  0.2830
 5719TIP3    H138572   4.567   4.222   5.476  0.8442 -0.1589  1.7181
 5719TIP3    H238573   4.572   4.339   5.572 -0.2016  1.6784 -0.3739
 5720TIP3   OH238574   1.999   3.412   2.068  0.0284  0.1756 -0.1538
 5720TIP3    H138575   1.966   3.407   1.978 -0.2381 -0.4474 -0.0250
 5720TIP3    H238576   1.941   3.475   2.111  0.4392  0.8280 -0.5309
 5721TIP3   OH238577   4.301   4.157   5.366 -0.3699  0.0454 -0.1520
 5721TIP3    H138578   4.351   4.174   5.446 -0.8942  2.1659 -0.2031
 5721TIP3    H238579   4.262   4.071   5.379  1.6316 -0.7859  0.7401
 5722TIP3   OH238580   2.042   6.085   6.296 -0.0971 -0.3688 -0.6745
 5722TIP3    H138581   2.046   6.173   6.258 -0.7300  0.5111  1.1679
 5722TIP3    H238582   2.127   6.046   6.277  1.3277  1.7456  0.9010
 5723TIP3   OH238583   3.548   3.069   4.825  0.6712 -0.4295  0.4200
 5723TIP3    H138584   3.555   3.067   4.729 -1.0909 -0.5365  0.2673
 5723TIP3    H238585   3.457   3.046   4.843  0.7556  0.4106  2.0909
 5724TIP3   OH238586   4.102   0.266   4.000 -0.3581 -0.6002 -0.1459
 5724TIP3    H138587   4.099   0.231   4.089 -0.0418  1.2571  0.6483
 5724TIP3    H238588   4.019   0.313   3.990 -1.2676 -2.3965 -1.5902
 5725TIP3   OH238589   6.635   5.495  15.720 -0.1154  0.6358 -0.0953
 5725TIP3    H138590   6.563   5.556  15.700  0.3189  0.4493 -2.5858
 5725TIP3    H238591   6.713   5.537  15.683  0.5076 -0.5627 -0.1998
 5726TIP3   OH238592   5.069   0.454   2.038  0.0534  0.8313  0.1210
 5726TIP3    H138593   5.097   0.420   2.123  0.4362  0.5214 -0.1294
 5726TIP3    H238594   5.150   0.473   1.991 -0.1568  1.1488 -0.1207
 5727TIP3   OH238595   3.652   1.648   5.236  0.3177  0.2719 -0.5563
 5727TIP3    H138596   3.737   1.603   5.231  0.8829  1.2530 -0.0178
 5727TIP3    H238597   3.590   1.586   5.198  1.1099 -0.8829 -0.0326
 5728TIP3   OH238598   1.350   3.724  15.871 -0.3476 -0.1962 -0.1132
 5728TIP3    H138599   1.327   3.796  15.930 -0.4213  0.1714 -0.5759
 5728TIP3    H238600   1.266   3.688  15.844 -0.4341  1.0926 -1.7397
 5729TIP3   OH238601   5.564   5.794  15.491  0.3675  0.1388 -0.1696
 5729TIP3    H138602   5.573   5.699  15.493 -2.7055 -0.2571  0.8339
 5729TIP3    H238603   5.478   5.811  15.531  0.3143  3.2623 -1.3090
 5730TIP3   OH238604   2.979   0.577  11.239 -0.0105  1.1069  0.5721
 5730TIP3    H138605   2.949   0.601  11.327  1.1660  1.0064  1.0202
 5730TIP3    H238606   3.033   0.650  11.210 -0.6703  1.2970 -0.2313
 5731TIP3   OH238607   1.672   1.906  13.034 -0.3592  0.4073 -0.3868
 5731TIP3    H138608   1.587   1.948  13.043 -0.7038  0.4188 -2.9781
 5731TIP3    H238609   1.655   1.813  13.050 -0.5465  0.6029  0.5815
 5732TIP3   OH238610   1.576   6.497   2.541 -0.3325 -0.5349 -0.2737
 5732TIP3    H138611   1.658   6.521   2.584 -0.8623  0.8027  0.0605
 5732TIP3    H238612   1.591   6.512   2.448 -0.2825 -0.0120 -0.1827
 5733TIP3   OH238613   1.467   0.779   0.049 -0.3524  0.3657  0.1662
 5733TIP3    H138614   1.529   0.714   0.015  0.6907  2.2410 -1.8058
 5733TIP3    H238615   1.392   0.774  -0.009 -1.9402 -1.4914  2.2055
 5734TIP3   OH238616   1.279   5.401   4.657 -0.1072 -0.1263  0.0628
 5734TIP3    H138617   1.360   5.444   4.631 -0.1536 -0.5514 -0.8259
 5734TIP3    H238618   1.210   5.457   4.621 -0.1838 -0.3273 -0.1101
 5735TIP3   OH238619   5.863   4.387  14.694 -0.1749 -0.7326  0.4788
 5735TIP3    H138620   5.792   4.337  14.654  1.8813 -2.2976 -1.4339
 5735TIP3    H238621   5.865   4.469  14.645 -2.2731  0.5554  2.3249
 5736TIP3   OH238622   6.306   1.773   4.832 -0.5463 -0.0741  0.4232
 5736TIP3    H138623   6.354   1.834   4.777 -0.9219 -0.9644 -0.9394
 5736TIP3    H238624   6.228   1.821   4.861  0.0961  0.6839  0.9236
 5737TIP3   OH238625   4.481   5.528  10.374 -0.0466  0.1291  0.2871
 5737TIP3    H138626   4.386   5.540  10.383 -0.2192 -1.7987  1.6563
 5737TIP3    H238627   4.519   5.596  10.429 -0.6542  0.5013  0.2549
 5738TIP3   OH238628   6.490   1.902  17.029 -0.1673 -0.5727 -0.5271
 5738TIP3    H138629   6.399   1.926  17.047 -0.6341 -0.0024 -3.1994
 5738TIP3    H238630   6.540   1.945  17.099 -1.7118  1.6204 -0.6631
 5739TIP3   OH238631   1.473   6.615   0.618 -0.2192 -0.4097  0.4537
 5739TIP3    H138632   1.530   6.690   0.636 -0.4078 -0.2221  0.2720
 5739TIP3    H238633   1.433   6.594   0.703  0.2636 -0.6640  0.6222
 5740TIP3   OH238634   1.227   4.260  15.613  0.3478 -0.0125  0.1355
 5740TIP3    H138635   1.145   4.211  15.624 -0.1851  0.9679  0.7254
 5740TIP3    H238636   1.255   4.241  15.524  0.6423 -2.0844  0.6190
 5741TIP3   OH238637   1.845   0.668  14.976 -0.0421  0.9835 -0.1420
 5741TIP3    H138638   1.874   0.603  15.040 -0.4590  2.0909  1.2206
 5741TIP3    H238639   1.849   0.622  14.892 -3.1985 -1.8122  1.0088
 5742TIP3   OH238640   3.869   1.299   3.939  0.5679 -0.1953 -0.5061
 5742TIP3    H138641   3.803   1.271   3.875 -0.4348  1.5858 -0.3500
 5742TIP3    H238642   3.921   1.364   3.892  0.5536  0.2797  0.1142
 5743TIP3   OH238643   1.457   5.164   2.095 -0.1961 -0.1932 -0.3518
 5743TIP3    H138644   1.488   5.089   2.045  2.7173  1.3453 -1.1016
 5743TIP3    H238645   1.450   5.132   2.185  0.3382 -1.5123 -0.7531
 5744TIP3   OH238646   3.908   5.716   2.876  0.4888 -0.2830  0.1080
 5744TIP3    H138647   3.870   5.734   2.790 -1.4295 -2.2092  0.4492
 5744TIP3    H238648   3.994   5.756   2.873  0.5301 -0.3488 -2.7560
 5745TIP3   OH238649   2.373   6.735  16.047 -0.3146 -0.2455 -0.1373
 5745TIP3    H138650   2.359   6.711  16.139 -1.7586 -1.2458 -0.5852
 5745TIP3    H238651   2.288   6.768  16.018 -0.0001 -0.3900 -1.2465
 5746TIP3   OH238652   5.020   0.974  11.655  0.4733 -0.0215 -0.1287
 5746TIP3    H138653   4.961   1.009  11.722 -1.4773 -1.0901 -1.1868
 5746TIP3    H238654   5.032   1.045  11.593 -1.3014 -0.3237 -0.8804
 5747TIP3   OH238655   3.320   2.600  12.763  0.0365  0.0477  0.1975
 5747TIP3    H138656   3.302   2.687  12.800 -1.1844  0.0931 -0.4510
 5747TIP3    H238657   3.398   2.570  12.809 -0.8969  0.4633  2.1686
 5748TIP3   OH238658   3.498   1.579  10.919  0.3426  0.0503 -0.0326
 5748TIP3    H138659   3.487   1.501  10.865  0.1168 -0.2453  0.4317
 5748TIP3    H238660   3.414   1.591  10.962  1.1866 -1.1526  2.1188
 5749TIP3   OH238661   6.371   5.262  16.766  0.0336  0.1410 -0.0587
 5749TIP3    H138662   6.276   5.249  16.777  0.1082  0.1666  0.6563
 5749TIP3    H238663   6.410   5.183  16.804  0.2793 -0.1120 -0.8353
 5750TIP3   OH238664   3.877   0.220   4.786 -0.2895 -0.1398 -0.3887
 5750TIP3    H138665   3.806   0.259   4.836 -0.4996 -0.8551 -0.1214
 5750TIP3    H238666   3.838   0.198   4.702 -0.0412  0.6794 -0.7291
 5751TIP3   OH238667   5.970   5.846   3.212 -0.3868  0.6054  0.2545
 5751TIP3    H138668   5.965   5.782   3.283 -1.2421 -1.5196 -1.5821
 5751TIP3    H238669   6.063   5.853   3.193 -0.2549  0.1453  0.6980
 5752TIP3   OH238670   0.603   6.423   5.281 -0.1691  0.3917  0.9404
 5752TIP3    H138671   0.610   6.426   5.376 -0.1119  1.1713  0.9233
 5752TIP3    H238672   0.509   6.425   5.263 -0.1998 -0.4956  0.9926
 5753TIP3   OH238673   4.860   5.263   2.510  0.2582 -0.3969  0.3700
 5753TIP3    H138674   4.804   5.257   2.587 -0.8927 -0.6807 -0.4558
 5753TIP3    H238675   4.888   5.173   2.493 -0.1013 -0.4539  0.0433
 5754TIP3   OH238676   6.423   2.510  16.198 -0.0512  0.5070  0.0053
 5754TIP3    H138677   6.515   2.485  16.209  0.1803  1.5951  0.6184
 5754TIP3    H238678   6.424   2.577  16.129 -0.6073 -0.6751 -1.2134
 5755TIP3   OH238679   0.692   3.868  17.144 -0.9226 -0.0641  0.1880
 5755TIP3    H138680   0.626   3.853  17.212 -0.1113  0.9832  1.2497
 5755TIP3    H238681   0.647   3.921  17.079 -1.9046 -1.6168 -0.4613
 5756TIP3   OH238682   4.584   1.122  15.996 -0.5090  0.4785  0.3675
 5756TIP3    H138683   4.530   1.073  16.058 -0.2879  0.8656  0.8730
 5756TIP3    H238684   4.520   1.166  15.939 -0.7195 -1.0926 -0.6834
 5757TIP3   OH238685   4.741   4.465  13.723  0.3145 -0.2442 -0.6567
 5757TIP3    H138686   4.675   4.399  13.746 -1.9449  1.8258 -0.8310
 5757TIP3    H238687   4.758   4.511  13.805  3.0766 -1.9308 -0.1726
 5758TIP3   OH238688   5.684   4.819   0.917  0.4463  0.0031  0.1418
 5758TIP3    H138689   5.627   4.795   0.989  0.1934  1.3332  0.4140
 5758TIP3    H238690   5.634   4.798   0.838  0.7081 -1.4196  0.3314
 5759TIP3   OH238691   4.864   3.825  16.953 -0.2864 -0.0954  0.4760
 5759TIP3    H138692   4.876   3.859  17.042 -0.2721 -0.4035  0.5935
 5759TIP3    H238693   4.944   3.851  16.907 -0.6972  0.8669  0.2920
 5760TIP3   OH238694   4.437   0.561  16.488 -0.3917 -0.5434 -0.2059
 5760TIP3    H138695   4.505   0.518  16.540 -0.8792 -1.2815 -0.1554
 5760TIP3    H238696   4.476   0.570  16.401 -0.1815 -0.8634 -0.1495
 5761TIP3   OH238697   3.546   1.662  13.444  0.5025  0.0492 -0.0436
 5761TIP3    H138698   3.498   1.597  13.393 -0.0529 -0.3956  1.0290
 5761TIP3    H238699   3.585   1.720  13.378  0.3420 -0.8896 -0.9867
 5762TIP3   OH238700   0.327   5.998   2.507  0.5012  0.3873  0.0544
 5762TIP3    H138701   0.324   6.061   2.435 -0.8825 -0.4486 -0.6555
 5762TIP3    H238702   0.329   5.913   2.464  1.2960 -0.1026  1.0138
 5763TIP3   OH238703   3.326   5.784  11.517 -0.3611 -0.3669 -0.1165
 5763TIP3    H138704   3.287   5.701  11.489 -0.9609  0.1441 -0.8331
 5763TIP3    H238705   3.371   5.817  11.439  0.2789 -0.2356  0.2953
 5764TIP3   OH238706   0.858   1.497   3.597  0.1598  0.0837 -0.6036
 5764TIP3    H138707   0.873   1.404   3.580 -1.6467 -1.0517  2.9207
 5764TIP3    H238708   0.913   1.516   3.674  0.6840  2.0620 -1.3961
 5765TIP3   OH238709   4.275   4.731   5.597 -0.3431  0.0033  0.4693
 5765TIP3    H138710   4.221   4.809   5.613  0.4185  0.3386  1.4732
 5765TIP3    H238711   4.305   4.742   5.506  0.7227  1.5239  0.9557
 5766TIP3   OH238712   0.792   6.148   3.247 -0.0980  0.5358 -0.0644
 5766TIP3    H138713   0.745   6.229   3.227 -0.5803  0.8711  2.1986
 5766TIP3    H238714   0.844   6.169   3.325  0.9334 -0.9193 -0.3239
 5767TIP3   OH238715   3.784   2.184   4.419 -0.5978 -0.4265  0.4746
 5767TIP3    H138716   3.784   2.278   4.402 -0.5782 -0.7484 -1.6131
 5767TIP3    H238717   3.855   2.150   4.364 -0.3975 -1.6384  1.4302
 5768TIP3   OH238718   3.511   2.003   3.734 -0.1827 -0.0885  0.2680
 5768TIP3    H138719   3.433   1.961   3.770 -0.5125 -0.1970 -0.5595
 5768TIP3    H238720   3.584   1.958   3.776 -0.5541 -0.1974  0.8129
 5769TIP3   OH238721   5.254   2.071   5.176  0.0052 -0.4628 -0.2328
 5769TIP3    H138722   5.314   2.004   5.143  1.0018 -0.1789  0.9064
 5769TIP3    H238723   5.298   2.154   5.156 -0.4410 -0.2103 -0.1824
 5770TIP3   OH238724   2.147   2.627   2.858  0.4429 -0.2501  0.1476
 5770TIP3    H138725   2.203   2.701   2.836  0.7007 -1.2302 -2.8409
 5770TIP3    H238726   2.060   2.650   2.824  0.4625 -1.1661 -0.5738
 5771TIP3   OH238727   5.190   1.473   3.986  0.0701  0.6945 -0.4985
 5771TIP3    H138728   5.257   1.405   3.979  1.7331  2.1347  0.5969
 5771TIP3    H238729   5.197   1.522   3.905 -0.1917  0.3912 -0.7070
 5772TIP3   OH238730   4.283   5.265   4.186 -0.1489 -0.4503  0.1710
 5772TIP3    H138731   4.321   5.318   4.116  1.6482 -0.8405  0.8149
 5772TIP3    H238732   4.347   5.197   4.203  0.0834  0.3296  3.0260
 5773TIP3   OH238733   2.047   5.230  12.181 -0.1649 -0.3201  0.6961
 5773TIP3    H138734   2.136   5.258  12.161  0.4710 -0.2309  3.3268
 5773TIP3    H238735   1.999   5.311  12.197 -0.3912 -0.4331  0.5999
 5774TIP3   OH238736   6.661   6.132  12.550 -0.2888 -0.2226  0.1725
 5774TIP3    H138737   6.617   6.181  12.620  1.9798  1.9546  0.2439
 5774TIP3    H238738   6.612   6.154  12.471  0.1643  1.5772  0.3433
 5775TIP3   OH238739   6.171   5.141  11.984 -0.1574  0.1107 -0.8010
 5775TIP3    H138740   6.194   5.140  12.077 -3.3497  0.8477  0.1056
 5775TIP3    H238741   6.126   5.057  11.970 -2.1773  1.1577 -0.9032
 5776TIP3   OH238742   4.320   2.332  11.723  0.1970 -0.1864 -0.2110
 5776TIP3    H138743   4.412   2.339  11.698  0.6153  0.3561  1.3628
 5776TIP3    H238744   4.296   2.420  11.751 -0.4358 -0.5956  0.5731
 5777TIP3   OH238745   6.292   4.996  16.038 -0.1624 -0.2502  0.3719
 5777TIP3    H138746   6.257   5.012  15.950  0.6523  1.8360  0.3746
 5777TIP3    H238747   6.223   5.027  16.097 -0.1646 -0.3977  0.4460
 5778TIP3   OH238748   6.021   5.264  15.710  0.0328  0.6359  0.9901
 5778TIP3    H138749   6.071   5.185  15.729 -0.6880  0.5586  2.7019
 5778TIP3    H238750   6.053   5.329  15.773 -1.2133  0.9177  1.3567
 5779TIP3   OH238751   0.638   5.269   4.905 -0.3467 -1.0060  0.9168
 5779TIP3    H138752   0.559   5.313   4.874  0.4304 -0.1932  0.0160
 5779TIP3    H238753   0.607   5.186   4.942 -1.4494 -1.4628 -0.9306
 5780TIP3   OH238754   1.426   5.360  15.380  0.0194  0.0655 -0.0754
 5780TIP3    H138755   1.446   5.410  15.301  1.7419 -0.8979 -0.2964
 5780TIP3    H238756   1.458   5.272  15.361  1.0162 -0.0426  1.8985
 5781TIP3   OH238757   0.129   3.646  12.523 -0.2035 -0.0118 -0.1779
 5781TIP3    H138758   0.128   3.678  12.433 -1.4640 -0.4449 -0.3476
 5781TIP3    H238759   0.220   3.651  12.550  0.1365  0.4630 -1.3571
 5782TIP3   OH238760   5.223   4.940  15.303  0.2737 -0.0226  0.3851
 5782TIP3    H138761   5.204   5.032  15.281 -1.8564 -0.5543 -0.2970
 5782TIP3    H238762   5.225   4.896  15.218  2.9414 -0.3944  0.5756
 5783TIP3   OH238763   1.289   5.835   6.085 -0.1041 -0.2262 -0.5779
 5783TIP3    H138764   1.327   5.910   6.131  1.0725 -0.6086 -0.8977
 5783TIP3    H238765   1.364   5.781   6.060 -0.8358 -0.8437 -1.5247
 5784TIP3   OH238766   5.159   0.277  14.681  0.1735  0.0525 -0.2292
 5784TIP3    H138767   5.159   0.329  14.601  0.0251  1.7432  0.8103
 5784TIP3    H238768   5.212   0.200  14.660  2.2447  1.6396 -1.2288
 5785TIP3   OH238769   1.293   5.103  15.360  0.1316 -0.1778  0.0578
 5785TIP3    H138770   1.248   5.164  15.302  0.7659  0.2051 -0.0406
 5785TIP3    H238771   1.273   5.135  15.449  1.3419  0.8423 -0.0047
 5786TIP3   OH238772   4.227   0.604   5.158  0.3714  0.4630  0.0438
 5786TIP3    H138773   4.303   0.637   5.206  0.2946  1.8889 -0.7851
 5786TIP3    H238774   4.191   0.535   5.215  0.8188  1.4819  1.6095
 5787TIP3   OH238775   3.365   6.657  13.400  0.0287  0.3884  0.4002
 5787TIP3    H138776   3.445   6.651  13.348 -0.6055 -0.2243 -0.5386
 5787TIP3    H238777   3.367   6.580  13.456 -1.1059 -1.0464 -1.4285
 5788TIP3   OH238778   5.304   0.665   6.557  1.0997 -0.3366 -0.4008
 5788TIP3    H138779   5.253   0.689   6.635  0.6897 -1.2254 -0.3788
 5788TIP3    H238780   5.347   0.746   6.530  0.4145  0.2190  0.1406
 5789TIP3   OH238781   2.124   4.028  12.379  0.3387  0.4528  0.5532
 5789TIP3    H138782   2.146   3.991  12.294 -1.6045  1.5731 -0.5126
 5789TIP3    H238783   2.208   4.057  12.415  1.0611  1.4391 -1.7399
 5790TIP3   OH238784   1.404   1.144  15.963  0.2461 -0.2467 -0.3587
 5790TIP3    H138785   1.359   1.167  16.044  0.7825  0.1001 -0.1563
 5790TIP3    H238786   1.345   1.174  15.894 -0.3942 -0.9051 -0.1016
 5791TIP3   OH238787   4.953   2.239   1.628  0.1816  0.4938 -0.4605
 5791TIP3    H138788   4.898   2.193   1.691  0.2704  1.2312  0.1632
 5791TIP3    H238789   4.913   2.221   1.543 -0.3812  0.1212 -0.1196
 5792TIP3   OH238790   4.458   2.508  13.181 -0.5443 -0.0901  0.2358
 5792TIP3    H138791   4.504   2.587  13.206  0.5397 -0.6323  0.0033
 5792TIP3    H238792   4.397   2.536  13.112  0.4473  0.3826 -0.4608
 5793TIP3   OH238793   4.620   5.168   4.910 -0.0480 -0.7372  0.4720
 5793TIP3    H138794   4.711   5.195   4.925 -0.0992 -0.0213 -0.4083
 5793TIP3    H238795   4.580   5.169   4.997  1.3871 -3.4957  1.2854
 5794TIP3   OH238796   0.762   0.302  17.104 -0.3734 -0.0335 -0.6032
 5794TIP3    H138797   0.779   0.381  17.155 -0.8118 -0.1240 -0.3181
 5794TIP3    H238798   0.844   0.252  17.109 -0.4660 -0.1145  0.1326
 5795TIP3   OH238799   1.504   1.716  11.224 -0.2493 -0.4098 -0.4672
 5795TIP3    H138800   1.457   1.677  11.151  0.4876 -0.7516 -0.7727
 5795TIP3    H238801   1.505   1.647  11.291 -1.7741  0.2364  0.2712
 5796TIP3   OH238802   1.952   3.961   1.284 -0.6626  0.7640  0.0050
 5796TIP3    H138803   1.960   3.934   1.375  1.5335 -0.0444 -0.3645
 5796TIP3    H238804   1.915   3.885   1.239  1.9333 -0.3583 -0.3842
 5797TIP3   OH238805   4.196   4.865  14.026 -0.3489 -0.4439 -0.1717
 5797TIP3    H138806   4.142   4.798  14.067  0.1468 -0.3945  0.5682
 5797TIP3    H238807   4.142   4.944  14.027 -0.3286 -0.4378  0.4053
 5798TIP3   OH238808   0.610   2.769   1.251 -0.8960 -0.5687  0.8992
 5798TIP3    H138809   0.670   2.837   1.280 -1.6622  0.3868  0.3018
 5798TIP3    H238810   0.581   2.797   1.164  1.0357 -3.1383 -0.7305
 5799TIP3   OH238811   3.883   0.232   2.983  0.1295 -0.2336  0.0266
 5799TIP3    H138812   3.952   0.226   2.916  0.1133 -0.6588  0.0441
 5799TIP3    H238813   3.913   0.301   3.042  1.0782 -1.1599  0.6491
 5800TIP3   OH238814   5.470   1.247   1.272  0.1802  0.3135 -0.0113
 5800TIP3    H138815   5.415   1.282   1.341  0.5594 -0.5854  0.7779
 5800TIP3    H238816   5.480   1.154   1.294 -1.9325 -0.6944 -2.7531
 5801TIP3   OH238817   2.234   0.719  11.955 -0.4923 -0.2993  0.2634
 5801TIP3    H138818   2.284   0.793  11.921  1.6038 -2.3265 -1.3477
 5801TIP3    H238819   2.153   0.720  11.904  0.5066 -0.4065 -1.4024
 5802TIP3   OH238820   0.499   5.770  10.985 -0.3481  0.3569 -0.2981
 5802TIP3    H138821   0.464   5.686  10.955 -0.6721  1.4479 -3.2087
 5802TIP3    H238822   0.583   5.779  10.940  0.6694  0.7701  1.5418
 5803TIP3   OH238823   6.550   3.654  15.283 -0.2723 -0.4069 -0.2078
 5803TIP3    H138824   6.537   3.605  15.364  0.8077 -0.8852 -0.3053
 5803TIP3    H238825   6.484   3.724  15.286 -0.3770 -0.5401  0.9820
 5804TIP3   OH238826   1.556   0.144  12.127 -0.2293 -0.2730 -0.0220
 5804TIP3    H138827   1.513   0.125  12.043  0.0712 -0.7115 -0.0811
 5804TIP3    H238828   1.537   0.068  12.182 -0.4180  0.0092  0.3077
 5805TIP3   OH238829   0.705   0.691  17.243 -0.3475 -0.0620 -0.1458
 5805TIP3    H138830   0.776   0.627  17.246 -0.6084 -0.3993 -0.9835
 5805TIP3    H238831   0.709   0.728  17.156 -0.4629  0.7781  0.2001
 5806TIP3   OH238832   3.105   1.883   1.741 -0.2822 -0.1836  0.1819
 5806TIP3    H138833   3.121   1.830   1.818  1.0300  2.0129  1.5411
 5806TIP3    H238834   3.033   1.941   1.765  0.5417  0.9431  0.0733
 5807TIP3   OH238835   4.838   2.485   1.470 -0.0520 -0.3384  0.0275
 5807TIP3    H138836   4.808   2.551   1.408  2.6140  1.1429  0.1586
 5807TIP3    H238837   4.887   2.421   1.417 -3.5234 -3.0219 -0.2721
 5808TIP3   OH238838   1.080   4.758  16.759  0.0993  0.3917 -0.3648
 5808TIP3    H138839   1.126   4.829  16.805 -0.7698  1.5000 -1.1722
 5808TIP3    H238840   1.148   4.716  16.706  0.6243  0.5864  0.1425
 5809TIP3   OH238841   1.071   5.891   6.687  0.2318  0.4232  0.5207
 5809TIP3    H138842   1.116   5.934   6.760  2.0041  0.5635 -0.5977
 5809TIP3    H238843   1.101   5.800   6.691  1.4571  0.7332 -0.8139
 5810TIP3   OH238844   2.351   2.424  13.323 -0.1485 -0.1205 -0.6647
 5810TIP3    H138845   2.358   2.369  13.401 -0.0222  0.6338 -0.1365
 5810TIP3    H238846   2.259   2.417  13.297 -0.1083 -0.6716 -0.6762
 5811TIP3   OH238847   1.012   5.889  16.582 -0.4488 -0.1955 -0.0980
 5811TIP3    H138848   1.010   5.968  16.528  2.9184 -0.0958 -0.3145
 5811TIP3    H238849   1.057   5.916  16.662  3.8476 -2.3457 -1.4599
 5812TIP3   OH238850   2.615   3.837   3.849 -0.0375  0.2469 -0.5266
 5812TIP3    H138851   2.655   3.847   3.935 -0.7893  0.5395 -0.2035
 5812TIP3    H238852   2.677   3.877   3.788 -0.5051  2.0629  0.1316
 5813TIP3   OH238853   4.987   1.258  16.902  0.4152  0.8869  0.8412
 5813TIP3    H138854   4.956   1.323  16.964  0.1947  0.7512  0.8748
 5813TIP3    H238855   5.012   1.183  16.955  2.7905  1.7215  1.0220
 5814TIP3   OH238856   2.207   4.234  11.166 -0.4258 -0.3634 -0.1384
 5814TIP3    H138857   2.134   4.258  11.223  0.0552  0.0075  0.3331
 5814TIP3    H238858   2.181   4.266  11.079 -1.6720 -1.9471 -0.3904
 5815TIP3   OH238859   1.349   1.951   5.359 -0.6303  0.2147 -0.3079
 5815TIP3    H138860   1.327   1.929   5.450 -0.1247 -0.0296 -0.2434
 5815TIP3    H238861   1.345   2.047   5.357  0.6852  0.3024  0.3251
 5816TIP3   OH238862   5.213   5.635   1.326 -0.1501  0.5583 -0.3040
 5816TIP3    H138863   5.304   5.664   1.338 -0.4836  1.6473 -0.2871
 5816TIP3    H238864   5.216   5.579   1.248  0.6012  0.2579 -0.0671
 5817TIP3   OH238865   0.690   0.743  12.561  0.0482  0.1269 -0.0722
 5817TIP3    H138866   0.726   0.829  12.581  0.5119 -0.2646  0.7930
 5817TIP3    H238867   0.661   0.750  12.470  2.6479  0.3613 -0.9661
 5818TIP3   OH238868   6.604   4.799  16.486 -0.4442  0.3417 -0.2405
 5818TIP3    H138869   6.690   4.839  16.499 -0.4910  1.0027 -1.7225
 5818TIP3    H238870   6.595   4.793  16.391 -1.0178 -1.9850 -0.1066
 5819TIP3   OH238871   5.880   1.991   1.561  0.5995 -0.0172  0.0089
 5819TIP3    H138872   5.870   1.963   1.652 -0.0451  1.1186  0.3066
 5819TIP3    H238873   5.840   1.921   1.510  0.9479 -0.6561  0.6020
 5820TIP3   OH238874   3.850   6.501  15.705  0.6655 -0.7926  0.0496
 5820TIP3    H138875   3.786   6.551  15.654  1.8061 -0.6880 -1.3344
 5820TIP3    H238876   3.820   6.410  15.699 -1.6254 -0.3608  2.8834
 5821TIP3   OH238877   3.980   0.951  11.323 -0.7253 -0.0044  0.1133
 5821TIP3    H138878   3.969   0.863  11.358  1.2347  0.2087  1.3990
 5821TIP3    H238879   4.010   0.938  11.233 -1.5120 -0.6117 -0.0690
 5822TIP3   OH238880   3.075   3.176  10.518  0.4696  0.0580  1.2528
 5822TIP3    H138881   3.013   3.202  10.586  0.8220 -0.0957  1.6330
 5822TIP3    H238882   3.160   3.176  10.561  0.8873  1.2470  0.4819
 5823TIP3   OH238883   2.565   6.325   5.694  0.2963  0.3437 -0.0529
 5823TIP3    H138884   2.530   6.330   5.783  0.1562 -1.5174  0.0391
 5823TIP3    H238885   2.642   6.269   5.702 -0.6680 -1.2402 -1.3520
 5824TIP3   OH238886   6.628   5.815   4.730 -0.0347 -0.1333 -0.1139
 5824TIP3    H138887   6.682   5.821   4.809  0.5847  0.6300 -0.5871
 5824TIP3    H238888   6.659   5.885   4.674 -3.2336  2.0976  0.6357
 5825TIP3   OH238889   5.867   5.931   5.664  0.2015 -0.8380  0.1962
 5825TIP3    H138890   5.832   5.939   5.753  0.9810 -0.0002  0.4444
 5825TIP3    H238891   5.911   5.846   5.663  1.4500 -0.2333  1.0859
 5826TIP3   OH238892   4.543   1.459   2.293  0.2071 -0.0403  0.0070
 5826TIP3    H138893   4.630   1.471   2.331 -0.7737  1.0013  2.0694
 5826TIP3    H238894   4.525   1.366   2.302  0.5523 -0.0318  0.9006
 5827TIP3   OH238895   2.269   1.948  12.120  0.1962 -0.1261 -0.5153
 5827TIP3    H138896   2.216   1.943  12.041  0.1525  0.4020 -0.5189
 5827TIP3    H238897   2.355   1.978  12.090 -0.1173  1.0910 -0.2321
 5828TIP3   OH238898   3.388   3.723   4.898  0.0722 -0.1796  0.3974
 5828TIP3    H138899   3.448   3.654   4.923  0.0285 -0.5648 -0.5210
 5828TIP3    H238900   3.325   3.681   4.840  0.0112  0.6076 -0.1335
 5829TIP3   OH238901   5.321   0.877   1.343  0.0800  0.0968  0.5796
 5829TIP3    H138902   5.315   0.781   1.343  0.6131  0.0604  1.2290
 5829TIP3    H238903   5.379   0.897   1.270  0.6279 -0.1260  0.9453
 5830TIP3   OH238904   0.950   2.102  15.009  0.1860 -0.0458 -0.4740
 5830TIP3    H138905   0.989   2.049  15.079 -2.2028 -0.1573  0.8614
 5830TIP3    H238906   1.025   2.134  14.959  1.9254 -0.8770  1.4642
 5831TIP3   OH238907   5.917   0.977   0.552 -0.3010 -0.3769  0.4345
 5831TIP3    H138908   5.829   0.991   0.515 -1.4933 -0.9531  2.8639
 5831TIP3    H238909   5.930   0.883   0.549  0.9690 -0.2092 -1.3120
 5832TIP3   OH238910   4.065   6.606  11.917 -0.7898  0.7069  0.0162
 5832TIP3    H138911   4.135   6.628  11.979 -1.3902  0.9262  0.6254
 5832TIP3    H238912   4.109   6.553  11.850  0.1981  1.7917 -0.2316
 5833TIP3   OH238913   2.912   4.422   0.375 -0.2587  0.4874 -0.7780
 5833TIP3    H138914   2.840   4.386   0.323  0.1986  0.9556 -1.7650
 5833TIP3    H238915   2.991   4.399   0.327  0.4085 -1.3490  1.0794
 5834TIP3   OH238916   0.374   3.231   5.516 -1.0006  0.3664 -0.4714
 5834TIP3    H138917   0.469   3.237   5.525 -1.2521  0.8730  3.4542
 5834TIP3    H238918   0.353   3.140   5.538 -1.5676  0.8521  1.0594
 5835TIP3   OH238919   5.273   3.294   4.131 -0.6240 -0.1641 -0.6131
 5835TIP3    H138920   5.308   3.359   4.070  0.3830  1.2024  1.3008
 5835TIP3    H238921   5.349   3.240   4.154 -0.9448 -0.5474 -0.4546
 5836TIP3   OH238922   3.288   4.851   4.024  0.1451  0.4912  0.3318
 5836TIP3    H138923   3.220   4.916   4.012  1.7008  2.0299 -0.5860
 5836TIP3    H238924   3.287   4.799   3.944  0.7012  1.1730 -0.1273
 5837TIP3   OH238925   6.060   1.936  12.434 -0.6745 -0.2311 -0.1553
 5837TIP3    H138926   5.989   1.872  12.435 -0.3569 -0.6869 -2.3373
 5837TIP3    H238927   6.140   1.884  12.442 -0.3632 -0.2905 -2.8140
 5838TIP3   OH238928   1.085   3.346   3.344 -0.6329  0.3497 -0.0643
 5838TIP3    H138929   1.023   3.345   3.417  0.0533 -0.8277  0.5529
 5838TIP3    H238930   1.171   3.354   3.386 -0.3000  1.0020 -0.8414
 5839TIP3   OH238931   6.513   0.061   5.080  0.3431  0.2260 -0.0322
 5839TIP3    H138932   6.422   0.041   5.055  0.5325 -0.3572 -0.2704
 5839TIP3    H238933   6.518   0.157   5.075  0.1576  0.1841 -1.5002
 5840TIP3   OH238934   1.730   4.603  16.436  0.3142  0.5768  0.8235
 5840TIP3    H138935   1.735   4.680  16.380  0.9831 -0.3173 -0.4017
 5840TIP3    H238936   1.706   4.532  16.376  0.0520 -0.2236  1.8588
 5841TIP3   OH238937   3.357   1.674  12.338 -0.1225  0.4278 -0.1073
 5841TIP3    H138938   3.328   1.764  12.321 -0.9493 -0.1117 -1.7972
 5841TIP3    H238939   3.392   1.645  12.254  2.6803  0.0388  1.0992
 5842TIP3   OH238940   1.229   0.785  17.174  0.1744  0.1335  0.4866
 5842TIP3    H138941   1.140   0.802  17.204  1.3431  3.1498  2.6607
 5842TIP3    H238942   1.264   0.871  17.152  2.0850 -1.1517 -1.9816
 5843TIP3   OH238943   5.173   4.293   4.625  0.0639  0.1389  0.0509
 5843TIP3    H138944   5.247   4.329   4.674  0.2121 -0.2609  0.1214
 5843TIP3    H238945   5.213   4.252   4.548 -0.2005  1.1346 -0.6362
 5844TIP3   OH238946   5.860   5.918   0.977 -0.0818 -0.0359  0.1483
 5844TIP3    H138947   5.860   5.959   1.063 -1.8878  0.9584 -0.2629
 5844TIP3    H238948   5.876   5.990   0.916  2.8125 -0.9663 -0.3540
 5845TIP3   OH238949   1.358   0.489   2.595 -0.2445  0.0738 -0.6809
 5845TIP3    H138950   1.271   0.521   2.570  0.1460 -0.0933 -2.3600
 5845TIP3    H238951   1.404   0.566   2.629 -0.1561  0.7869 -2.3269
 5846TIP3   OH238952   5.448   0.756  16.270  0.8494  0.2508  0.4211
 5846TIP3    H138953   5.431   0.773  16.362 -0.1989  0.7135  0.1560
 5846TIP3    H238954   5.384   0.809  16.223  0.6368 -0.8189 -0.5509
 5847TIP3   OH238955   1.435   5.733  14.491 -0.4681 -0.1149  0.5508
 5847TIP3    H138956   1.340   5.745  14.487 -0.7269 -0.5072  3.4986
 5847TIP3    H238957   1.461   5.719  14.400 -3.2518 -0.1876 -0.3247
 5848TIP3   OH238958   1.656   4.187  11.268 -0.1651 -0.1371 -0.2376
 5848TIP3    H138959   1.661   4.112  11.208 -0.1587 -0.5061  0.2172
 5848TIP3    H238960   1.657   4.264  11.211 -0.0786 -0.4825 -0.7053
 5849TIP3   OH238961   0.164   4.189  12.330  0.3371  0.0495 -0.0677
 5849TIP3    H138962   0.213   4.108  12.347 -0.3403 -0.6967 -1.4584
 5849TIP3    H238963   0.228   4.259  12.342  1.0631 -0.7289  0.6991
 5850TIP3   OH238964   0.816   5.943   4.755  0.0464 -0.9855  0.0814
 5850TIP3    H138965   0.733   5.928   4.709 -1.3521 -1.6180  2.6178
 5850TIP3    H238966   0.880   5.889   4.708 -1.3691 -1.8714 -0.8926
 5851TIP3   OH238967   4.828   3.486   0.789  0.5230 -0.3444 -0.1843
 5851TIP3    H138968   4.797   3.406   0.832 -1.1347  0.0048 -0.6770
 5851TIP3    H238969   4.809   3.555   0.852  1.0266 -0.2079 -0.1802
 5852TIP3   OH238970   2.760   3.838   1.856  0.0268  0.9438  0.1646
 5852TIP3    H138971   2.790   3.782   1.927  1.6656  1.7029  0.1170
 5852TIP3    H238972   2.787   3.793   1.776 -2.4190 -0.2532 -0.0839
 5853TIP3   OH238973   5.094   2.396  12.837  0.3822 -0.7542 -0.1605
 5853TIP3    H138974   5.013   2.353  12.811  0.0781 -1.0326  1.1384
 5853TIP3    H238975   5.102   2.375  12.931  1.1946  0.4648  0.0593
 5854TIP3   OH238976   5.371   0.343  12.529  0.2766 -0.2356 -0.2085
 5854TIP3    H138977   5.392   0.250  12.543 -1.0509 -0.3722  1.2433
 5854TIP3    H238978   5.417   0.389  12.599 -0.4166 -0.0085  0.1079
 5855TIP3   OH238979   5.984   6.690   4.353  0.2807  0.4591  0.5780
 5855TIP3    H138980   5.980   6.643   4.269 -2.0413  1.2273  0.1846
 5855TIP3    H238981   5.921   6.761   4.343 -0.3737  0.3200  3.1227
 5856TIP3   OH238982   4.313   2.764  17.083  0.2083 -0.0686  0.6270
 5856TIP3    H138983   4.334   2.681  17.126  0.0927 -0.8697 -0.8119
 5856TIP3    H238984   4.339   2.751  16.992  2.4368  2.3132  0.7988
 5857TIP3   OH238985   0.773   3.095  15.642 -0.3423 -0.3447 -0.0066
 5857TIP3    H138986   0.709   3.074  15.710 -0.0553  1.3366  0.8282
 5857TIP3    H238987   0.749   3.039  15.568 -1.4233 -1.3080  1.0459
 5858TIP3   OH238988   1.680   1.700  14.887 -0.2260  0.0366  0.0505
 5858TIP3    H138989   1.587   1.677  14.887 -0.6866  1.6540  1.3428
 5858TIP3    H238990   1.692   1.751  14.807 -1.3836  2.8720  1.5269
 5859TIP3   OH238991   0.019   1.790  12.536 -0.2193  0.1722  0.1874
 5859TIP3    H138992  -0.012   1.790  12.627  1.5924  2.2658  0.8795
 5859TIP3    H238993  -0.042   1.848  12.490  0.4191  1.3114  0.7235
 5860TIP3   OH238994   6.580   4.032  13.395 -0.2898  0.7463  0.5058
 5860TIP3    H138995   6.656   4.012  13.340  0.6627 -0.2466  2.0989
 5860TIP3    H238996   6.527   3.952  13.393 -0.0863  0.5854  1.2609
 5861TIP3   OH238997   2.899   1.304   5.352  0.8203  0.3461  0.4169
 5861TIP3    H138998   2.930   1.252   5.426  2.3199  1.0105  0.3048
 5861TIP3    H238999   2.965   1.374   5.343  0.1849  0.8056 -0.9694
 5862TIP3   OH239000   4.495   5.006   3.938  0.4263 -0.4738 -0.7906
 5862TIP3    H139001   4.508   5.028   4.030  0.3455  0.1727 -0.9258
 5862TIP3    H239002   4.476   5.090   3.896  0.4201 -0.7683 -1.3885
 5863TIP3   OH239003   4.281   0.602  17.114 -0.1265 -0.1611  0.2452
 5863TIP3    H139004   4.345   0.618  17.045  0.4023  0.8932  0.9636
 5863TIP3    H239005   4.312   0.522  17.157 -0.4015 -0.7660 -0.6571
 5864TIP3   OH239006   4.800   3.005   2.325  0.2362 -0.9015 -0.4970
 5864TIP3    H139007   4.707   2.993   2.341  0.6625 -4.0450  0.2019
 5864TIP3    H239008   4.809   3.098   2.305 -2.7165 -0.0365  1.5648
 5865TIP3   OH239009   3.847   1.741   3.204  0.0180 -0.2088 -0.5935
 5865TIP3    H139010   3.772   1.781   3.160  0.8290  1.9412 -0.1556
 5865TIP3    H239011   3.838   1.768   3.296  0.9513 -0.4630 -0.4142
 5866TIP3   OH239012   4.683   1.255   6.301 -0.6126 -0.2997  0.0744
 5866TIP3    H139013   4.714   1.337   6.262 -0.4255 -1.2320 -1.8497
 5866TIP3    H239014   4.659   1.200   6.226  0.3019 -2.4157  1.2326
 5867TIP3   OH239015   6.514   2.400   2.775  0.3250 -0.2335  0.1665
 5867TIP3    H139016   6.483   2.491   2.770  0.3295 -0.2198  0.3921
 5867TIP3    H239017   6.561   2.395   2.858  0.1980 -0.4816  0.2230
 5868TIP3   OH239018   5.697   3.971   3.392 -0.0003 -0.5328 -0.0944
 5868TIP3    H139019   5.678   4.044   3.333 -1.0008  1.0578  2.0478
 5868TIP3    H239020   5.793   3.963   3.391  0.4666  2.9308  1.8601
 5869TIP3   OH239021   1.275   4.261  12.727  0.0570  0.3225 -0.3815
 5869TIP3    H139022   1.310   4.187  12.677 -1.2211 -0.4054 -0.2309
 5869TIP3    H239023   1.234   4.318  12.661  1.5702  1.2544 -0.5769
 5870TIP3   OH239024   3.190   0.902  15.016  0.0830 -0.2696 -0.4623
 5870TIP3    H139025   3.179   0.820  15.064 -2.5202  0.3180  0.1247
 5870TIP3    H239026   3.241   0.958  15.074  2.0316 -1.4787 -0.9434
 5871TIP3   OH239027   2.554   1.601   4.173 -0.2440  0.0969  0.1532
 5871TIP3    H139028   2.467   1.638   4.190 -0.9548 -1.5176  0.1971
 5871TIP3    H239029   2.593   1.590   4.259 -0.8575 -1.1136  0.3004
 5872TIP3   OH239030   1.890   6.463  13.313 -0.0983 -0.0735  0.3869
 5872TIP3    H139031   1.953   6.415  13.367  1.6671  1.1171 -0.5256
 5872TIP3    H239032   1.817   6.403  13.302  1.5605 -2.1530  0.1807
 5873TIP3   OH239033   2.236   1.649   1.396 -0.2795  0.0214  0.5665
 5873TIP3    H139034   2.275   1.562   1.400 -0.9546 -0.4002 -1.0788
 5873TIP3    H239035   2.307   1.709   1.417  0.3159 -0.8909  1.2215
 5874TIP3   OH239036   1.607   5.752   1.614  0.4478  0.6926  0.2635
 5874TIP3    H139037   1.617   5.697   1.536  2.4594  1.2011  0.1134
 5874TIP3    H239038   1.608   5.690   1.687  1.3585  0.4001  0.0193
 5875TIP3   OH239039   6.404   0.367   4.064 -0.3743 -0.1716 -0.3074
 5875TIP3    H139040   6.322   0.332   4.026 -0.5051  0.2308 -0.4000
 5875TIP3    H239041   6.386   0.374   4.158 -1.1044  1.6451 -0.5397
 5876TIP3   OH239042   0.360   3.856  15.449  0.0703  0.0913  0.1392
 5876TIP3    H139043   0.359   3.951  15.441 -1.1379  0.2123  1.3921
 5876TIP3    H239044   0.447   3.836  15.486 -0.6046  0.9855  2.3981
 5877TIP3   OH239045   2.338   1.390   5.306  0.7283 -0.0494 -0.1356
 5877TIP3    H139046   2.418   1.432   5.274  1.3561 -1.0016  0.1415
 5877TIP3    H239047   2.297   1.457   5.361  0.8484  0.7698 -1.0152
 5878TIP3   OH239048   1.001   0.785  15.277 -0.2711 -0.9772  0.3655
 5878TIP3    H139049   1.019   0.793  15.183  0.6729 -0.7702  0.5505
 5878TIP3    H239050   0.936   0.715  15.283  1.4652 -2.7509 -0.2823
 5879TIP3   OH239051   0.654   4.897   2.464 -0.4860  0.4506 -0.7352
 5879TIP3    H139052   0.680   4.934   2.549 -0.1233  1.4701 -1.2786
 5879TIP3    H239053   0.709   4.819   2.454 -0.5454  0.3108 -0.0326
 5880TIP3   OH239054   1.245   3.262   1.588 -0.0368 -0.0232  0.3797
 5880TIP3    H139055   1.232   3.239   1.680  0.6687  1.4686  0.8889
 5880TIP3    H239056   1.319   3.209   1.561  0.5860  0.4712  1.0664
 5881TIP3   OH239057   0.610   1.611  11.401 -0.0966  0.2082  0.2184
 5881TIP3    H139058   0.651   1.577  11.481  1.7002 -1.9523 -1.4780
 5881TIP3    H239059   0.527   1.564  11.394  0.0353 -0.0705  0.4946
 5882TIP3   OH239060   2.949   6.722  11.818 -0.4439 -0.5542  0.0851
 5882TIP3    H139061   2.897   6.754  11.891  0.8543  0.7134  0.4912
 5882TIP3    H239062   2.920   6.775  11.743  0.2734  0.1707  0.3168
 5883TIP3   OH239063   2.578   3.241  10.644 -0.7518  0.3203  0.4371
 5883TIP3    H139064   2.494   3.219  10.603  0.4882 -0.8338 -1.6389
 5883TIP3    H239065   2.618   3.303  10.583  0.0655  0.6003  1.2433
 5884TIP3   OH239066   5.752   4.525  11.830  0.2838  0.2076 -0.1270
 5884TIP3    H139067   5.700   4.485  11.899 -0.0919  1.7636  0.5220
 5884TIP3    H239068   5.714   4.612  11.817 -0.4225 -0.4259 -3.1352
 5885TIP3   OH239069   4.310   3.191  14.031 -0.3591 -0.3274 -0.0668
 5885TIP3    H139070   4.362   3.179  14.111 -1.3779 -1.5929  0.4345
 5885TIP3    H239071   4.271   3.278  14.040  1.0529  0.3489 -0.1194
 5886TIP3   OH239072   1.632   2.153   2.671 -0.5360  0.0480  0.1951
 5886TIP3    H139073   1.550   2.202   2.680 -0.9899 -0.4575 -0.9390
 5886TIP3    H239074   1.607   2.073   2.623  0.5791 -0.2115  0.0150
 5887TIP3   OH239075   5.017   3.102  13.843 -0.4608  0.1581 -0.2375
 5887TIP3    H139076   4.936   3.151  13.834 -0.3234  0.3365 -0.5004
 5887TIP3    H239077   4.991   3.021  13.889 -0.5406  0.8379  0.9683
 5888TIP3   OH239078   5.786   4.583  14.931  0.2730 -0.4116  0.0542
 5888TIP3    H139079   5.712   4.531  14.901  0.5478  0.4946 -2.4470
 5888TIP3    H239080   5.764   4.673  14.905  2.3426 -0.1657 -1.0324
 5889TIP3   OH239081   6.782   1.689  13.417  0.2988 -0.6025  0.0161
 5889TIP3    H139082   6.868   1.705  13.456  0.9342 -0.6557 -1.3222
 5889TIP3    H239083   6.795   1.698  13.323 -0.9345 -1.6723 -0.2972
 5890TIP3   OH239084   1.639   2.043  15.532  0.4709  0.3670 -0.4765
 5890TIP3    H139085   1.665   1.952  15.541  1.9151  0.7070 -0.9052
 5890TIP3    H239086   1.619   2.072  15.621  0.6368 -0.1862 -0.2587
 5891TIP3   OH239087   2.625   3.793   4.805 -0.2137  0.2254  0.1654
 5891TIP3    H139088   2.591   3.724   4.748 -2.0050  1.6966 -0.6546
 5891TIP3    H239089   2.547   3.843   4.831  0.9590  1.5875  1.2175
 5892TIP3   OH239090   1.167   2.031   3.973 -0.4462 -0.6588 -0.3550
 5892TIP3    H139091   1.143   2.113   4.016 -3.0392 -1.9783  0.9177
 5892TIP3    H239092   1.145   1.963   4.037  0.4388 -2.4527 -1.8501
 5893TIP3   OH239093   0.574   2.928  13.316  0.0816 -0.3302 -0.0358
 5893TIP3    H139094   0.548   2.885  13.397  0.1109  0.0791  0.1921
 5893TIP3    H239095   0.669   2.916  13.312 -0.1536 -2.0849 -1.0199
 5894TIP3   OH239096   4.900   2.908   3.681  0.7489  0.7989 -0.1456
 5894TIP3    H139097   4.870   2.903   3.590 -1.5939 -1.8250  0.6083
 5894TIP3    H239098   4.994   2.893   3.676  0.5397 -0.1829 -2.1001
 5895TIP3   OH239099   4.316   3.420   5.890  0.6667  0.1959 -0.2641
 5895TIP3    H139100   4.242   3.360   5.892  1.7077 -1.1501 -0.0118
 5895TIP3    H239101   4.302   3.478   5.964 -1.4222  1.6648 -1.7097
 5896TIP3   OH239102   2.437   3.021   0.663  0.1068 -0.1927  0.1707
 5896TIP3    H139103   2.398   2.963   0.597 -3.6450  0.0983  1.8517
 5896TIP3    H239104   2.430   3.109   0.626 -2.4081  0.0211  0.9513
 5897TIP3   OH239105   6.753   4.449   1.723  0.4290  0.2338  0.6813
 5897TIP3    H139106   6.702   4.440   1.803 -0.5781 -2.0675 -0.1129
 5897TIP3    H239107   6.701   4.507   1.667 -0.4420 -0.6231  0.5727
 5898TIP3   OH239108   3.935   2.868  14.693  0.5807 -0.3929  0.0943
 5898TIP3    H139109   3.901   2.804  14.754 -0.0308 -0.6855 -0.5441
 5898TIP3    H239110   4.030   2.864  14.704  0.4598  0.0969  1.5492
 5899TIP3   OH239111   6.393   2.113  12.508  0.0421  0.1443 -0.6095
 5899TIP3    H139112   6.373   2.093  12.599  0.5837  0.3916 -0.4350
 5899TIP3    H239113   6.375   2.207  12.499  0.6221  0.2596 -0.5854
 5900TIP3   OH239114   6.115   3.995  12.673 -0.5394 -0.3765  0.2231
 5900TIP3    H139115   6.205   3.963  12.670 -0.6791 -0.6709 -1.3308
 5900TIP3    H239116   6.101   4.037  12.589 -0.8997  2.4016  1.5627
 5901TIP3   OH239117   0.861   2.810  16.933 -0.5451  0.6979  0.3734
 5901TIP3    H139118   0.886   2.903  16.940 -1.7630  1.0713 -0.0523
 5901TIP3    H239119   0.770   2.812  16.905 -0.5869 -0.6433  0.3782
 5902TIP3   OH239120   3.845   5.301  16.350  0.3588 -0.0035 -0.3957
 5902TIP3    H139121   3.895   5.377  16.319 -0.4320  0.7939  0.2452
 5902TIP3    H239122   3.755   5.321  16.326 -0.2397  0.4721  2.0359
 5903TIP3   OH239123   3.160   1.534   5.632 -0.2375  0.1105 -0.1408
 5903TIP3    H139124   3.224   1.492   5.689 -0.9249 -0.8435 -0.0458
 5903TIP3    H239125   3.138   1.616   5.677  0.5147  0.1872  0.0894
 5904TIP3   OH239126   1.384   6.036  12.182  0.2681  0.5300 -0.6382
 5904TIP3    H139127   1.364   6.025  12.275  1.1527  0.4804 -0.4454
 5904TIP3    H239128   1.437   5.960  12.159  1.2772  1.2616 -0.8154
 5905TIP3   OH239129   6.048   2.968   5.310 -0.3894 -0.2751 -0.0429
 5905TIP3    H139130   5.981   2.905   5.282  0.4761 -0.9835 -0.5764
 5905TIP3    H239131   5.999   3.035   5.357 -1.3621 -1.2996  0.4773
 5906TIP3   OH239132   5.162   2.629  14.624 -0.5146  0.2155  0.4956
 5906TIP3    H139133   5.095   2.651  14.558  0.5406  2.8973  0.2286
 5906TIP3    H239134   5.202   2.549  14.590 -1.0496  0.6591 -1.3244
 5907TIP3   OH239135   4.960   1.504  11.354 -0.1528 -0.0030  0.3692
 5907TIP3    H139136   4.964   1.518  11.259  1.1060 -0.6668  0.3048
 5907TIP3    H239137   5.051   1.509  11.383 -0.4551 -0.4937  1.4457
 5908TIP3   OH239138   0.384   5.363   3.786 -0.7620 -0.1746 -0.1893
 5908TIP3    H139139   0.460   5.381   3.730 -0.7016  0.8606  0.2103
 5908TIP3    H239140   0.422   5.330   3.867 -0.6086  1.9092  0.6340
 5909TIP3   OH239141   0.588   5.822   3.055  0.0164 -0.4086 -0.7010
 5909TIP3    H139142   0.538   5.794   3.132  0.6331 -0.9121 -0.4755
 5909TIP3    H239143   0.592   5.918   3.063  1.5075 -0.5481  0.8267
 5910TIP3   OH239144   4.423   2.683  11.781  0.1133  0.1244  0.1656
 5910TIP3    H139145   4.382   2.706  11.865  0.4733 -0.3529  0.4832
 5910TIP3    H239146   4.508   2.647  11.806  0.6503  0.9371 -0.4768
 5911TIP3   OH239147   6.049   6.032   5.467 -0.5048 -0.2440 -0.0364
 5911TIP3    H139148   5.973   6.000   5.515  0.1203  0.8741  1.7683
 5911TIP3    H239149   6.029   6.123   5.447 -0.7606 -0.6791 -2.0138
 5912TIP3   OH239150   4.015   2.073  15.322  0.0463  0.2530 -0.0316
 5912TIP3    H139151   3.992   2.036  15.237  0.0292 -2.4606  1.0263
 5912TIP3    H239152   4.110   2.064  15.327 -0.1186 -1.6818  0.9858
 5913TIP3   OH239153   0.502   4.814   3.253 -0.2495 -0.4953  0.2422
 5913TIP3    H139154   0.588   4.851   3.230 -1.6405  2.6014 -0.4519
 5913TIP3    H239155   0.463   4.791   3.169 -0.4730 -1.0551  0.4958
 5914TIP3   OH239156   1.834   4.350  16.269  0.1033 -0.5291 -0.7156
 5914TIP3    H139157   1.899   4.419  16.260  0.1074 -0.5023 -0.4761
 5914TIP3    H239158   1.883   4.274  16.301  0.3674 -1.0780 -2.3477
 5915TIP3   OH239159   2.408   0.865  15.478  0.2471  1.0985  0.2829
 5915TIP3    H139160   2.323   0.890  15.514  0.3568  0.4153  1.0462
 5915TIP3    H239161   2.472   0.897  15.542  0.4532  0.0014  0.6516
 5916TIP3   OH239162   6.123   3.138   3.759 -0.1060  0.3348  0.3595
 5916TIP3    H139163   6.122   3.115   3.666 -0.3528 -1.7143  0.8258
 5916TIP3    H239164   6.097   3.230   3.761  2.3115  1.1984 -1.7769
 5917TIP3   OH239165   1.277   1.796  15.259  0.1649  0.1572 -0.0702
 5917TIP3    H139166   1.248   1.748  15.181 -0.2500  0.4863 -0.1257
 5917TIP3    H239167   1.357   1.751  15.287 -0.0536 -0.3805 -0.2911
 5918TIP3   OH239168   4.936   4.485   4.815 -0.5679  0.3114 -0.2562
 5918TIP3    H139169   5.015   4.442   4.848  1.0165  2.2262 -1.3745
 5918TIP3    H239170   4.914   4.437   4.735  2.4221  2.6110 -2.6874
 5919TIP3   OH239171   2.866   5.447   4.477  0.0844 -0.2186  0.3713
 5919TIP3    H139172   2.901   5.410   4.395  0.5691 -0.4410  0.6738
 5919TIP3    H239173   2.866   5.374   4.538 -1.6912 -0.4226  0.1599
 5920TIP3   OH239174   5.583   0.206   4.082  0.0257  0.6017  0.3471
 5920TIP3    H139175   5.589   0.112   4.070  0.4460  0.7578 -0.7696
 5920TIP3    H239176   5.669   0.232   4.115  0.0267  0.6515  0.3047
 5921TIP3   OH239177   2.747   2.553   3.414  0.2236 -0.5628  0.1386
 5921TIP3    H139178   2.796   2.532   3.494  1.7994  1.2276 -0.3058
 5921TIP3    H239179   2.812   2.551   3.344 -0.0355  2.7612 -0.3458
 5922TIP3   OH239180   5.369   2.814   4.469 -0.2890  0.3492 -0.7358
 5922TIP3    H139181   5.313   2.877   4.514 -0.9789  0.2290 -1.4070
 5922TIP3    H239182   5.420   2.866   4.407  1.3918  0.6636  0.8065
 5923TIP3   OH239183   2.885   2.669   0.589  1.2480  0.5446 -0.3055
 5923TIP3    H139184   2.818   2.686   0.657  2.5625  1.3001  0.8520
 5923TIP3    H239185   2.889   2.573   0.584 -1.5556  0.4001 -2.1237
 5924TIP3   OH239186   3.570   3.014  14.098 -0.5066 -0.8393  0.3125
 5924TIP3    H139187   3.540   3.032  14.187 -0.0482  1.5506  0.0392
 5924TIP3    H239188   3.664   3.003  14.106 -0.4868 -0.7947  0.1490
 5925TIP3   OH239189   3.769   1.378  13.950 -0.0478 -0.4964  0.5646
 5925TIP3    H139190   3.843   1.362  14.008  0.4273 -1.3628 -0.2457
 5925TIP3    H239191   3.784   1.465  13.914  0.5476 -0.6427  0.4565
 5926TIP3   OH239192   2.801   1.501   1.716  0.9468 -0.0155 -0.1241
 5926TIP3    H139193   2.850   1.513   1.634 -0.8964 -2.5894 -1.7675
 5926TIP3    H239194   2.863   1.458   1.774  1.3840 -1.0771 -1.3256
 5927TIP3   OH239195   3.116   6.710   5.117  0.4515 -0.4750  0.2017
 5927TIP3    H139196   3.143   6.795   5.083 -0.6004  0.0381  0.5829
 5927TIP3    H239197   3.102   6.656   5.039  1.7549 -0.5270 -0.0224
 5928TIP3   OH239198   5.479   3.270  13.026 -0.2862  0.4017  0.0541
 5928TIP3    H139199   5.419   3.200  13.000 -0.1442 -1.0705  3.1685
 5928TIP3    H239200   5.565   3.228  13.028  0.5547  1.8617 -2.0503
 5929TIP3   OH239201   4.563   3.961   2.606  0.2647  0.3329  0.3992
 5929TIP3    H139202   4.656   3.962   2.629  0.3916 -1.1885  0.0286
 5929TIP3    H239203   4.559   4.003   2.520  0.6670  0.0495  0.2390
 5930TIP3   OH239204   6.290   6.438   3.117  0.4090 -0.0151  0.6558
 5930TIP3    H139205   6.368   6.393   3.148  0.7519  0.4004  0.4145
 5930TIP3    H239206   6.315   6.531   3.115 -0.1313  0.1364  0.7031
 5931TIP3   OH239207   0.925   1.632  14.484  0.7664 -0.7073 -0.0737
 5931TIP3    H139208   0.912   1.556  14.540 -0.0482 -0.8080 -0.3775
 5931TIP3    H239209   0.836   1.664  14.467  1.0741  0.0339 -0.3246
 5932TIP3   OH239210   3.111   2.772  12.504 -0.2790 -0.8923 -0.0948
 5932TIP3    H139211   3.034   2.741  12.457  0.1178 -0.1742 -1.2750
 5932TIP3    H239212   3.082   2.785  12.594 -1.8913  0.5515 -0.7779
 5933TIP3   OH239213   0.895   0.709   5.852  0.4864 -0.7505  0.1984
 5933TIP3    H139214   0.801   0.694   5.848  0.6239 -1.5868 -0.1162
 5933TIP3    H239215   0.923   0.660   5.930  0.5163  0.3592  0.9052
 5934TIP3   OH239216   2.340   4.680   1.147 -0.0039  0.0563 -0.2152
 5934TIP3    H139217   2.293   4.750   1.194  0.4712  0.2601 -0.0351
 5934TIP3    H239218   2.281   4.655   1.076 -0.4660  0.1770  0.1209
 5935TIP3   OH239219   5.405   1.022   0.212 -0.4138  0.0004 -0.0729
 5935TIP3    H139220   5.431   0.941   0.168  0.7359  0.3108  0.0287
 5935TIP3    H239221   5.456   1.091   0.169  0.4874  0.3606  1.4963
 5936TIP3   OH239222   4.848   4.071   2.634  0.5097  0.3131 -0.3662
 5936TIP3    H139223   4.831   4.151   2.584 -0.6259  0.2014 -0.1749
 5936TIP3    H239224   4.926   4.092   2.686  1.2337  0.7088 -1.5691
 5937TIP3   OH239225   5.312   5.861   5.506 -0.8012  0.6590  0.2536
 5937TIP3    H139226   5.240   5.812   5.545  1.4587 -2.0123  1.4670
 5937TIP3    H239227   5.390   5.833   5.556  1.6133  0.5890 -3.1917
 5938TIP3   OH239228   1.145   3.928   3.193  0.4353  0.0151  0.2841
 5938TIP3    H139229   1.234   3.953   3.220  0.7534 -0.0640 -0.6297
 5938TIP3    H239230   1.096   4.009   3.194  0.8473  0.2831 -0.3780
 5939TIP3   OH239231   0.056   4.269  15.452  0.6728 -0.1657  0.3617
 5939TIP3    H139232   0.026   4.198  15.395 -1.4215  0.0199  1.1454
 5939TIP3    H239233   0.135   4.233  15.494  0.0357 -1.7980  0.2548
 5940TIP3   OH239234   2.009   6.563   3.233  0.4952  0.0606 -0.2414
 5940TIP3    H139235   2.099   6.591   3.221  0.3158  0.4808 -0.6518
 5940TIP3    H239236   2.015   6.481   3.281  1.1911 -0.8647 -1.8527
 5941TIP3   OH239237   5.769   5.582  15.763 -0.4400 -0.1425  0.0606
 5941TIP3    H139238   5.762   5.529  15.684  0.3665  0.2049 -0.2613
 5941TIP3    H239239   5.738   5.526  15.834  0.4186 -1.0431 -0.2676
 5942TIP3   OH239240   1.421   1.063   5.276  0.3695  0.4216 -0.2338
 5942TIP3    H139241   1.328   1.046   5.291  0.5540 -0.2474  0.2117
 5942TIP3    H239242   1.442   1.137   5.333  0.3621 -0.1422  0.5126
 5943TIP3   OH239243   2.808   4.740  16.338  0.2599  0.2324  0.3365
 5943TIP3    H139244   2.815   4.782  16.253  0.2789  1.0275  0.7202
 5943TIP3    H239245   2.762   4.805  16.393  0.1253 -0.3199  0.8909
 5944TIP3   OH239246   3.784   6.119  17.189 -0.2629  0.8198 -0.9584
 5944TIP3    H139247   3.699   6.075  17.185 -0.1007  0.5341 -1.4268
 5944TIP3    H239248   3.806   6.122  17.282 -1.8765  3.0204 -0.5710
 5945TIP3   OH239249   2.566   5.011   3.647 -0.5614 -0.1929 -0.0560
 5945TIP3    H139250   2.488   5.042   3.694 -1.5687 -0.6755 -1.3558
 5945TIP3    H239251   2.622   4.975   3.715 -1.0323  1.0358  1.0306
 5946TIP3   OH239252   6.428   6.453   3.868  0.5302  0.5115  0.5830
 5946TIP3    H139253   6.499   6.403   3.907  0.2363  0.4341  1.0257
 5946TIP3    H239254   6.355   6.391   3.863  0.8279  0.2323 -0.9653
 5947TIP3   OH239255   4.087   3.257   1.778  0.1936 -0.4685 -0.3236
 5947TIP3    H139256   4.127   3.186   1.728  1.0685 -0.1385 -0.1103
 5947TIP3    H239257   4.094   3.334   1.722 -0.7886 -0.5377 -0.5693
 5948TIP3   OH239258   5.836   3.102   0.570 -0.6358 -0.0618  0.3743
 5948TIP3    H139259   5.831   3.192   0.603 -0.6044 -0.3926  1.3026
 5948TIP3    H239260   5.918   3.068   0.605 -0.5840 -0.4100 -0.0818
 5949TIP3   OH239261   1.942   4.710   1.100  0.8769  0.8339  0.3647
 5949TIP3    H139262   1.908   4.720   1.011 -2.7344  3.5683  1.8239
 5949TIP3    H239263   1.866   4.686   1.153  3.0959 -1.7055  2.7023
 5950TIP3   OH239264   0.279   0.629   4.637  0.0665 -0.1895  0.2886
 5950TIP3    H139265   0.344   0.642   4.568 -0.2004  1.1287  0.2570
 5950TIP3    H239266   0.247   0.717   4.657 -3.3757 -0.9391 -1.2977
 5951TIP3   OH239267   3.377   1.057   2.761  0.1543 -0.0356  0.2383
 5951TIP3    H139268   3.293   1.102   2.757  0.3013  0.3637  1.2596
 5951TIP3    H239269   3.442   1.126   2.749  0.3461 -0.6051 -2.4693
 5952TIP3   OH239270   6.785   1.399  13.159  0.6062 -0.1323 -0.0284
 5952TIP3    H139271   6.709   1.354  13.123  0.3297 -0.6947  1.1989
 5952TIP3    H239272   6.809   1.348  13.237  3.0147 -0.7077 -1.0555
 5953TIP3   OH239273   6.551   3.069   0.776  0.6983  0.4818 -0.7358
 5953TIP3    H139274   6.548   3.012   0.699  1.7806 -0.4728 -0.1094
 5953TIP3    H239275   6.636   3.050   0.816 -0.0788  0.5192  1.0279
 5954TIP3   OH239276   5.373   5.531   5.269 -0.0753  0.0758 -0.0128
 5954TIP3    H139277   5.429   5.463   5.306  0.5675 -0.2166 -1.4361
 5954TIP3    H239278   5.284   5.501   5.285  0.2029 -1.0083 -0.4325
 5955TIP3   OH239279   5.851   1.703  12.413  0.8586  0.1080  0.3857
 5955TIP3    H139280   5.831   1.726  12.322  0.4744  1.0704  0.6962
 5955TIP3    H239281   5.881   1.613  12.409 -1.8100 -0.8426 -0.3729
 5956TIP3   OH239282   4.269   5.315  15.372  0.3684  0.0599  0.2910
 5956TIP3    H139283   4.298   5.386  15.315 -2.4848  2.0361  1.1135
 5956TIP3    H239284   4.348   5.288  15.419  1.4484  3.1719  0.4359
 5957TIP3   OH239285   0.438   2.364   1.706 -0.4074  0.1586  0.0235
 5957TIP3    H139286   0.445   2.457   1.689  1.2428 -0.0161 -0.4419
 5957TIP3    H239287   0.490   2.350   1.786  1.8892 -0.7213 -1.5023
 5958TIP3   OH239288   1.231   4.729  15.560 -0.0560  0.4492 -0.2635
 5958TIP3    H139289   1.166   4.756  15.495 -1.3192  1.0571  1.1754
 5958TIP3    H239290   1.301   4.794  15.552  0.4336 -0.2266 -1.8537
 5959TIP3   OH239291   5.680   3.249   0.402 -0.1387 -0.3312 -0.4170
 5959TIP3    H139292   5.744   3.204   0.457  1.2024  0.9083 -0.8848
 5959TIP3    H239293   5.638   3.179   0.352  0.7573 -1.1989 -0.0016
 5960TIP3   OH239294   4.092   2.370   4.746  0.5200  0.8097  0.0198
 5960TIP3    H139295   4.029   2.435   4.716  1.6477  2.2444  0.6242
 5960TIP3    H239296   4.175   2.418   4.751  1.1507 -0.3547  1.5903
 5961TIP3   OH239297   3.083   4.303  12.336 -0.1694  0.3491  0.4896
 5961TIP3    H139298   3.015   4.360  12.299 -0.1776  0.0363  0.0166
 5961TIP3    H239299   3.154   4.306  12.272 -1.0472 -1.9174 -0.6834
 5962TIP3   OH239300   1.449   6.397   2.104 -0.5880 -0.2994 -0.3804
 5962TIP3    H139301   1.410   6.411   2.190  1.0840  2.6902  0.0309
 5962TIP3    H239302   1.376   6.406   2.043 -1.1823  1.5690  0.5318
 5963TIP3   OH239303   2.252   1.898  15.759  0.7835  0.0594 -0.3729
 5963TIP3    H139304   2.251   1.939  15.672  1.2412 -0.4723 -0.6398
 5963TIP3    H239305   2.321   1.832  15.753  0.6166 -0.1848  0.3062
 5964TIP3   OH239306   4.220   4.037   1.222 -0.8360  0.1291  0.1117
 5964TIP3    H139307   4.286   4.051   1.154  0.7334 -0.8417  1.3703
 5964TIP3    H239308   4.141   4.011   1.174  0.1505 -0.2679 -1.3532
 5965TIP3   OH239309   6.025   3.220   6.287  0.0492  0.2849 -0.8203
 5965TIP3    H139310   6.049   3.196   6.377  0.7770  3.0346 -0.1830
 5965TIP3    H239311   6.069   3.155   6.232 -0.6342 -1.6227  0.7695
 5966TIP3   OH239312   4.480   3.536   6.730 -0.1783 -0.5592 -0.4713
 5966TIP3    H139313   4.503   3.616   6.683  0.7641  0.7783  2.0855
 5966TIP3    H239314   4.388   3.520   6.707 -0.8221  2.0708 -0.0059
 5967TIP3   OH239315   0.375   4.043   5.667 -0.6914  0.0188  0.3115
 5967TIP3    H139316   0.366   3.961   5.716  2.5049  0.0736  1.2484
 5967TIP3    H239317   0.340   4.110   5.727 -0.9012 -0.3873  0.6489
 5968TIP3   OH239318   3.453   4.810  13.089  0.3193 -0.1968  0.1362
 5968TIP3    H139319   3.371   4.761  13.087  0.6078 -0.7133  0.5631
 5968TIP3    H239320   3.521   4.743  13.091  0.7306  0.2183  0.4475
 5969TIP3   OH239321   1.912   5.568  15.030 -0.0339  0.4422  0.1023
 5969TIP3    H139322   1.838   5.585  15.088 -0.2589  0.9532 -0.3224
 5969TIP3    H239323   1.882   5.597  14.943  1.0089  1.6275  0.0999
 5970TIP3   OH239324   0.465   3.472   0.117  0.3336 -0.2047  0.3011
 5970TIP3    H139325   0.554   3.468   0.080  0.3975 -3.5903  0.5880
 5970TIP3    H239326   0.413   3.413   0.062 -1.4229  0.5849  1.0466
 5971TIP3   OH239327   2.150   4.666   2.122  0.6328 -0.2882  0.1268
 5971TIP3    H139328   2.117   4.753   2.104  0.1894 -0.3238  0.7432
 5971TIP3    H239329   2.170   4.666   2.216 -0.2206 -1.1239  0.3247
 5972TIP3   OH239330   2.661   2.225   0.116  0.7344 -0.2675  0.4936
 5972TIP3    H139331   2.723   2.174   0.169 -0.2404  1.0808  3.1276
 5972TIP3    H239332   2.577   2.214   0.161 -0.9833 -1.6768 -2.7110
 5973TIP3   OH239333   3.536   2.043  14.611 -0.1040  0.5963  0.1151
 5973TIP3    H139334   3.563   2.081  14.528 -0.3827  0.0420 -0.2410
 5973TIP3    H239335   3.608   1.985  14.635  0.6353  1.8385  1.0073
 5974TIP3   OH239336   4.547   6.586  15.527 -0.4194  0.2129  0.1789
 5974TIP3    H139337   4.591   6.502  15.537 -0.5967 -0.2055 -2.1655
 5974TIP3    H239338   4.556   6.608  15.435  0.4452  3.2751  0.8718
 5975TIP3   OH239339   4.839   0.452  15.720 -0.1740 -0.2984  0.0853
 5975TIP3    H139340   4.843   0.367  15.677 -1.6407  0.1099 -0.9459
 5975TIP3    H239341   4.766   0.444  15.781 -0.2643  0.1869  0.0457
 5976TIP3   OH239342   6.259   1.171  11.170  0.5967 -0.3295  0.5118
 5976TIP3    H139343   6.178   1.221  11.164 -0.5241 -1.7188  2.6627
 5976TIP3    H239344   6.279   1.145  11.080 -1.4036 -0.0306 -0.0535
 5977TIP3   OH239345   4.182   6.139  15.917 -0.1849 -0.2164 -0.2868
 5977TIP3    H139346   4.250   6.123  15.982 -0.9800  3.1024  1.5694
 5977TIP3    H239347   4.180   6.234  15.906 -2.2224 -0.4362 -2.8769
 5978TIP3   OH239348   3.215   2.706  16.813  0.3785  0.4308  0.6810
 5978TIP3    H139349   3.210   2.720  16.719  0.6754 -1.2791  0.3798
 5978TIP3    H239350   3.125   2.683  16.838  0.3655  0.5585  0.7495
 5979TIP3   OH239351   1.434   4.773  11.501 -0.1888  0.2125 -0.2784
 5979TIP3    H139352   1.389   4.711  11.559 -1.0515 -0.3375 -1.4951
 5979TIP3    H239353   1.525   4.770  11.530 -0.7510  0.7510  1.7268
 5980TIP3   OH239354   1.688   5.372   3.421 -0.1880  0.1036 -0.0513
 5980TIP3    H139355   1.767   5.322   3.401 -0.3050 -0.5211  0.9485
 5980TIP3    H239356   1.716   5.438   3.484 -0.9992 -2.3338  3.1502
 5981TIP3   OH239357   6.082   6.132   1.543 -0.2486 -0.6236  0.2211
 5981TIP3    H139358   6.048   6.221   1.543  1.0952 -0.0817 -0.2048
 5981TIP3    H239359   6.077   6.105   1.634  0.7130  0.4677  0.6276
 5982TIP3   OH239360   2.483   6.352  11.593 -0.6888  0.4827 -0.4545
 5982TIP3    H139361   2.480   6.380  11.501  0.1977 -0.7363 -0.8765
 5982TIP3    H239362   2.400   6.307  11.608 -0.0495 -1.0233 -1.2562
 5983TIP3   OH239363   4.980   5.508   6.327  0.6923 -0.0909 -0.5394
 5983TIP3    H139364   5.005   5.420   6.353  0.5406  0.6219  2.4069
 5983TIP3    H239365   5.034   5.565   6.382 -0.5725  1.6050 -0.9770
 5984TIP3   OH239366   5.334   4.501   2.171  0.0006 -0.1298  0.7608
 5984TIP3    H139367   5.259   4.453   2.135  0.4530  0.1037 -0.5270
 5984TIP3    H239368   5.296   4.557   2.238 -0.6395 -1.7531  1.8241
 5985TIP3   OH239369   4.659   3.100  11.462 -0.3185  0.0584  0.2662
 5985TIP3    H139370   4.734   3.059  11.421  0.3571 -0.1374  1.6309
 5985TIP3    H239371   4.585   3.079  11.405 -0.2449 -4.0141  1.3748
 5986TIP3   OH239372   2.873   5.383  11.096  0.1027 -0.3836  0.3027
 5986TIP3    H139373   2.809   5.322  11.133  0.6366 -0.4810  1.0810
 5986TIP3    H239374   2.822   5.461  11.076 -0.2833 -0.4797  0.8665
 5987TIP3   OH239375   3.988   1.872  13.947 -0.5052 -0.5650  0.0598
 5987TIP3    H139376   3.991   1.877  14.043 -2.2324 -0.2855  0.1251
 5987TIP3    H239377   3.957   1.783  13.930 -1.4502 -0.2015 -0.1831
 5988TIP3   OH239378   0.286   1.742   4.152 -0.1318 -0.0461  0.2111
 5988TIP3    H139379   0.291   1.650   4.179  2.5212 -0.2181 -0.5561
 5988TIP3    H239380   0.335   1.789   4.219 -0.6092  0.6705  0.0636
 5989TIP3   OH239381   5.352   2.333   4.353 -0.0206 -0.0113 -0.5444
 5989TIP3    H139382   5.320   2.407   4.404  1.5162  0.6326 -0.4432
 5989TIP3    H239383   5.378   2.371   4.269 -0.3817 -0.6637 -0.9581
 5990TIP3   OH239384   1.567   4.413  12.639  0.3283 -0.5967 -0.3432
 5990TIP3    H139385   1.552   4.319  12.636 -2.5488 -0.3440  1.8640
 5990TIP3    H239386   1.480   4.452  12.622  1.0665  1.5998  0.5045
 5991TIP3   OH239387   5.044   1.466   2.240  0.5445 -0.2211 -0.3535
 5991TIP3    H139388   5.082   1.543   2.283  0.4614 -0.8310  0.8697
 5991TIP3    H239389   5.024   1.495   2.151  2.3466  0.5737 -0.5311
 5992TIP3   OH239390   5.158   6.024   0.374 -0.1234 -0.0870 -0.5450
 5992TIP3    H139391   5.224   5.982   0.319  0.4521 -0.1592  0.1877
 5992TIP3    H239392   5.075   6.000   0.334  0.2868 -0.0393 -1.4544
 5993TIP3   OH239393   6.427   5.608  10.680  0.3412 -0.5660 -0.1750
 5993TIP3    H139394   6.437   5.696  10.641 -0.8803 -0.3610 -0.0757
 5993TIP3    H239395   6.490   5.606  10.751  1.0725 -0.1300 -0.7887
 5994TIP3   OH239396   6.457   2.746  14.436 -0.1244 -0.3185 -0.2282
 5994TIP3    H139397   6.547   2.729  14.408  0.1952 -0.1401  0.6618
 5994TIP3    H239398   6.454   2.839  14.457  0.3667 -0.8844  2.7290
 5995TIP3   OH239399   5.706   1.064   3.916 -0.1795  0.4424 -0.3946
 5995TIP3    H139400   5.799   1.041   3.915 -0.3740 -0.7586  2.0232
 5995TIP3    H239401   5.703   1.154   3.948  0.1345  0.7112 -1.0810
 5996TIP3   OH239402   6.345   6.096   1.856  0.1877 -0.4131 -0.5225
 5996TIP3    H139403   6.422   6.055   1.815  1.9882  0.8767  1.3806
 5996TIP3    H239404   6.376   6.126   1.941 -2.3773  0.4725  0.1850
 5997TIP3   OH239405   6.612   1.453   5.068 -0.2331 -0.5644 -0.0703
 5997TIP3    H139406   6.534   1.431   5.016 -0.5452  0.6363 -0.1422
 5997TIP3    H239407   6.579   1.474   5.155 -0.0975  0.7430 -0.3175
 5998TIP3   OH239408   4.205   2.830  16.591  0.4989 -0.1864  0.0683
 5998TIP3    H139409   4.129   2.876  16.556 -0.5098 -1.9884 -0.2642
 5998TIP3    H239410   4.279   2.886  16.570 -0.5774  0.9530 -0.8701
 5999TIP3   OH239411   0.463   4.057   2.573 -0.6354  0.6121  0.1427
 5999TIP3    H139412   0.530   4.121   2.547 -0.8386  0.8883  0.2922
 5999TIP3    H239413   0.382   4.107   2.575 -0.8591  0.2585 -0.1037
 6000TIP3   OH239414   2.289   5.024   0.661 -0.3599  0.8045  0.7339
 6000TIP3    H139415   2.344   4.964   0.610  0.0444  1.8312 -0.0718
 6000TIP3    H239416   2.351   5.073   0.716 -0.8470 -0.9006  2.9670
 6001TIP3   OH239417   3.055   3.957   2.473 -0.1797  0.1399  0.1398
 6001TIP3    H139418   3.043   4.033   2.530  2.0426 -0.7687  1.9435
 6001TIP3    H239419   2.990   3.894   2.502 -1.8210  1.1145 -1.1556
 6002TIP3   OH239420   4.343   2.759  13.524 -0.4768 -0.0929  0.1616
 6002TIP3    H139421   4.310   2.815  13.594 -0.1186  1.3658 -0.8037
 6002TIP3    H239422   4.267   2.706  13.498 -1.8880  2.4558 -1.3109
 6003TIP3   OH239423   6.219   2.175   1.909  0.0590 -0.4274  0.3091
 6003TIP3    H139424   6.167   2.182   1.829 -0.1194 -1.8318  0.2700
 6003TIP3    H239425   6.304   2.212   1.886 -0.5677  0.9214  0.0563
 6004TIP3   OH239426   2.706   4.018  12.815 -0.5727  0.2419  0.2708
 6004TIP3    H139427   2.762   3.944  12.792  0.1544  0.4448  1.2853
 6004TIP3    H239428   2.695   4.010  12.910  0.7550  2.2386  0.6573
 6005TIP3   OH239429   3.739   0.668   2.422 -0.1306  0.3902 -0.0373
 6005TIP3    H139430   3.654   0.674   2.466  0.7431 -1.2077  2.0733
 6005TIP3    H239431   3.773   0.758   2.422 -1.2712  0.8279  0.2560
 6006TIP3   OH239432   1.939   0.362  13.962 -0.2963 -0.1733  0.0438
 6006TIP3    H139433   1.895   0.419  14.024  0.9007  0.8914 -0.0531
 6006TIP3    H239434   2.018   0.333  14.007  1.0540  1.3201 -1.2325
 6007TIP3   OH239435   1.933   3.883  16.164 -0.4919 -0.0538  0.6591
 6007TIP3    H139436   2.022   3.856  16.185 -0.7456 -1.7034 -0.1944
 6007TIP3    H239437   1.944   3.963  16.113  0.4793  0.0131  0.9547
 6008TIP3   OH239438   0.660   1.839   1.354 -0.0963 -0.2960  0.0294
 6008TIP3    H139439   0.748   1.801   1.363 -0.0799 -0.2403  0.1053
 6008TIP3    H239440   0.619   1.788   1.285 -0.6156 -1.4808  1.1616
 6009TIP3   OH239441   0.056   2.472   2.894  0.3383  0.3324 -0.1113
 6009TIP3    H139442   0.112   2.457   2.818  1.3734 -1.4027  0.9211
 6009TIP3    H239443   0.011   2.555   2.875 -0.4502 -0.6749 -3.1741
 6010TIP3   OH239444   1.480   2.853  15.065 -0.1227 -0.4986  0.4197
 6010TIP3    H139445   1.513   2.927  15.116  1.2366 -0.7100 -0.1237
 6010TIP3    H239446   1.552   2.829  15.008 -1.0396 -1.3515 -0.4177
 6011TIP3   OH239447   5.609   5.949  15.813  0.8258 -0.1852  0.1315
 6011TIP3    H139448   5.659   5.870  15.794  2.2916  0.7563 -0.1126
 6011TIP3    H239449   5.620   6.004  15.735 -2.4489 -0.7763 -0.9273
 6012TIP3   OH239450   0.722   4.554   2.408 -0.5557  0.0685 -0.3101
 6012TIP3    H139451   0.740   4.464   2.436 -0.7078  0.0266 -0.3486
 6012TIP3    H239452   0.728   4.552   2.313 -0.0230  0.2150 -0.2875
 6013TIP3   OH239453   5.857   3.348   1.058  0.7368  0.3840 -0.0969
 6013TIP3    H139454   5.795   3.368   1.129  1.8889 -0.2573  1.1362
 6013TIP3    H239455   5.895   3.433   1.035  0.9141  0.5047  0.6136
 6014TIP3   OH239456   2.978   0.614   5.926 -0.2883 -0.3251 -0.2348
 6014TIP3    H139457   2.934   0.580   6.004  1.3090  0.2231  0.9720
 6014TIP3    H239458   2.948   0.557   5.855 -1.9139 -0.7429  0.7255
 6015TIP3   OH239459   4.170   6.624   1.384 -0.3134  1.0658  0.0309
 6015TIP3    H139460   4.179   6.603   1.291  0.7320 -0.6949  0.4705
 6015TIP3    H239461   4.246   6.582   1.425 -0.6477  1.9723  1.6647
 6016TIP3   OH239462   1.308   6.024   0.874  0.0043 -0.2352 -0.8284
 6016TIP3    H139463   1.330   5.989   0.788  0.8852 -1.1600 -0.2486
 6016TIP3    H239464   1.384   6.004   0.928 -0.8794 -0.4326  0.3768
 6017TIP3   OH239465   2.879   0.450  12.938  0.5640 -0.3960 -0.1337
 6017TIP3    H139466   2.961   0.486  12.973  1.0372 -2.8659  1.5715
 6017TIP3    H239467   2.865   0.497  12.856  1.7422  2.6732  1.2535
 6018TIP3   OH239468   4.937   1.277  13.972  0.2566 -0.4747  0.3164
 6018TIP3    H139469   4.871   1.303  14.037 -0.0202 -1.5664  0.4923
 6018TIP3    H239470   4.958   1.359  13.926 -0.7080  0.0277  0.7228
 6019TIP3   OH239471   1.297   4.901   2.153  0.4722 -0.0168  0.1382
 6019TIP3    H139472   1.227   4.953   2.113  1.1447  1.3940  0.7080
 6019TIP3    H239473   1.369   4.905   2.089  1.2952  1.6453  1.0800
 6020TIP3   OH239474   4.823   4.304  17.153  0.1494 -0.5760  0.6030
 6020TIP3    H139475   4.808   4.340  17.240 -0.9280  1.5212 -0.3817
 6020TIP3    H239476   4.759   4.233  17.144  0.0186 -0.5594  1.3720
 6021TIP3   OH239477   5.882   2.214   3.926  0.5763  0.1407 -0.2882
 6021TIP3    H139478   5.945   2.232   3.856 -0.4633  0.1110 -1.2564
 6021TIP3    H239479   5.831   2.140   3.893  0.2873 -0.0827  0.6556
 6022TIP3   OH239480   0.922   3.152  13.428  0.2840  0.3129  0.1073
 6022TIP3    H139481   0.843   3.166  13.376 -0.4606  1.3941  1.4386
 6022TIP3    H239482   0.992   3.189  13.375 -0.1267 -0.3993 -0.9715
 6023TIP3   OH239483   4.714   1.732   4.717  0.0227  0.0031  0.4975
 6023TIP3    H139484   4.689   1.645   4.685 -0.1938  0.0481  0.5458
 6023TIP3    H239485   4.641   1.759   4.772 -0.4385  0.7188 -0.4430
 6024TIP3   OH239486   3.180   5.027  13.228  0.2391  0.2696  0.4213
 6024TIP3    H139487   3.192   5.087  13.155  2.3693  1.1213  1.3939
 6024TIP3    H239488   3.150   5.082  13.300 -0.5367 -0.3260  0.5623
 6025TIP3   OH239489   1.604   4.921  13.863  0.1569  0.1113  0.1178
 6025TIP3    H139490   1.606   4.921  13.767 -0.3401  0.0109  0.1070
 6025TIP3    H239491   1.520   4.881  13.886  0.1302  0.4297  0.5940
 6026TIP3   OH239492   2.450   1.147  13.798  0.0021 -0.0543 -0.4171
 6026TIP3    H139493   2.521   1.092  13.765 -0.4879 -0.6292 -0.5109
 6026TIP3    H239494   2.495   1.212  13.853  1.0771  2.0305 -3.5112
 6027TIP3   OH239495   4.713   1.932  12.395 -0.2163  0.0695  0.4376
 6027TIP3    H139496   4.807   1.947  12.387 -0.3142  0.1467 -0.5919
 6027TIP3    H239497   4.706   1.843  12.430  0.2563  0.6397  2.1080
 6028TIP3   OH239498   4.819   5.130  12.542  0.0125  0.2294 -0.7390
 6028TIP3    H139499   4.873   5.056  12.515  0.2129  0.8977 -2.3137
 6028TIP3    H239500   4.829   5.134  12.637  1.6110 -0.5306 -0.8345
 6029TIP3   OH239501   5.178   2.692   2.509 -0.3270  1.0214 -0.3504
 6029TIP3    H139502   5.140   2.756   2.449 -0.4018  0.9138 -0.4176
 6029TIP3    H239503   5.116   2.619   2.509 -0.4801  1.1499  0.0930
 6030TIP3   OH239504   2.901   0.469   3.799 -0.0558  0.2736 -0.3412
 6030TIP3    H139505   2.863   0.410   3.735  0.3292 -0.1470 -0.1892
 6030TIP3    H239506   2.989   0.435   3.814 -0.9735 -1.2346  2.3381
 6031TIP3   OH239507   1.693   2.566  12.725 -0.8881 -0.2349 -0.4108
 6031TIP3    H139508   1.729   2.478  12.729 -1.5516 -0.5058 -0.2577
 6031TIP3    H239509   1.760   2.621  12.767 -1.1927 -0.9022  1.0162
 6032TIP3   OH239510   3.084   1.073   3.303 -0.3384 -0.3180 -0.0964
 6032TIP3    H139511   3.006   1.031   3.339 -0.4287  0.2406  0.3787
 6032TIP3    H239512   3.135   1.099   3.379 -0.1262  0.1339 -0.3866
 6033TIP3   OH239513   1.272   4.633  16.612  0.5889  0.1459  0.2294
 6033TIP3    H139514   1.346   4.640  16.673 -0.0511 -0.9419  1.1958
 6033TIP3    H239515   1.256   4.539  16.605 -1.3924  0.3588  0.9610
 6034TIP3   OH239516   4.943   2.652  11.461  0.0674  0.1795  0.4341
 6034TIP3    H139517   5.030   2.623  11.434  0.6614  2.8877 -0.8574
 6034TIP3    H239518   4.900   2.677  11.380 -0.6253  2.1553  1.3665
 6035TIP3   OH239519   2.633   4.216  10.614  0.7784  0.6001 -0.1305
 6035TIP3    H139520   2.590   4.148  10.666 -2.2906  1.7564 -0.9190
 6035TIP3    H239521   2.632   4.182  10.524  2.1470  0.4105 -0.0960
 6036TIP3   OH239522   5.789   4.874   2.742 -0.2066 -0.1587  0.2820
 6036TIP3    H139523   5.758   4.959   2.772  0.0611  0.5324 -1.2716
 6036TIP3    H239524   5.742   4.859   2.660  0.3348 -1.1385  0.1336
 6037TIP3   OH239525   1.472   3.493   3.235  0.1585 -0.1290 -0.3657
 6037TIP3    H139526   1.508   3.581   3.238 -0.1709 -0.0017  0.1355
 6037TIP3    H239527   1.543   3.436   3.266  0.3848 -0.0461 -0.7316
 6038TIP3   OH239528   3.510   1.229   0.598 -0.9824 -0.4947 -0.1166
 6038TIP3    H139529   3.511   1.253   0.506  0.7678 -0.3252 -0.0968
 6038TIP3    H239530   3.525   1.311   0.644 -1.4327 -0.6423  0.3020
 6039TIP3   OH239531   5.740   3.488   4.674  0.4610 -0.2281 -0.7531
 6039TIP3    H139532   5.791   3.554   4.722  0.9078 -0.9404 -0.2177
 6039TIP3    H239533   5.764   3.501   4.583 -0.7902  1.4881 -0.8662
 6040TIP3   OH239534   3.383   0.955  15.213 -0.2615  0.1694 -0.3264
 6040TIP3    H139535   3.341   1.016  15.275 -2.2738 -1.5072  0.1005
 6040TIP3    H239536   3.409   0.881  15.267 -0.0859 -0.3965 -1.1757
 6041TIP3   OH239537   3.686   2.282   2.086  0.0807 -0.1246  0.5032
 6041TIP3    H139538   3.778   2.306   2.094  0.1762 -0.5479  0.6953
 6041TIP3    H239539   3.686   2.208   2.025 -0.1370 -0.0924  0.4644
 6042TIP3   OH239540   4.048   5.068   3.663 -0.0675 -0.3498  0.0124
 6042TIP3    H139541   4.016   5.022   3.585  1.1676 -0.0768 -0.6818
 6042TIP3    H239542   3.985   5.139   3.676  1.3623  1.6027 -2.7025
 6043TIP3   OH239543   3.281   1.013   2.342 -0.2353  0.2519  0.5305
 6043TIP3    H139544   3.262   0.968   2.425 -2.3951  0.7979  0.3934
 6043TIP3    H239545   3.373   1.039   2.349  0.0045 -0.8985  2.1786
 6044TIP3   OH239546   0.352   4.934   0.879  0.3489  0.1748  0.1576
 6044TIP3    H139547   0.291   4.924   0.806 -1.7308  2.1923  1.5129
 6044TIP3    H239548   0.433   4.967   0.838 -1.0516  2.1795 -1.1927
 6045TIP3   OH239549   6.750   3.799  13.098 -0.4040  0.1597  0.9926
 6045TIP3    H139550   6.816   3.731  13.090 -0.7062 -0.1884  1.3997
 6045TIP3    H239551   6.688   3.781  13.027  0.1053  0.6790  0.4112
 6046TIP3   OH239552   2.487   5.038  11.326  0.1004 -0.0950  0.4738
 6046TIP3    H139553   2.539   5.065  11.250 -0.1359 -1.5389 -0.2293
 6046TIP3    H239554   2.506   4.945  11.336 -0.6258 -0.1317  1.6017
 6047TIP3   OH239555   5.785   5.239  17.198 -0.5906  0.0102 -0.0730
 6047TIP3    H139556   5.739   5.207  17.276  1.3679 -1.8523  0.4220
 6047TIP3    H239557   5.836   5.314  17.229  0.9838 -1.3325  0.8028
 6048TIP3   OH239558   4.794   0.827  12.693  0.3018 -0.3148 -0.1070
 6048TIP3    H139559   4.748   0.910  12.703 -0.8453 -0.9591  0.1487
 6048TIP3    H239560   4.738   0.763  12.738  0.6351 -1.4053 -1.2059
 6049TIP3   OH239561   5.155   2.925  11.370  0.3716  0.3232  0.6412
 6049TIP3    H139562   5.170   2.836  11.338  0.3268  0.1590  1.0761
 6049TIP3    H239563   5.061   2.940  11.357  0.1771 -0.0807  1.5415
 6050TIP3   OH239564   6.384   5.613   3.670 -0.2204 -0.3865  0.2111
 6050TIP3    H139565   6.390   5.517   3.672 -0.7990 -0.4211  0.4109
 6050TIP3    H239566   6.416   5.637   3.584 -0.9812 -0.8335 -0.2056
 6051TIP3   OH239567   6.220   3.226  11.096 -0.0414 -0.0487  0.2170
 6051TIP3    H139568   6.284   3.192  11.032 -1.8342 -2.6792 -0.3449
 6051TIP3    H239569   6.199   3.150  11.150 -1.7038  1.0884  1.2297
 6052TIP3   OH239570   2.070   5.672  12.668  0.3594  0.0157 -0.8812
 6052TIP3    H139571   2.153   5.624  12.675  0.7729  0.7583 -0.5973
 6052TIP3    H239572   2.027   5.655  12.752  0.2203 -0.3666 -1.0271
 6053TIP3   OH239573   0.472   2.968   2.646  0.0767  0.0033  0.1493
 6053TIP3    H139574   0.450   2.918   2.568 -0.8492  0.3132  0.1940
 6053TIP3    H239575   0.560   2.939   2.670 -0.2007 -1.1414 -0.1733
 6054TIP3   OH239576   4.373   0.204   4.069  0.2127 -0.3331  0.5940
 6054TIP3    H139577   4.292   0.236   4.028  0.5554 -0.6546 -0.3825
 6054TIP3    H239578   4.426   0.282   4.082 -0.5025 -0.0271  1.8695
 6055TIP3   OH239579   6.763   6.693   6.326 -0.0353  0.5475  0.6847
 6055TIP3    H139580   6.849   6.650   6.323 -0.1064  0.0930  3.0623
 6055TIP3    H239581   6.782   6.781   6.360 -0.3767  0.9067 -0.0411
 6056TIP3   OH239582   2.524   6.625   2.552 -0.0742  0.3959 -1.0988
 6056TIP3    H139583   2.555   6.709   2.517  1.5337  1.5288  2.5769
 6056TIP3    H239584   2.593   6.563   2.531 -0.7994  0.1363 -2.9292
 6057TIP3   OH239585   2.323   4.118  14.260  0.3380 -0.1263  0.0867
 6057TIP3    H139586   2.268   4.057  14.211  0.5547 -0.9253  0.8224
 6057TIP3    H239587   2.363   4.065  14.328 -0.5554  1.0966  1.6311
 6058TIP3   OH239588   0.046   1.490  14.039 -0.3626 -0.1039  0.3482
 6058TIP3    H139589   0.045   1.566  13.982 -3.4064  0.1609  0.5582
 6058TIP3    H239590   0.111   1.431  14.001  0.7173  1.8011 -0.8831
 6059TIP3   OH239591   1.979   0.078   1.693  0.2657  0.1276  0.0402
 6059TIP3    H139592   1.985   0.161   1.741  0.3634  0.6681 -0.8881
 6059TIP3    H239593   1.928   0.021   1.750  1.0301  0.5010  1.1338
 6060TIP3   OH239594   3.575   2.938   5.701 -0.6206  0.0886 -0.4612
 6060TIP3    H139595   3.630   2.955   5.624 -0.2006 -1.0207 -0.4285
 6060TIP3    H239596   3.613   2.859   5.740  0.9547  2.1049  2.5299
 6061TIP3   OH239597   1.877   1.749   0.527  0.3763  0.5220 -0.0435
 6061TIP3    H139598   1.965   1.714   0.522  0.0888 -0.1101 -0.8841
 6061TIP3    H239599   1.854   1.771   0.436 -0.7223 -0.3472 -0.0074
 6062TIP3   OH239600   4.665   6.261  12.018  0.2049  0.3003 -0.2491
 6062TIP3    H139601   4.692   6.183  11.970 -1.3655 -0.5441  0.1703
 6062TIP3    H239602   4.746   6.295  12.057  0.9500 -0.9927 -0.6120
 6063TIP3   OH239603   3.308   1.707   5.156  0.1681 -0.1993  0.6016
 6063TIP3    H139604   3.356   1.783   5.188 -0.8332  0.8031 -0.1823
 6063TIP3    H239605   3.217   1.724   5.180 -0.5071  0.2095 -1.9115
 6064TIP3   OH239606   0.560   1.012   1.517  0.2130  0.2014 -0.6535
 6064TIP3    H139607   0.533   1.103   1.530  0.3930  0.3416 -1.2084
 6064TIP3    H239608   0.583   0.981   1.604 -1.9638 -0.0142 -0.0997
 6065TIP3   OH239609   4.216   1.896   4.279 -0.2751  0.7189  0.4850
 6065TIP3    H139610   4.253   1.948   4.207 -0.8175  0.7987  0.2616
 6065TIP3    H239611   4.212   1.807   4.244 -1.3618  0.9048  0.0826
 6066TIP3   OH239612   2.959   6.362  14.971  0.3983  0.7185 -0.5145
 6066TIP3    H139613   2.899   6.288  14.964  0.6995  0.5247 -1.0826
 6066TIP3    H239614   2.913   6.435  14.929  1.0189  0.2793 -2.0188
 6067TIP3   OH239615   4.827   6.288  15.291  0.2204  0.5400 -0.0264
 6067TIP3    H139616   4.855   6.351  15.357  0.8051 -1.2175  1.4672
 6067TIP3    H239617   4.885   6.304  15.217  1.0043  1.0879  0.6925
 6068TIP3   OH239618   1.191   6.687  12.653  0.2223  0.3825 -0.5076
 6068TIP3    H139619   1.179   6.772  12.610  2.1866  1.5933  1.1179
 6068TIP3    H239620   1.247   6.707  12.728  1.9028 -2.5863 -0.8354
 6069TIP3   OH239621   3.217   5.741   5.973  0.3254 -0.0908 -0.2026
 6069TIP3    H139622   3.230   5.651   6.002 -1.0229 -0.1317  0.3225
 6069TIP3    H239623   3.233   5.794   6.052 -0.7850 -0.0146 -0.0226
 6070TIP3   OH239624   5.769   1.984   3.259 -0.1897 -0.0224 -0.0676
 6070TIP3    H139625   5.831   1.932   3.310 -1.4056 -1.1111  0.3476
 6070TIP3    H239626   5.694   1.996   3.318 -0.4286  1.1706 -0.5930
 6071TIP3   OH239627   2.223   6.436  11.858 -0.3049  1.0487  0.5362
 6071TIP3    H139628   2.284   6.376  11.901  0.4071  1.5727  0.2797
 6071TIP3    H239629   2.185   6.385  11.787  0.5118  0.9728  0.1404
 6072TIP3   OH239630   2.822   3.196  16.562  0.5094 -0.4816 -0.0255
 6072TIP3    H139631   2.812   3.264  16.629  0.2585 -0.0342 -0.5054
 6072TIP3    H239632   2.816   3.114  16.610  0.9603 -0.1676  0.5886
 6073TIP3   OH239633   0.037   2.996  11.725 -0.2791  0.0206  0.2957
 6073TIP3    H139634   0.122   2.953  11.725  0.8099  1.9030 -2.2334
 6073TIP3    H239635   0.014   3.004  11.632 -1.3279  2.9734  0.6935
 6074TIP3   OH239636   5.673   5.003   1.141  0.1279  0.2820  0.2465
 6074TIP3    H139637   5.761   4.996   1.105  0.3153  0.2082  0.7098
 6074TIP3    H239638   5.616   5.006   1.065  0.7313  3.5912 -0.2614
 6075TIP3   OH239639   6.348   3.808   2.368  0.0595 -0.0203  0.1143
 6075TIP3    H139640   6.334   3.899   2.343 -1.8197 -0.7019 -1.5729
 6075TIP3    H239641   6.355   3.810   2.464  0.5143  1.9217  0.0838
 6076TIP3   OH239642   1.306   1.478  14.569 -0.5843 -0.7140 -0.1972
 6076TIP3    H139643   1.340   1.462  14.481 -0.9445 -1.4363 -0.2154
 6076TIP3    H239644   1.221   1.434  14.570 -0.6709 -0.5449  0.4514
 6077TIP3   OH239645   1.136   2.535  16.744 -0.0146  0.2861 -0.6669
 6077TIP3    H139646   1.151   2.593  16.819  0.9831  2.5405 -2.4979
 6077TIP3    H239647   1.056   2.569  16.703 -1.3017 -1.7409  0.0364
 6078TIP3   OH239648   3.490   6.056  12.449  0.2414 -0.7963  0.0564
 6078TIP3    H139649   3.463   6.103  12.370 -2.5272 -2.1535  0.0636
 6078TIP3    H239650   3.520   6.124  12.509 -2.9205  0.9884 -0.1631
 6079TIP3   OH239651   1.150   6.542   2.841 -0.0860  0.4050 -0.9707
 6079TIP3    H139652   1.165   6.489   2.919  1.3125 -0.5813 -1.8373
 6079TIP3    H239653   1.237   6.547   2.799 -0.3841  2.5431 -1.4686
 6080TIP3   OH239654   2.179   6.192   5.269  0.7867  0.0425  0.4431
 6080TIP3    H139655   2.210   6.233   5.349 -0.9285  0.5016  0.9242
 6080TIP3    H239656   2.161   6.265   5.209 -1.3129 -0.0068  0.9433
 6081TIP3   OH239657   2.978   4.115   0.063  0.1618 -0.6493 -0.5936
 6081TIP3    H139658   2.962   4.029   0.100  1.4273 -0.5248  0.2938
 6081TIP3    H239659   2.962   4.104  -0.031  0.6535 -1.9310 -0.5408
 6082TIP3   OH239660   6.035   0.103   3.784  0.5600  0.4964 -0.1360
 6082TIP3    H139661   6.019   0.195   3.761  2.0443  0.3312 -2.0879
 6082TIP3    H239662   6.037   0.057   3.700  1.0048 -1.1316  0.7186
 6083TIP3   OH239663   1.664   2.616   2.420  0.0637  0.2538  0.1414
 6083TIP3    H139664   1.758   2.620   2.434  0.0792  0.8355 -0.1335
 6083TIP3    H239665   1.626   2.640   2.504  0.1550  0.0642  0.2386
 6084TIP3   OH239666   6.668   1.197   3.984  0.2743 -0.5327  0.7406
 6084TIP3    H139667   6.739   1.202   4.048 -0.1967 -1.4946  1.3510
 6084TIP3    H239668   6.614   1.274   4.002  1.0726  0.1387  0.3528
 6085TIP3   OH239669   3.133   6.622   4.048 -0.5019 -0.1645 -0.2001
 6085TIP3    H139670   3.202   6.587   3.992 -0.7073 -0.6934 -0.1348
 6085TIP3    H239671   3.095   6.544   4.090 -0.9392  0.1453 -0.0111
 6086TIP3   OH239672   6.659   1.198  13.758  0.0791  0.2188  0.2547
 6086TIP3    H139673   6.597   1.185  13.686  2.0241 -0.5834 -1.3706
 6086TIP3    H239674   6.626   1.275  13.805 -2.3034 -0.3766 -0.2947
 6087TIP3   OH239675   2.413   6.227  12.807  0.0139  0.1172 -0.2654
 6087TIP3    H139676   2.344   6.181  12.759  0.0488 -1.7495  1.3103
 6087TIP3    H239677   2.493   6.204  12.761 -0.2558  1.2924 -1.3788
 6088TIP3   OH239678   2.227   2.063  11.129 -0.3055 -0.6855  0.2461
 6088TIP3    H139679   2.170   2.050  11.053  0.1674 -1.7626  0.0460
 6088TIP3    H239680   2.257   1.975  11.151  2.3818 -0.0582 -0.5150
 6089TIP3   OH239681   6.743   3.797   5.784  0.1967  0.1126 -0.0343
 6089TIP3    H139682   6.693   3.830   5.710 -0.2458  1.0254  0.6448
 6089TIP3    H239683   6.782   3.716   5.753  1.6144  1.4186 -1.8995
 6090TIP3   OH239684   2.828   1.559   4.754  0.2495 -0.5898 -0.4801
 6090TIP3    H139685   2.872   1.523   4.676  2.3325 -0.1420  0.4191
 6090TIP3    H239686   2.822   1.484   4.814  2.2803 -0.1138  0.4082
 6091TIP3   OH239687   4.394   4.229  12.829 -0.3076 -0.5045  0.0156
 6091TIP3    H139688   4.419   4.321  12.835 -1.7154 -0.0801 -0.1495
 6091TIP3    H239689   4.425   4.191  12.911 -2.1584  0.7872  1.4149
 6092TIP3   OH239690   4.538   1.232   3.516 -0.1974 -0.2589 -0.2514
 6092TIP3    H139691   4.630   1.246   3.494  0.0699  2.1294  1.9220
 6092TIP3    H239692   4.501   1.320   3.522 -1.8334 -1.0045  1.9260
 6093TIP3   OH239693   6.256   0.821  13.103 -0.8841 -0.4200  0.1402
 6093TIP3    H139694   6.229   0.759  13.171 -0.3791 -1.3944 -0.5295
 6093TIP3    H239695   6.335   0.862  13.139 -1.6361  0.4046  0.9016
 6094TIP3   OH239696   1.766   6.033  11.493  0.1800  0.3043  0.3787
 6094TIP3    H139697   1.756   6.090  11.569  0.7229 -2.8886  3.0306
 6094TIP3    H239698   1.727   5.950  11.519  1.5310 -1.3425 -2.3691
 6095TIP3   OH239699   4.130   2.331  14.785  0.1604 -0.3913 -0.2370
 6095TIP3    H139700   4.082   2.282  14.851 -1.3292 -0.4260 -1.3106
 6095TIP3    H239701   4.166   2.406  14.832  2.4034 -2.3420  1.4194
 6096TIP3   OH239702   1.801   6.231  14.243 -0.3664 -0.2991  0.2845
 6096TIP3    H139703   1.744   6.191  14.177 -1.0865 -1.0891  1.3520
 6096TIP3    H239704   1.750   6.229  14.324  1.0658 -0.7659  1.2231
 6097TIP3   OH239705   3.390   2.258  10.722 -0.7739 -0.3436 -0.4035
 6097TIP3    H139706   3.331   2.332  10.728 -0.1751  0.2642 -1.6345
 6097TIP3    H239707   3.457   2.285  10.659 -0.7280 -2.0444 -1.1581
 6098TIP3   OH239708   3.075   4.496  15.737  0.4968  0.7765 -0.0460
 6098TIP3    H139709   3.109   4.487  15.826 -1.9445  2.5786  1.1865
 6098TIP3    H239710   3.020   4.575  15.740 -0.7175  0.1565 -2.8081
 6099TIP3   OH239711   6.644   4.524  13.965 -0.0297 -0.0400  0.2505
 6099TIP3    H139712   6.707   4.589  13.935  0.9819 -1.5313 -0.9870
 6099TIP3    H239713   6.623   4.472  13.887 -1.3221 -0.7779  1.0504
 6100TIP3   OH239714   4.147   6.012  15.124  1.1617  0.1672  0.2283
 6100TIP3    H139715   4.058   6.039  15.148  1.5479  1.4486  0.3238
 6100TIP3    H239716   4.184   5.978  15.205  0.0451 -2.5602 -0.3148
 6101TIP3   OH239717   2.345   3.923   2.610  0.4763  0.7814 -0.3648
 6101TIP3    H139718   2.264   3.897   2.655  0.2124  1.5064 -0.3986
 6101TIP3    H239719   2.400   3.845   2.612  1.4514  1.3896  3.3217
 6102TIP3   OH239720   5.048   4.531   4.273  0.1609 -0.5101  0.1287
 6102TIP3    H139721   5.086   4.598   4.216  1.8596  0.1139  1.9180
 6102TIP3    H239722   5.062   4.449   4.225 -0.8904  0.2357 -1.5444
 6103TIP3   OH239723   4.932   1.801   0.983 -0.1418  0.0590 -0.2027
 6103TIP3    H139724   4.924   1.759   1.069  2.7642  0.2462  0.2387
 6103TIP3    H239725   4.872   1.876   0.988  1.4827  1.3666  2.5458
 6104TIP3   OH239726   5.695   6.371   5.181  0.1461  0.2073 -0.0454
 6104TIP3    H139727   5.697   6.350   5.274 -0.7742  0.2734 -0.0041
 6104TIP3    H239728   5.777   6.417   5.165  0.6777 -0.5132  0.5549
 6105TIP3   OH239729   0.397   6.495  11.197 -0.1886 -0.2949  0.1338
 6105TIP3    H139730   0.470   6.465  11.143 -0.1816  0.0779 -0.0625
 6105TIP3    H239731   0.335   6.422  11.196 -0.6576  0.1114 -1.2191
 6106TIP3   OH239732   6.784   3.787   6.638 -0.9449  0.4227  0.1231
 6106TIP3    H139733   6.812   3.696   6.633 -0.1651  0.6795 -0.4447
 6106TIP3    H239734   6.691   3.785   6.617 -1.3622 -0.4411  1.8646
 6107TIP3   OH239735   6.605   4.023  13.671  0.4124 -0.0733  0.2767
 6107TIP3    H139736   6.680   3.968  13.648  1.6841  1.3925  0.6705
 6107TIP3    H239737   6.561   4.040  13.588  0.5169 -0.9508  0.0335
 6108TIP3   OH239738   5.993   4.652   0.539  0.1653  0.2113  0.2935
 6108TIP3    H139739   6.064   4.702   0.578  1.1265 -0.7478 -0.1673
 6108TIP3    H239740   5.929   4.717   0.511  0.7489  1.0699  0.9249
 6109TIP3   OH239741   4.637   0.658   4.792 -0.5215  0.3525 -0.2259
 6109TIP3    H139742   4.550   0.662   4.752  0.0148 -0.0934 -1.4955
 6109TIP3    H239743   4.633   0.583   4.851 -1.0272  0.4149 -0.1704
 6110TIP3   OH239744   6.751   4.667  14.780  0.3417  0.4784  0.5105
 6110TIP3    H139745   6.814   4.738  14.790  1.0436  0.1975 -1.4944
 6110TIP3    H239746   6.801   4.588  14.800  0.9563  0.1756 -1.9135
 6111TIP3   OH239747   3.295   4.078  16.512  0.6817  0.2326 -0.0454
 6111TIP3    H139748   3.279   4.013  16.580  0.3394  0.6203  0.2518
 6111TIP3    H239749   3.380   4.116  16.533 -0.1898  1.6036  1.2192
 6112TIP3   OH239750   1.731   2.817   4.471 -0.0741 -0.2337  0.2361
 6112TIP3    H139751   1.746   2.806   4.377 -0.9572 -1.7170  0.2272
 6112TIP3    H239752   1.797   2.761   4.512  0.6503  0.8171  0.5345
 6113TIP3   OH239753   3.772   6.391   2.739 -0.3384  0.0832  0.6751
 6113TIP3    H139754   3.732   6.321   2.791 -0.9230 -0.2158 -0.1565
 6113TIP3    H239755   3.828   6.438   2.801  0.1859 -1.2115  1.2198
 6114TIP3   OH239756   3.906   5.997   1.390 -0.6679 -0.3214  0.4397
 6114TIP3    H139757   3.996   5.966   1.377 -1.0440 -1.0619 -0.4938
 6114TIP3    H239758   3.917   6.083   1.432  0.4832 -0.2720  0.0851
 6115TIP3   OH239759   2.286   5.356  12.344 -0.0014 -0.6388  0.2892
 6115TIP3    H139760   2.360   5.335  12.288  0.6072 -1.0846  1.2331
 6115TIP3    H239761   2.318   5.427  12.400 -0.5887 -0.2166  0.1007
 6116TIP3   OH239762   4.354   3.667   4.565 -0.2280 -0.5094  0.0067
 6116TIP3    H139763   4.387   3.665   4.475 -1.5483  0.5543 -0.5324
 6116TIP3    H239764   4.334   3.576   4.585  1.2748 -0.9349 -0.2936
 6117TIP3   OH239765   3.246   2.755  12.250  0.3087  0.0515  0.0809
 6117TIP3    H139766   3.208   2.770  12.337  1.6185  0.1867  0.6491
 6117TIP3    H239767   3.187   2.801  12.190 -0.9930 -0.6127  0.8073
 6118TIP3   OH239768   4.468   6.116  15.956 -0.4004  0.3044 -0.1280
 6118TIP3    H139769   4.478   6.200  15.913  1.3424 -0.0215 -0.4282
 6118TIP3    H239770   4.538   6.061  15.920 -1.0623 -1.0645  0.5554
 6119TIP3   OH239771   1.218   2.037   3.529 -1.0678  0.2177 -0.5277
 6119TIP3    H139772   1.291   1.989   3.490 -1.5221  0.3003 -1.5004
 6119TIP3    H239773   1.175   1.974   3.586 -0.6322 -0.0231 -0.4606
 6120TIP3   OH239774   2.777   3.514   3.353 -0.5865 -0.2099  0.0746
 6120TIP3    H139775   2.800   3.461   3.430 -0.6015  0.4518  0.5398
 6120TIP3    H239776   2.761   3.450   3.284  0.9285 -0.7617  0.2007
 6121TIP3   OH239777   3.640   0.649   4.171  0.2950  0.0624  0.0616
 6121TIP3    H139778   3.720   0.597   4.161  0.5428  0.2581  0.9787
 6121TIP3    H239779   3.570   0.584   4.179  0.5162 -0.1216  0.5062
 6122TIP3   OH239780   2.594   5.958  15.359  0.0308  0.2972 -0.3375
 6122TIP3    H139781   2.675   5.920  15.391  0.2426  1.6095  0.7254
 6122TIP3    H239782   2.578   6.034  15.415 -2.2928 -0.3163 -0.0459
 6123TIP3   OH239783   4.767   4.217   2.207 -0.3051 -0.4362  0.5123
 6123TIP3    H139784   4.726   4.200   2.122 -1.1649 -0.1142  0.8524
 6123TIP3    H239785   4.726   4.298   2.237  1.4465  0.5799  0.3298
 6124TIP3   OH239786   5.700   4.476  11.010 -0.0884 -0.6993 -0.3157
 6124TIP3    H139787   5.693   4.394  10.961  1.1269  0.1860 -2.0800
 6124TIP3    H239788   5.787   4.508  10.990  0.0708  0.2442  1.6730
 6125TIP3   OH239789   3.423   1.283  12.420  0.0639  0.1810 -0.0866
 6125TIP3    H139790   3.412   1.320  12.332  0.7630  0.8122  0.0792
 6125TIP3    H239791   3.489   1.339  12.461  0.2292 -0.5106  0.6129
 6126TIP3   OH239792   1.095   2.652  16.349  0.2023  0.3765 -0.0409
 6126TIP3    H139793   1.153   2.585  16.384  1.4094  0.4040 -1.8857
 6126TIP3    H239794   1.153   2.715  16.307 -0.9642  2.1755  0.9189
 6127TIP3   OH239795   6.254   3.961  13.442 -0.8276  0.0457  0.9446
 6127TIP3    H139796   6.217   4.046  13.464 -0.3833  0.0840  1.5670
 6127TIP3    H239797   6.212   3.900  13.504 -1.1138 -0.1819  0.5306
 6128TIP3   OH239798   2.065   3.806   0.318 -0.3335 -0.1884  0.0738
 6128TIP3    H139799   2.104   3.766   0.240 -0.6465 -0.1535 -0.1024
 6128TIP3    H239800   1.988   3.752   0.337 -0.4386 -0.0071  0.1670
 6129TIP3   OH239801   3.633   5.683   0.004  0.0536  0.5703 -0.4252
 6129TIP3    H139802   3.580   5.667   0.082 -0.6544  1.4499 -0.7068
 6129TIP3    H239803   3.721   5.704   0.037  0.2734 -1.0084  0.0403
 6130TIP3   OH239804   6.121   1.411   3.166 -0.1385 -0.1186  0.2377
 6130TIP3    H139805   6.196   1.469   3.172  0.2534 -0.6663  0.6575
 6130TIP3    H239806   6.097   1.392   3.257 -0.4691 -0.3429  0.1076
 6131TIP3   OH239807   3.671   4.101  11.350 -0.0581 -0.0833  0.0984
 6131TIP3    H139808   3.630   4.058  11.425  1.6096 -0.3884  0.8666
 6131TIP3    H239809   3.732   4.035  11.315  1.6326  1.1951  0.5406
 6132TIP3   OH239810   6.678   5.649   2.303  0.1683 -0.2290 -0.1189
 6132TIP3    H139811   6.681   5.675   2.211 -0.2070 -0.7518 -0.2816
 6132TIP3    H239812   6.662   5.555   2.301 -1.2243 -0.0310  0.4955
 6133TIP3   OH239813   0.131   3.739  14.097 -0.1447 -0.3866 -0.2373
 6133TIP3    H139814   0.204   3.677  14.102 -0.4598 -0.7850 -0.5403
 6133TIP3    H239815   0.148   3.790  14.018  1.3023  1.4387  1.1787
 6134TIP3   OH239816   5.832   3.825   4.293  0.3370 -0.5859  0.3966
 6134TIP3    H139817   5.786   3.748   4.327 -1.2880  0.8715  1.6264
 6134TIP3    H239818   5.770   3.866   4.233 -0.0695  1.3795  2.0409
 6135TIP3   OH239819   2.849   1.155  11.574 -0.7357 -0.1869 -0.5333
 6135TIP3    H139820   2.903   1.080  11.552 -5.2776 -4.1139  0.0077
 6135TIP3    H239821   2.841   1.153  11.669 -1.5951  0.4059 -0.5744
 6136TIP3   OH239822   1.423   5.977   0.241  0.2888 -0.2829 -0.0070
 6136TIP3    H139823   1.408   6.064   0.278  0.1550 -0.7981  1.1914
 6136TIP3    H239824   1.494   5.990   0.178  0.8033  0.5531  0.7153
 6137TIP3   OH239825   3.242   6.305  11.492  0.0199  0.1265  0.4288
 6137TIP3    H139826   3.207   6.218  11.509 -0.0845  0.4332  2.0273
 6137TIP3    H239827   3.174   6.350  11.442 -0.4285 -0.3436  0.6122
 6138TIP3   OH239828   5.981   2.903  14.954  0.5081 -0.3187 -0.4543
 6138TIP3    H139829   5.935   2.984  14.935 -0.4859 -0.3075  1.7481
 6138TIP3    H239830   5.938   2.838  14.898  0.9615  0.5330 -1.8418
 6139TIP3   OH239831   2.272   2.649  12.706 -0.2027  0.5294  0.0437
 6139TIP3    H139832   2.273   2.594  12.629  0.6187  1.6928 -0.8156
 6139TIP3    H239833   2.332   2.606  12.767  1.6425  1.2055 -1.1965
 6140TIP3   OH239834   2.277   1.944   2.260 -0.4779  0.6403  0.5039
 6140TIP3    H139835   2.278   1.982   2.172 -2.4436 -0.0060  0.1520
 6140TIP3    H239836   2.306   2.015   2.317  3.3793  0.3532 -0.8219
 6141TIP3   OH239837   5.483   0.822  14.930 -0.0592  0.2442  0.3324
 6141TIP3    H139838   5.556   0.866  14.886 -0.1657 -1.1066 -1.3054
 6141TIP3    H239839   5.523   0.778  15.004  2.1816 -5.0423 -3.3670
 6142TIP3   OH239840   0.792   4.476   5.465 -0.1016  0.0677 -0.4604
 6142TIP3    H139841   0.768   4.492   5.557  0.3292  0.8651 -0.4818
 6142TIP3    H239842   0.832   4.389   5.466 -0.1251  0.0588  0.0997
 6143TIP3   OH239843   2.196   1.414   1.933 -0.5299  0.0652  0.5431
 6143TIP3    H139844   2.277   1.366   1.949 -1.8379 -3.0250 -1.1791
 6143TIP3    H239845   2.212   1.463   1.853 -0.3481 -0.4768  0.2469
 6144TIP3   OH239846   5.913   1.745   4.677  0.2172  0.2826 -0.4879
 6144TIP3    H139847   5.869   1.767   4.759 -0.1506  1.2820 -0.9425
 6144TIP3    H239848   5.844   1.744   4.611  0.5074 -0.5215 -0.7924
 6145TIP3   OH239849   1.559   0.752  12.434 -0.0366 -0.0874  0.0610
 6145TIP3    H139850   1.471   0.714  12.431 -1.0009  1.9167  0.8686
 6145TIP3    H239851   1.605   0.712  12.360 -2.2294  0.1623 -1.5451
 6146TIP3   OH239852   6.420   6.498  16.376 -0.9030 -0.3311  0.3605
 6146TIP3    H139853   6.337   6.533  16.342 -2.0210 -2.1630  1.0259
 6146TIP3    H239854   6.461   6.458  16.299 -0.2446  1.2441 -0.1300
 6147TIP3   OH239855   2.954   4.459   0.859  0.0937 -0.0849  0.2295
 6147TIP3    H139856   2.954   4.382   0.917  0.9466 -0.1997  0.0842
 6147TIP3    H239857   2.868   4.457   0.817  0.1753 -1.0683  0.0834
 6148TIP3   OH239858   5.485   6.356   0.445  0.1663 -0.2986 -0.0521
 6148TIP3    H139859   5.541   6.288   0.483  0.6433 -0.3407 -0.8021
 6148TIP3    H239860   5.538   6.393   0.374 -0.1753  0.6989  0.1929
 6149TIP3   OH239861   5.851   2.302  15.708 -0.0881 -0.3678 -0.8218
 6149TIP3    H139862   5.916   2.252  15.757  1.4754  1.2949 -1.0811
 6149TIP3    H239863   5.804   2.351  15.775  2.9260  2.9356 -0.8078
 6150TIP3   OH239864   2.760   4.770  13.182  0.4915  0.2676  0.5048
 6150TIP3    H139865   2.710   4.740  13.106  0.8814 -0.7789  0.6515
 6150TIP3    H239866   2.810   4.694  13.210 -1.0015  0.0721  2.9390
 6151TIP3   OH239867   2.930   2.821  10.461  0.1659 -0.3621  0.1374
 6151TIP3    H139868   2.929   2.913  10.488  1.3146 -0.9327  2.3365
 6151TIP3    H239869   2.838   2.802  10.439 -0.2516  1.0548  0.5509
 6152TIP3   OH239870   3.293   4.781  13.590 -0.0658 -0.3718 -0.3390
 6152TIP3    H139871   3.223   4.737  13.637 -0.2002 -0.3798 -0.5440
 6152TIP3    H239872   3.253   4.808  13.507 -0.3235  1.1622  0.2489
 6153TIP3   OH239873   5.784   5.113  15.660 -0.5206 -0.4200  0.4183
 6153TIP3    H139874   5.873   5.148  15.672 -0.6326  0.6518 -1.5122
 6153TIP3    H239875   5.796   5.034  15.608 -0.7547  0.4483 -1.0047
 6154TIP3   OH239876   1.202   2.262   3.714 -0.5869 -0.1844 -0.6992
 6154TIP3    H139877   1.287   2.307   3.714 -0.9621  0.5482 -0.0595
 6154TIP3    H239878   1.216   2.186   3.658  1.4881 -1.9227  1.8766
 6155TIP3   OH239879   3.162   5.869  10.738 -0.0116 -0.1209 -0.5399
 6155TIP3    H139880   3.090   5.876  10.801  1.2801  0.4289  0.9478
 6155TIP3    H239881   3.236   5.911  10.783  1.0413 -0.0071 -2.3162
 6156TIP3   OH239882   4.844   3.417  15.556  0.1912 -0.0394 -0.3648
 6156TIP3    H139883   4.905   3.399  15.628  1.8699 -1.0818 -1.9450
 6156TIP3    H239884   4.793   3.493  15.586 -0.3369 -1.3992  2.5516
 6157TIP3   OH239885   4.857   6.669   2.462 -0.7201  0.4032  0.0601
 6157TIP3    H139886   4.765   6.693   2.451 -0.6365  0.5166 -0.3717
 6157TIP3    H239887   4.888   6.646   2.375 -0.3212  0.4125  0.1938
 6158TIP3   OH239888   5.552   0.644  12.433 -0.6086 -0.3712  1.1486
 6158TIP3    H139889   5.582   0.694  12.509  2.9728 -1.6605  0.7984
 6158TIP3    H239890   5.574   0.700  12.358  1.0255 -1.2769  0.8913
 6159TIP3   OH239891   3.522   4.921  12.398  0.1539  0.2741  0.5955
 6159TIP3    H139892   3.611   4.930  12.364 -0.0652 -1.7202 -0.6647
 6159TIP3    H239893   3.476   4.999  12.368  0.9646  0.3766 -0.4244
 6160TIP3   OH239894   0.919   4.022  12.592 -0.2302  0.2704 -0.0765
 6160TIP3    H139895   0.855   3.950  12.594  1.1408 -1.0494 -1.2140
 6160TIP3    H239896   0.935   4.037  12.499  1.7999 -0.0854  0.1716
 6161TIP3   OH239897   4.222   5.160   0.998 -0.3370  0.7846  0.7294
 6161TIP3    H139898   4.223   5.254   0.977 -1.4417  1.3003  2.7316
 6161TIP3    H239899   4.174   5.120   0.926 -1.0052  1.9636  0.4927
 6162TIP3   OH239900   4.380   4.935  14.981  0.4741  0.5841 -0.2943
 6162TIP3    H139901   4.399   4.854  15.030  1.5073  0.5846 -0.6701
 6162TIP3    H239902   4.398   5.005  15.044 -3.7559  0.5907  1.2519
 6163TIP3   OH239903   1.029   6.421   1.317 -0.1918  0.1472 -0.0573
 6163TIP3    H139904   1.086   6.426   1.241 -1.0969  1.6837 -0.6793
 6163TIP3    H239905   0.941   6.439   1.283 -0.7122  0.1573  1.2286
 6164TIP3   OH239906   3.685   5.722   1.660  0.5857 -0.2045  0.0458
 6164TIP3    H139907   3.682   5.626   1.652 -0.0383 -0.3201  1.4338
 6164TIP3    H239908   3.718   5.738   1.748  0.9220  0.8712 -0.2636
 6165TIP3   OH239909   0.320   0.589  15.924  0.0194 -0.0510  0.3817
 6165TIP3    H139910   0.378   0.624  15.856 -0.1566  0.0405  0.2774
 6165TIP3    H239911   0.259   0.533  15.877  0.1630 -0.3299  0.5220
 6166TIP3   OH239912   0.199   4.244  16.089  0.3919 -0.3097  0.1375
 6166TIP3    H139913   0.272   4.222  16.031 -0.7834 -1.9046 -0.8272
 6166TIP3    H239914   0.178   4.335  16.068  1.3822 -0.1922 -0.3817
 6167TIP3   OH239915   0.906   2.604  13.572 -0.1640 -0.1604  0.3985
 6167TIP3    H139916   0.865   2.591  13.486 -0.0339  1.3787  0.0738
 6167TIP3    H239917   0.881   2.527  13.623 -1.9215 -0.1434 -0.3794
 6168TIP3   OH239918   6.678   1.880   0.049  0.0682  0.1537 -0.4702
 6168TIP3    H139919   6.727   1.940   0.105  1.5009  1.0470 -2.5793
 6168TIP3    H239920   6.729   1.875  -0.032 -1.0801 -2.3422 -1.1344
 6169TIP3   OH239921   0.039   3.092   3.940 -0.3765 -0.1559  0.3294
 6169TIP3    H139922  -0.018   3.033   3.989 -0.1212  0.4500  1.3951
 6169TIP3    H239923   0.057   3.164   4.001  0.4172  0.3381 -0.4615
 6170TIP3   OH239924   2.434   4.130   0.300  0.0077 -0.8915 -0.6038
 6170TIP3    H139925   2.418   4.177   0.218  1.4450 -2.5097 -1.8907
 6170TIP3    H239926   2.463   4.043   0.273  0.6593 -1.4432  1.6309
 6171TIP3   OH239927   1.028   1.300   4.711  0.0372  0.0474  0.0003
 6171TIP3    H139928   1.051   1.331   4.798 -3.7865 -1.7512  1.9105
 6171TIP3    H239929   1.056   1.208   4.709 -0.0509  0.0265 -0.6108
 6172TIP3   OH239930   0.309   5.938  12.974 -0.2961  0.1090 -0.1895
 6172TIP3    H139931   0.372   5.916  12.905 -0.7244  1.8317 -1.1881
 6172TIP3    H239932   0.240   5.872  12.966 -0.1783  0.0969 -1.2112
 6173TIP3   OH239933   1.172   6.096  13.152 -0.3515  0.0178 -0.1842
 6173TIP3    H139934   1.095   6.044  13.176  0.3179 -0.4791  0.9607
 6173TIP3    H239935   1.191   6.070  13.062 -0.4896 -1.1674  0.1101
 6174TIP3   OH239936   3.671   2.323   5.519 -0.1717 -0.1983 -0.3870
 6174TIP3    H139937   3.619   2.257   5.564 -0.9362  0.7677  0.1740
 6174TIP3    H239938   3.757   2.282   5.508 -0.3126 -0.8930  0.9029
 6175TIP3   OH239939   6.587   2.498   3.103 -0.6500 -0.1095  0.2283
 6175TIP3    H139940   6.505   2.452   3.118 -0.0821 -0.9587  0.7649
 6175TIP3    H239941   6.646   2.467   3.171  0.2771  0.1055 -0.4505
 6176TIP3   OH239942   2.771   2.932   2.339  0.4135 -0.1102 -0.0256
 6176TIP3    H139943   2.775   3.007   2.281 -0.1121  0.9881  1.3109
 6176TIP3    H239944   2.733   2.966   2.420 -1.0822 -2.0941  0.1750
 6177TIP3   OH239945   6.062   1.940  12.793 -0.3429 -0.2472  0.2219
 6177TIP3    H139946   6.011   1.987  12.859 -0.6763  0.3649 -0.4518
 6177TIP3    H239947   5.997   1.885  12.748 -0.4844  0.7201 -0.8025
 6178TIP3   OH239948   1.865   0.383  13.650  0.1823 -0.3069  0.2415
 6178TIP3    H139949   1.948   0.347  13.680  1.0756  1.0435 -0.5191
 6178TIP3    H239950   1.844   0.451  13.714 -0.1018 -0.3231  0.1693
 6179TIP3   OH239951   0.416   4.407  12.643 -0.1720 -0.0632  0.0405
 6179TIP3    H139952   0.324   4.434  12.650  0.0986  1.3212 -1.3026
 6179TIP3    H239953   0.451   4.425  12.731 -1.2374 -0.9258  0.6763
 6180TIP3   OH239954   6.702   2.728   5.549 -0.1413 -0.2992  0.1308
 6180TIP3    H139955   6.653   2.658   5.592 -0.4050  0.1044  0.4965
 6180TIP3    H239956   6.707   2.797   5.615 -1.1963  0.6314 -0.7354
 6181TIP3   OH239957   4.979   1.812  13.453  0.2954  0.6752 -0.5478
 6181TIP3    H139958   5.023   1.738  13.412 -0.2114 -0.2765  0.5505
 6181TIP3    H239959   4.989   1.796  13.547 -1.3781  1.0315 -0.2836
 6182TIP3   OH239960   3.908   3.827   1.376  0.1184 -0.1193  0.5549
 6182TIP3    H139961   3.847   3.865   1.313 -0.1900 -1.7712 -0.2111
 6182TIP3    H239962   3.992   3.866   1.355  0.0653 -0.8171 -1.0838
 6183TIP3   OH239963   1.726   6.790  14.464 -0.4207 -1.1915 -0.0547
 6183TIP3    H139964   1.788   6.781  14.536 -2.6414 -0.0438  2.1691
 6183TIP3    H239965   1.716   6.884  14.452 -0.7395 -1.3625 -1.2888
 6184TIP3   OH239966   2.408   4.724  16.746 -0.0610  0.0318  0.0477
 6184TIP3    H139967   2.335   4.672  16.782 -0.0920  0.8259  1.2228
 6184TIP3    H239968   2.486   4.681  16.779 -0.0946  0.9874  1.5222
 6185TIP3   OH239969   5.364   3.983  12.361  0.2728 -0.1885 -0.4622
 6185TIP3    H139970   5.442   3.929  12.368  0.1273 -0.2316  0.9280
 6185TIP3    H239971   5.293   3.920  12.346 -0.1319 -0.6262  2.6299
 6186TIP3   OH239972   6.239   6.008   3.154  0.0431 -0.2714 -0.2587
 6186TIP3    H139973   6.309   6.020   3.218 -0.0386 -0.1996 -0.1842
 6186TIP3    H239974   6.263   5.927   3.109 -0.4676 -0.9150  0.5964
 6187TIP3   OH239975   4.239   1.028   4.648 -0.4039 -0.2941  0.0423
 6187TIP3    H139976   4.294   0.951   4.661  1.4330  0.5667 -2.0247
 6187TIP3    H239977   4.193   1.011   4.566 -1.2574  0.1168  0.4195
 6188TIP3   OH239978   2.227   4.644  16.421 -0.1775 -0.1688 -0.5520
 6188TIP3    H139979   2.182   4.729  16.416  0.9273  0.5759  1.2602
 6188TIP3    H239980   2.260   4.630  16.332 -0.9624  0.9515 -1.0530
 6189TIP3   OH239981   4.716   5.207  13.247  0.1407 -0.0055 -0.3022
 6189TIP3    H139982   4.667   5.158  13.181  2.5457 -1.5631 -1.0431
 6189TIP3    H239983   4.706   5.156  13.327 -0.1592  0.1690 -0.2249
 6190TIP3   OH239984   4.957   4.806  16.320 -0.1108  0.2980  0.3308
 6190TIP3    H139985   4.940   4.895  16.348 -0.7620 -0.0015  0.9092
 6190TIP3    H239986   5.021   4.773  16.383  1.5629  0.9324 -0.9582
 6191TIP3   OH239987   1.116   0.474  12.954  0.0887  0.0648  0.3113
 6191TIP3    H139988   1.173   0.523  13.013 -0.5805  1.2265  0.0288
 6191TIP3    H239989   1.038   0.529  12.945 -0.3207 -0.6534 -0.6983
 6192TIP3   OH239990   4.163   1.401   1.341  0.8689 -0.3734 -0.0130
 6192TIP3    H139991   4.083   1.438   1.378  0.7170 -0.9700  0.2539
 6192TIP3    H239992   4.181   1.324   1.394  1.1777 -0.6983 -0.5800
 6193TIP3   OH239993   5.435   1.239   2.073  0.1222 -0.4073  0.4595
 6193TIP3    H139994   5.347   1.236   2.110  0.2699  0.2018  0.8766
 6193TIP3    H239995   5.423   1.264   1.982 -0.0684  0.7891  0.8009
 6194TIP3   OH239996   3.765   4.795  15.686  0.1316  0.3893  0.7587
 6194TIP3    H139997   3.684   4.764  15.646 -0.9007  1.6776  1.7388
 6194TIP3    H239998   3.796   4.864  15.628 -0.1270  0.6857  0.9625
 6195TIP3   OH239999   2.517   1.439   1.832 -0.4216  0.1118  0.2989
 6195TIP3    H140000   2.606   1.473   1.825  0.4868 -2.4493 -2.7294
 6195TIP3    H240001   2.460   1.515   1.818  1.3166  1.4726  0.4101
 6196TIP3   OH240002   2.331   3.581  12.448 -0.2744 -0.0438  0.7182
 6196TIP3    H140003   2.318   3.638  12.372  0.2560 -1.0147 -0.1243
 6196TIP3    H240004   2.245   3.540  12.462  0.1458 -1.5711 -0.8092
 6197TIP3   OH240005   3.019   1.940  14.504 -0.1805 -0.2635 -0.1540
 6197TIP3    H140006   3.110   1.916  14.517  0.6866  2.3405 -0.7342
 6197TIP3    H240007   2.981   1.942  14.592  1.0326  0.9710  0.3796
 6198TIP3   OH240008   0.834   4.707   2.613 -0.0522  0.0278 -0.4938
 6198TIP3    H140009   0.920   4.719   2.571 -0.0409 -0.7737 -0.7182
 6198TIP3    H240010   0.788   4.646   2.556 -2.0229  2.8600 -2.1546
 6199TIP3   OH240011   5.390   3.258   3.839  0.8317  0.0071  0.2291
 6199TIP3    H140012   5.326   3.190   3.861 -0.0115  0.5667 -0.4156
 6199TIP3    H240013   5.392   3.260   3.743  0.0432  1.5804  0.2063
 6200TIP3   OH240014   6.388   3.602   2.972  0.1222 -0.3398  0.3554
 6200TIP3    H140015   6.476   3.616   2.939 -0.6725  0.0988 -1.7318
 6200TIP3    H240016   6.364   3.685   3.013  0.8140 -0.5987  1.3025
 6201TIP3   OH240017   2.586   2.869   3.008 -0.1425 -0.4630 -0.3631
 6201TIP3    H140018   2.588   2.938   3.074 -0.7604 -0.6980 -0.0944
 6201TIP3    H240019   2.494   2.843   3.002 -0.3444  0.5763 -2.4087
 6202TIP3   OH240020   4.139   3.341  12.409 -0.0132  0.0529 -0.0502
 6202TIP3    H140021   4.227   3.372  12.429  0.4882 -0.8734 -0.7590
 6202TIP3    H240022   4.133   3.346  12.314 -1.4604  2.0080  0.0780
 6203TIP3   OH240023   0.906   3.196   0.316 -0.0456 -0.1226  0.0958
 6203TIP3    H140024   0.997   3.168   0.324 -0.0487 -0.6514 -1.3395
 6203TIP3    H240025   0.903   3.247   0.235 -1.4953 -2.4486 -1.4650
 6204TIP3   OH240026   0.548   3.299  16.685 -0.0568 -0.4026  0.3179
 6204TIP3    H140027   0.511   3.260  16.605  1.2758 -0.7736 -0.1338
 6204TIP3    H240028   0.475   3.298  16.747 -0.8127 -1.1350 -0.5470
 6205TIP3   OH240029   2.349   2.898   3.760 -0.5311  0.2373 -0.2353
 6205TIP3    H140030   2.309   2.981   3.737 -0.6829  1.2449  3.0661
 6205TIP3    H240031   2.284   2.854   3.815  0.0972 -1.4474 -0.7684
 6206TIP3   OH240032   6.638   0.182   4.249 -0.2799  0.7446 -0.4062
 6206TIP3    H140033   6.669   0.124   4.318  0.2069  1.3837 -0.0665
 6206TIP3    H240034   6.590   0.250   4.295 -0.0231  1.1331 -0.6982
 6207TIP3   OH240035   5.961   4.299  12.836 -0.6463  0.0787  0.0479
 6207TIP3    H140036   5.919   4.273  12.754 -1.3789  0.1263  0.4085
 6207TIP3    H240037   5.912   4.376  12.866  1.2102  1.6639 -0.7716
 6208TIP3   OH240038   1.476   5.866   2.492  0.7895  0.2235 -0.4433
 6208TIP3    H140039   1.438   5.781   2.512 -0.3297  1.0898  1.4386
 6208TIP3    H240040   1.543   5.848   2.426  0.8511 -2.1376  0.1784
 6209TIP3   OH240041   6.618   3.315  12.877 -0.7368  0.2696  0.6677
 6209TIP3    H140042   6.656   3.363  12.803  1.8944  0.6593  2.1652
 6209TIP3    H240043   6.529   3.351  12.885  0.2258  3.0346  0.0789
 6210TIP3   OH240044   4.576   4.852  15.337  0.2235  0.4084 -0.1055
 6210TIP3    H140045   4.486   4.867  15.367  1.0311  1.2596  2.1121
 6210TIP3    H240046   4.592   4.760  15.358 -0.3198  0.0683 -1.1227
 6211TIP3   OH240047   6.090   2.350  11.277 -0.5721 -0.5465  0.3776
 6211TIP3    H140048   6.107   2.387  11.190 -0.1435 -0.9999  0.2561
 6211TIP3    H240049   6.001   2.377  11.298 -0.3276  0.4194  0.2384
 6212TIP3   OH240050   4.834   5.469   2.301 -0.9229 -0.3425  0.3874
 6212TIP3    H140051   4.747   5.436   2.277 -0.5622 -1.4049  0.4685
 6212TIP3    H240052   4.864   5.408   2.369 -0.0157 -0.1331  0.1824
 6213TIP3   OH240053   0.250   5.746  12.020 -0.6707  0.0111  0.0749
 6213TIP3    H140054   0.155   5.749  12.010 -0.6707 -1.9424 -1.0214
 6213TIP3    H240055   0.282   5.817  11.965 -1.5101  2.2684  2.2906
 6214TIP3   OH240056   2.220   4.031   1.303 -0.2422  0.1251 -0.1747
 6214TIP3    H140057   2.242   3.939   1.301  0.4182  0.2165  1.4347
 6214TIP3    H240058   2.124   4.033   1.313 -0.3605 -0.3414 -1.0939
 6215TIP3   OH240059   3.308   6.473  16.322 -0.1244  0.2178 -0.5112
 6215TIP3    H140060   3.226   6.425  16.336 -0.8976  1.6193 -0.0044
 6215TIP3    H240061   3.318   6.526  16.400  0.7944  0.7577 -0.9786
 6216TIP3   OH240062   0.396   3.510   6.127  0.0904 -0.2564 -0.5287
 6216TIP3    H140063   0.469   3.546   6.077  0.2099  1.1014  0.5489
 6216TIP3    H240064   0.321   3.566   6.105 -0.3815 -0.9906 -0.8279
 6217TIP3   OH240065   3.565   6.214   1.713  0.4794  0.4736 -0.0908
 6217TIP3    H140066   3.562   6.309   1.719 -1.7381  0.4303  0.3357
 6217TIP3    H240067   3.583   6.196   1.621 -0.2273  1.3364 -0.4133
 6218TIP3   OH240068   0.500   0.460  17.215 -0.2067 -0.2534 -0.0630
 6218TIP3    H140069   0.447   0.486  17.290  0.2101  0.8011 -0.1231
 6218TIP3    H240070   0.483   0.527  17.148  0.5240 -0.3752 -0.3875
 6219TIP3   OH240071   2.074   6.049  16.103 -0.2449  0.0831 -0.1858
 6219TIP3    H140072   2.147   6.011  16.152  0.6238  1.2748 -0.4980
 6219TIP3    H240073   2.092   6.143  16.103 -1.6327  0.3737 -0.5395
 6220TIP3   OH240074   6.028   0.215  11.932 -0.5646 -0.1039 -0.6872
 6220TIP3    H140075   5.982   0.143  11.889 -1.3661  0.4470 -0.7663
 6220TIP3    H240076   6.047   0.277  11.861 -2.6222  1.2002 -0.1969
 6221TIP3   OH240077   2.378   2.222  17.081  0.1475  0.7977 -0.6129
 6221TIP3    H140078   2.292   2.217  17.041  0.5909 -0.0740 -1.5055
 6221TIP3    H240079   2.368   2.177  17.165 -0.2228  0.5554 -0.7844
 6222TIP3   OH240080   4.327   1.055   3.683  0.1031 -0.0458  0.1132
 6222TIP3    H140081   4.362   1.124   3.740  0.3572 -0.8589  0.9671
 6222TIP3    H240082   4.343   1.087   3.594 -0.9812  1.5976  0.4592
 6223TIP3   OH240083   4.441   3.283   4.342  0.0824  0.2935  0.5487
 6223TIP3    H140084   4.443   3.249   4.431  0.4467  0.0616  0.4551
 6223TIP3    H240085   4.500   3.225   4.293 -0.3424  0.2409  0.0960
 6224TIP3   OH240086   3.435   4.460  15.243  0.4743 -0.7164 -0.1814
 6224TIP3    H140087   3.496   4.395  15.210  0.9221 -0.4591  0.1229
 6224TIP3    H240088   3.488   4.515  15.301 -0.0770 -0.5729  0.1924
 6225TIP3   OH240089   2.020   1.490  12.429 -0.1066  0.2235  0.1505
 6225TIP3    H140090   1.926   1.503  12.413 -0.1068 -1.0099 -1.0415
 6225TIP3    H240091   2.026   1.477  12.524 -1.0314  1.1290  0.3455
 6226TIP3   OH240092   1.140   0.904  12.294 -0.0113  0.4956  0.3968
 6226TIP3    H140093   1.227   0.900  12.255 -0.2215  0.3726 -0.0680
 6226TIP3    H240094   1.156   0.911  12.388  0.5104 -1.2228  0.4704
 6227TIP3   OH240095   0.464   4.937   6.430  0.0490  0.0424 -0.1166
 6227TIP3    H140096   0.372   4.938   6.402 -1.1411  1.4155  3.2678
 6227TIP3    H240097   0.461   4.906   6.520  2.8300  0.8671  0.3614
 6228TIP3   OH240098   3.363   6.563   4.297 -0.2221  0.5342  0.3655
 6228TIP3    H140099   3.315   6.501   4.242  2.1187  0.6355 -1.9972
 6228TIP3    H240100   3.415   6.508   4.355  0.1847  0.2909 -0.2127
 6229TIP3   OH240101   3.212   0.506   6.526  0.4277 -0.2731  0.1374
 6229TIP3    H140102   3.258   0.503   6.610 -2.2719  1.8749  1.9065
 6229TIP3    H240103   3.123   0.476   6.547  0.0104 -0.9696 -2.3052
 6230TIP3   OH240104   6.789   1.757  11.193 -0.0206 -0.7802 -0.8194
 6230TIP3    H140105   6.763   1.673  11.232 -0.3040 -0.2912  0.0651
 6230TIP3    H240106   6.853   1.793  11.255 -1.8662  0.8938  0.2227
 6231TIP3   OH240107   0.257   5.865   1.829  0.1816 -0.3214  0.7149
 6231TIP3    H140108   0.169   5.902   1.838 -0.2147 -1.1503  0.4157
 6231TIP3    H240109   0.316   5.938   1.846 -0.5513  0.8476 -1.3662
 6232TIP3   OH240110   5.798   5.484  14.986  0.0718 -0.0213  0.1100
 6232TIP3    H140111   5.759   5.529  15.061  2.2505 -0.1573  1.4041
 6232TIP3    H240112   5.892   5.497  14.996  0.4544  0.0752 -2.7085
 6233TIP3   OH240113   0.905   2.246   5.000  0.6303 -0.2207  0.5032
 6233TIP3    H140114   0.894   2.337   5.029 -0.5828  0.1887 -1.0981
 6233TIP3    H240115   0.998   2.228   5.013  0.3473  0.0978  3.8994
 6234TIP3   OH240116   4.932   1.134   3.741 -0.1486 -0.5435 -0.7767
 6234TIP3    H140117   5.005   1.073   3.728 -0.5365 -2.0965  3.2235
 6234TIP3    H240118   4.951   1.177   3.824 -1.9104  1.9910 -1.5670
 6235TIP3   OH240119   2.427   4.353   5.131  0.1782 -1.0023 -0.3680
 6235TIP3    H140120   2.369   4.292   5.086  0.8419 -0.4793 -1.9949
 6235TIP3    H240121   2.425   4.432   5.078 -0.8649  0.5490  1.8318
 6236TIP3   OH240122   1.040   2.517   0.342 -0.5985 -0.2366 -0.2775
 6236TIP3    H140123   1.043   2.520   0.437 -0.1990  0.2278 -0.3027
 6236TIP3    H240124   0.959   2.469   0.322 -0.2499 -1.0706  0.2921
 6237TIP3   OH240125   3.765   3.216   0.319  0.1196  0.4390 -0.3560
 6237TIP3    H140126   3.695   3.152   0.336 -1.0381  1.6452 -0.4050
 6237TIP3    H240127   3.841   3.163   0.297 -0.7347 -0.9312 -0.1363
 6238TIP3   OH240128   2.292   1.849   1.071 -0.1585  0.1304  0.0489
 6238TIP3    H140129   2.346   1.902   1.130  0.2463 -1.7526  1.4747
 6238TIP3    H240130   2.202   1.873   1.094 -0.0937 -1.9027  2.9087
 6239TIP3   OH240131   3.132   1.071   0.594 -0.4519 -0.2552 -0.0320
 6239TIP3    H140132   3.065   1.057   0.661 -0.2865 -1.6028 -0.1194
 6239TIP3    H240133   3.201   1.119   0.639  0.2313 -2.2780  1.1580
 6240TIP3   OH240134   2.997   4.360   5.738  0.4572 -0.5726  0.2890
 6240TIP3    H140135   3.009   4.365   5.643  0.3020 -1.4285  0.2185
 6240TIP3    H240136   3.045   4.435   5.772 -2.2867  1.8374 -0.6857
 6241TIP3   OH240137   2.436   3.298   2.663 -0.4172  0.0912  0.5436
 6241TIP3    H140138   2.531   3.299   2.653 -0.5114 -0.6459 -0.6499
 6241TIP3    H240139   2.421   3.263   2.751  0.4117  0.5027  0.8542
 6242TIP3   OH240140   5.543   0.564   0.401  0.2960 -0.5473  0.0417
 6242TIP3    H140141   5.590   0.590   0.322  0.9700 -0.3229  0.5087
 6242TIP3    H240142   5.611   0.552   0.467 -0.3946  2.4590  1.5162
 6243TIP3   OH240143   2.208   2.217   1.823 -0.9446  0.0505  0.2529
 6243TIP3    H140144   2.234   2.139   1.774 -1.9243  1.8987 -3.6014
 6243TIP3    H240145   2.273   2.283   1.799 -3.3792  1.9930 -1.4871
 6244TIP3   OH240146   0.798   3.553  14.254 -0.2717  0.5500 -0.1697
 6244TIP3    H140147   0.751   3.510  14.325 -1.9080  0.5736 -1.1970
 6244TIP3    H240148   0.781   3.646  14.266  0.4167  0.6504  0.0663
 6245TIP3   OH240149   0.467   4.360   1.383  0.0457  0.2566  0.4418
 6245TIP3    H140150   0.526   4.426   1.348  1.7161 -0.5355  1.6543
 6245TIP3    H240151   0.442   4.393   1.470 -0.1960 -0.0801  0.5026
 6246TIP3   OH240152   5.943   6.319  11.255 -0.1037 -0.0852  0.2816
 6246TIP3    H140153   5.928   6.402  11.300 -0.1351 -0.1552  0.4005
 6246TIP3    H240154   5.966   6.258  11.324 -1.0730 -0.4224  0.3213
 6247TIP3   OH240155   5.595   4.369  12.017 -0.1859 -0.1607  0.1632
 6247TIP3    H140156   5.507   4.336  12.039 -0.0501 -0.2180  0.6281
 6247TIP3    H240157   5.654   4.310  12.063  0.1842 -1.3570 -1.7159
 6248TIP3   OH240158   3.268   2.074   4.932 -0.2364 -0.1588  0.7064
 6248TIP3    H140159   3.340   2.013   4.948  0.5798  0.8526  1.0397
 6248TIP3    H240160   3.202   2.022   4.886  0.7841 -1.0566  0.2099
 6249TIP3   OH240161   6.490   3.893   2.625  0.5197 -0.0411 -0.3972
 6249TIP3    H140162   6.584   3.893   2.606  0.1157 -0.0903 -2.6048
 6249TIP3    H240163   6.466   3.985   2.627  0.3459 -0.0609 -1.3579
 6250TIP3   OH240164   4.838   0.424  16.816 -0.3484 -0.1729  0.2614
 6250TIP3    H140165   4.862   0.490  16.881 -0.2810  0.1420 -0.0793
 6250TIP3    H240166   4.780   0.363  16.864 -1.0648  0.5759  0.3725
 6251TIP3   OH240167   1.240   5.531   5.160  0.1678 -0.2783  0.3369
 6251TIP3    H140168   1.276   5.444   5.142  1.3872  0.3331 -0.3266
 6251TIP3    H240169   1.209   5.526   5.251  0.9850 -1.1547  0.5859
 6252TIP3   OH240170   0.556   2.749  12.839 -0.7201  0.0951  0.0998
 6252TIP3    H140171   0.471   2.756  12.883 -0.2839  0.2249  0.9439
 6252TIP3    H240172   0.546   2.800  12.759 -1.9798 -1.2961 -0.6684
 6253TIP3   OH240173   6.007   6.703  14.797  0.2304  0.1979 -1.1002
 6253TIP3    H140174   6.066   6.661  14.734  0.7107 -0.0383 -0.5021
 6253TIP3    H240175   5.968   6.630  14.846  0.8406  0.4291 -0.2579
 6254TIP3   OH240176   0.371   0.866  16.483 -0.0368 -0.2961 -0.3315
 6254TIP3    H140177   0.367   0.842  16.576 -1.4117  0.0617 -0.2789
 6254TIP3    H240178   0.418   0.950  16.483  0.5397 -0.6101 -0.0336
 6255TIP3   OH240179   4.655   5.103  13.551 -0.0231  0.1595 -0.0117
 6255TIP3    H140180   4.741   5.062  13.547 -0.1155  0.0056 -0.4789
 6255TIP3    H240181   4.614   5.067  13.630  0.0553 -0.3264 -0.1963
 6256TIP3   OH240182   6.685   6.461   4.958 -0.6176 -0.2735 -0.1068
 6256TIP3    H140183   6.714   6.549   4.935 -0.3465 -0.5736 -0.9782
 6256TIP3    H240184   6.643   6.428   4.878 -0.4371 -1.0420  0.1035
 6257TIP3   OH240185   0.015   2.074   4.523 -0.0423  0.0888  0.6949
 6257TIP3    H140186   0.102   2.110   4.508  0.1305 -0.9323 -1.0034
 6257TIP3    H240187   0.008   2.002   4.461 -2.1557  0.2248  0.7128
 6258TIP3   OH240188   4.812   1.550  11.922 -0.0228 -0.1012  0.2376
 6258TIP3    H140189   4.810   1.510  12.009 -2.5464 -0.3838  0.1210
 6258TIP3    H240190   4.730   1.522  11.881  0.5604  0.9928 -1.8021
 6259TIP3   OH240191   3.986   6.622  14.884 -0.1099 -0.1852  0.1063
 6259TIP3    H140192   3.946   6.553  14.831  0.1377 -1.1233  1.1099
 6259TIP3    H240193   3.997   6.583  14.971  0.0348  1.1166  0.7050
 6260TIP3   OH240194   2.169   3.539  15.307  0.3081 -0.7073  0.5919
 6260TIP3    H140195   2.162   3.594  15.385  0.4518  0.6235 -0.3034
 6260TIP3    H240196   2.107   3.577  15.245  1.7585 -0.3637 -0.7135
 6261TIP3   OH240197   4.704   6.088   3.748  0.1205  0.3276  0.7141
 6261TIP3    H140198   4.742   6.175   3.733 -1.0824  0.5231 -1.8038
 6261TIP3    H240199   4.681   6.057   3.660  0.2207 -2.4265  1.5810
 6262TIP3   OH240200   2.648   5.523  15.950 -0.7358 -0.3648 -0.2017
 6262TIP3    H140201   2.587   5.531  16.024 -1.2446  2.2077 -0.7873
 6262TIP3    H240202   2.626   5.598  15.894  0.6250 -1.4181 -2.2293
 6263TIP3   OH240203   6.372   5.369  16.513 -0.2775  0.1718 -0.4069
 6263TIP3    H140204   6.294   5.403  16.557  0.2298 -0.6127  1.1416
 6263TIP3    H240205   6.418   5.318  16.579  1.8903  1.1007 -1.0888
 6264TIP3   OH240206   0.801   6.134   3.596 -0.7363  0.8774  0.1820
 6264TIP3    H140207   0.826   6.097   3.681 -2.3773  0.6511  0.5852
 6264TIP3    H240208   0.882   6.130   3.544 -0.2178 -0.8979  1.0461
 6265TIP3   OH240209   2.761   1.817  11.338  0.0665  0.9043 -0.3939
 6265TIP3    H140210   2.705   1.778  11.272 -0.6492  0.8332  0.2349
 6265TIP3    H240211   2.713   1.895  11.368  0.2141  0.7490  0.2737
 6266TIP3   OH240212   3.356   0.299  11.367  0.3374  1.2569  0.1962
 6266TIP3    H140213   3.419   0.228  11.376 -0.2474  0.6852 -0.1750
 6266TIP3    H240214   3.301   0.274  11.293  0.6866  2.5298 -0.5251
 6267TIP3   OH240215   5.718   2.983  13.603 -0.0077  0.2629 -0.3645
 6267TIP3    H140216   5.693   3.076  13.608 -0.2016  0.2356 -0.8599
 6267TIP3    H240217   5.640   2.938  13.572  0.1575 -0.0405 -0.3478
 6268TIP3   OH240218   1.267   5.618   4.036  0.1984  0.0879  0.0028
 6268TIP3    H140219   1.177   5.606   4.005  1.3147 -1.7698 -2.9756
 6268TIP3    H240220   1.284   5.542   4.092  0.3325 -0.3529 -0.6253
 6269TIP3   OH240221   1.527   3.760   3.444  0.4969 -0.1226 -0.0410
 6269TIP3    H140222   1.498   3.786   3.531  0.0989 -2.2339  0.5136
 6269TIP3    H240223   1.623   3.761   3.449  0.5699  2.4588 -0.4936
 6270TIP3   OH240224   3.202   2.242  15.359 -0.2372  0.9048  0.6418
 6270TIP3    H140225   3.168   2.240  15.269 -2.9966  0.2406  1.5959
 6270TIP3    H240226   3.236   2.154  15.374 -0.7793  0.6827  0.5836
 6271TIP3   OH240227   2.641   2.693   3.744 -0.0408  0.2791 -0.3994
 6271TIP3    H140228   2.648   2.774   3.694  3.0159  1.1584  1.2370
 6271TIP3    H240229   2.663   2.718   3.834 -2.7773 -1.7195  0.9940
 6272TIP3   OH240230   6.566   2.413   0.853 -0.0031 -0.2394  0.3634
 6272TIP3    H140231   6.641   2.453   0.810 -0.8928  0.9046 -0.1739
 6272TIP3    H240232   6.513   2.487   0.884 -0.9699 -1.0088  0.6171
 6273TIP3   OH240233   3.127   4.338   4.879  0.6624  0.0243  0.5364
 6273TIP3    H140234   3.074   4.270   4.837  1.8569  0.2108 -1.3414
 6273TIP3    H240235   3.206   4.292   4.909  3.0674  0.9415 -3.6598
 6274TIP3   OH240236   3.879   6.576   3.812 -0.5772 -0.4191 -0.1165
 6274TIP3    H140237   3.957   6.618   3.846 -0.3083 -2.1653  1.6443
 6274TIP3    H240238   3.846   6.524   3.886 -4.0284  1.0671 -0.4301
 6275TIP3   OH240239   0.009   3.222   1.545  0.6026  0.0581 -0.3845
 6275TIP3    H140240   0.101   3.216   1.573  0.1522 -0.3290  1.1310
 6275TIP3    H240241  -0.038   3.171   1.611 -0.7649  0.7371 -0.8188
 6276TIP3   OH240242   1.227   4.893   3.784 -0.9764  0.1667  0.2087
 6276TIP3    H140243   1.147   4.858   3.824 -1.9303  1.4109 -0.5376
 6276TIP3    H240244   1.232   4.850   3.698 -1.7894  1.3006 -0.4356
 6277TIP3   OH240245   5.058   3.417  13.789  0.4046  0.8075 -0.3776
 6277TIP3    H140246   5.117   3.341  13.789  0.1900  0.6341  0.0428
 6277TIP3    H240247   5.074   3.460  13.706 -1.0229 -0.8983 -1.6058
 6278TIP3   OH240248   0.028   0.254  15.701 -0.2206 -0.5356  0.6355
 6278TIP3    H140249  -0.049   0.262  15.645  1.1159  1.8135 -1.0550
 6278TIP3    H240250   0.066   0.170  15.678 -0.5396 -0.2747 -0.9546
 6279TIP3   OH240251   2.690   4.273  12.340 -0.4859 -0.3259 -0.4770
 6279TIP3    H140252   2.651   4.357  12.367  1.3499  0.5177 -0.3331
 6279TIP3    H240253   2.725   4.290  12.252  1.4873 -0.3704  0.2633
 6280TIP3   OH240254   0.512   5.932   3.753  0.6935  0.4292  0.4566
 6280TIP3    H140255   0.517   5.942   3.658  0.4230  0.7254  0.4697
 6280TIP3    H240256   0.599   5.904   3.779  1.2329  1.8542  0.2847
 6281TIP3   OH240257   6.076   4.909  13.617 -0.4420  0.4919 -0.2957
 6281TIP3    H140258   6.003   4.892  13.676  0.0269  1.9376  0.7407
 6281TIP3    H240259   6.063   4.998  13.587  1.4066  1.1641  0.7264
 6282TIP3   OH240260   3.244   1.746  13.175 -0.3884 -0.0735 -0.0501
 6282TIP3    H140261   3.207   1.672  13.223 -0.7337  0.4877  0.5660
 6282TIP3    H240262   3.212   1.824  13.222 -0.3075  0.4770 -0.8834
 6283TIP3   OH240263   1.716   1.204  12.147 -0.0955  0.1006 -0.4308
 6283TIP3    H140264   1.679   1.116  12.137 -0.8546  0.2176  1.0167
 6283TIP3    H240265   1.642   1.259  12.173  0.6132  0.8715  0.0324
 6284TIP3   OH240266   4.727   6.366  12.292 -0.1200  0.0218  0.1027
 6284TIP3    H140267   4.650   6.363  12.349  0.9733 -0.3226  1.6022
 6284TIP3    H240268   4.801   6.382  12.351  0.8834  1.2694 -1.3962
 6285TIP3   OH240269   1.571   4.091   3.820  0.6091  0.0849  0.1797
 6285TIP3    H140270   1.662   4.069   3.839  0.9797  2.0514  1.0333
 6285TIP3    H240271   1.527   4.085   3.905  0.0615 -0.3051 -0.1258
 6286TIP3   OH240272   0.986   1.841  12.005  0.5780 -0.0115  0.4093
 6286TIP3    H140273   0.946   1.883  11.928 -0.3598 -1.2567  0.1721
 6286TIP3    H240274   1.009   1.914  12.063  0.1933  0.8918 -0.5323
 6287TIP3   OH240275   2.007   6.466   0.113  0.2490 -0.0518  0.0792
 6287TIP3    H140276   2.043   6.547   0.150  1.2115  0.2378 -1.4342
 6287TIP3    H240277   2.059   6.396   0.153 -0.2559  0.0847  1.0100
 6288TIP3   OH240278   6.143   5.611  11.569  0.3480  0.0540 -0.3117
 6288TIP3    H140279   6.110   5.581  11.654  2.6585  0.9798  1.0091
 6288TIP3    H240280   6.238   5.613  11.580  0.6411  1.2877 -2.5810
 6289TIP3   OH240281   4.775   6.382   0.084  0.2950  0.6791  0.8336
 6289TIP3    H140282   4.848   6.327   0.111  0.2436  0.3865  0.3986
 6289TIP3    H240283   4.702   6.321   0.075  1.0257  0.1049 -3.0034
 6290TIP3   OH240284   6.582   4.330  14.224 -0.5485 -0.0258  0.0465
 6290TIP3    H140285   6.650   4.374  14.173 -0.3603 -2.4066 -1.9313
 6290TIP3    H240286   6.500   4.367  14.191 -0.3552 -0.2067 -0.6583
 6291TIP3   OH240287   1.900   2.331   4.615 -0.2039 -0.5183  0.2279
 6291TIP3    H140288   1.867   2.255   4.567  0.9565 -0.4534 -0.6972
 6291TIP3    H240289   1.823   2.386   4.628 -0.6993 -0.9666 -0.7588
 6292TIP3   OH240290   0.864   5.463   0.242 -0.2250 -0.4971  0.4675
 6292TIP3    H140291   0.828   5.491   0.326  0.2775  0.2845  0.4379
 6292TIP3    H240292   0.833   5.374   0.231 -1.2139 -0.2269  0.9585
 6293TIP3   OH240293   0.672   3.047   1.127  0.0229  0.4972  0.6767
 6293TIP3    H140294   0.580   3.060   1.152  0.4855  1.3961  1.9755
 6293TIP3    H240295   0.722   3.077   1.203  1.4502  1.7435 -0.6921
 6294TIP3   OH240296   3.465   5.457  11.547 -0.8127 -0.3397 -0.1228
 6294TIP3    H140297   3.445   5.448  11.454 -0.5546 -1.4740 -0.0851
 6294TIP3    H240298   3.381   5.444  11.591 -0.7835 -0.6764 -0.1635
 6295TIP3   OH240299   5.893   0.959  11.682  0.5642 -0.3387  0.3473
 6295TIP3    H140300   5.979   0.937  11.646  0.0987 -1.0607 -0.3399
 6295TIP3    H240301   5.906   1.045  11.723  1.0672  0.6743 -1.7924
 6296TIP3   OH240302   4.678   1.982   3.740 -0.0225  0.0375  0.3682
 6296TIP3    H140303   4.664   2.049   3.807 -1.2620 -0.5665  0.7480
 6296TIP3    H240304   4.730   2.025   3.673 -1.5758  1.6990  0.1401
 6297TIP3   OH240305   3.479   0.196   0.683  0.5647 -0.3580 -0.4443
 6297TIP3    H140306   3.486   0.243   0.767 -0.3672 -1.5019  0.3068
 6297TIP3    H240307   3.391   0.215   0.652  0.9254  0.1036 -1.2095
 6298TIP3   OH240308   3.990   1.360   3.442  0.2212  0.4098  0.5588
 6298TIP3    H140309   3.964   1.268   3.434 -0.0238  0.4326  1.0789
 6298TIP3    H240310   4.012   1.371   3.534  0.5029  0.8092  0.4448
 6299TIP3   OH240311   2.194   0.163   3.428  0.0277  0.0637  0.6619
 6299TIP3    H140312   2.185   0.166   3.332  0.5219 -0.6140  0.5848
 6299TIP3    H240313   2.105   0.144   3.460 -0.0558 -0.1602  0.3070
 6300TIP3   OH240314   4.955   0.427   0.043  0.6741  0.3352  0.1516
 6300TIP3    H140315   4.958   0.333   0.065 -0.7249  0.7285  2.4146
 6300TIP3    H240316   4.983   0.471   0.123 -1.0449  1.8827 -0.0397
 6301TIP3   OH240317   6.592   2.669  13.434  0.3936  0.2297 -1.0601
 6301TIP3    H140318   6.641   2.588  13.423  2.0134  1.2178 -1.4767
 6301TIP3    H240319   6.591   2.685  13.528 -0.4865 -0.5769 -0.9209
 6302TIP3   OH240320   5.294   5.119  11.668 -0.2859  0.1416  0.0554
 6302TIP3    H140321   5.241   5.109  11.589 -0.0548  2.9885 -0.5765
 6302TIP3    H240322   5.231   5.122  11.740 -0.7371  0.4519 -0.3512
 6303TIP3   OH240323   4.953   6.320  15.817 -0.3310 -0.6427  0.1075
 6303TIP3    H140324   5.039   6.287  15.843 -0.8735 -0.6335  2.0957
 6303TIP3    H240325   4.925   6.263  15.746  0.2064 -2.3578  1.2186
 6304TIP3   OH240326   2.563   3.548   1.713 -0.6422 -0.1220 -0.8158
 6304TIP3    H140327   2.657   3.563   1.717 -1.0455  2.8790  0.8350
 6304TIP3    H240328   2.544   3.489   1.786 -0.1213 -0.0261 -0.5999
 6305TIP3   OH240329   6.465   2.680   0.882  0.3678  0.4287  0.3239
 6305TIP3    H140330   6.425   2.734   0.950  1.6811 -0.0648  1.5485
 6305TIP3    H240331   6.399   2.614   0.860 -0.3059  0.9925  0.6608
 6306TIP3   OH240332   5.214   3.363  13.256 -0.0541  0.1512 -0.1191
 6306TIP3    H140333   5.258   3.391  13.337 -0.7220 -0.2961  0.4120
 6306TIP3    H240334   5.211   3.442  13.202  1.9140  0.0774 -0.4389
 6307TIP3   OH240335   0.612   0.473   4.903  0.0547  0.0437 -0.4567
 6307TIP3    H140336   0.521   0.469   4.934  0.0121 -0.5410 -0.6446
 6307TIP3    H240337   0.659   0.518   4.973 -0.3636  0.2685 -0.3158
 6308TIP3   OH240338   4.015   0.027   4.443 -0.8413 -0.4268 -0.1013
 6308TIP3    H140339   3.974  -0.052   4.408 -0.6793 -0.6710  0.2596
 6308TIP3    H240340   3.962   0.099   4.407 -1.0327 -0.6989 -0.3705
 6309TIP3   OH240341   2.196   3.601   3.581 -0.3949  0.5515 -0.2594
 6309TIP3    H140342   2.160   3.568   3.664 -0.3377  1.3647  0.0919
 6309TIP3    H240343   2.249   3.676   3.605  0.7592 -0.0363 -0.8928
 6310TIP3   OH240344   2.080   0.058  15.215 -0.3314 -0.4064  0.1080
 6310TIP3    H140345   2.153   0.000  15.195 -1.8512 -2.6488  0.6949
 6310TIP3    H240346   2.119   0.146  15.218  1.8169 -1.1632 -2.1936
 6311TIP3   OH240347   3.575   4.917   1.991  0.5781  0.5376 -1.0588
 6311TIP3    H140348   3.486   4.882   1.990 -0.1198  1.9464  1.6741
 6311TIP3    H240349   3.630   4.845   2.021 -0.4980  0.9606  2.3205
 6312TIP3   OH240350   6.618   5.317   6.155  0.5504 -0.1913 -0.6303
 6312TIP3    H140351   6.572   5.254   6.210 -1.6808  1.0136 -0.9851
 6312TIP3    H240352   6.620   5.397   6.207  1.2511  0.1117 -1.1014
 6313TIP3   OH240353   6.254   5.390  13.250 -0.1197 -0.6811  0.1206
 6313TIP3    H140354   6.331   5.441  13.277 -1.0400  1.1270 -0.5553
 6313TIP3    H240355   6.248   5.404  13.156 -0.8751 -1.4054  0.0536
 6314TIP3   OH240356   0.645   5.023   3.882  0.6254 -0.1945 -0.4279
 6314TIP3    H140357   0.618   5.023   3.790 -0.8111 -0.5270 -0.0351
 6314TIP3    H240358   0.718   4.962   3.885  0.6338 -0.2498 -1.3446
 6315TIP3   OH240359   2.595   1.124   3.961 -0.3741 -0.8633  0.1667
 6315TIP3    H140360   2.558   1.205   3.996 -1.6285 -1.5813  0.5787
 6315TIP3    H240361   2.519   1.074   3.931  0.4495 -1.5031 -0.9318
 6316TIP3   OH240362   2.138   6.263  11.234 -0.4441 -0.1256 -0.6528
 6316TIP3    H140363   2.141   6.169  11.215 -1.0996  0.1109 -2.0540
 6316TIP3    H240364   2.129   6.304  11.148 -1.9960  1.1337  0.0692
 6317TIP3   OH240365   0.432   4.720  12.171  0.3573 -0.0506  0.0047
 6317TIP3    H140366   0.520   4.703  12.205  0.1612 -0.0755  0.5006
 6317TIP3    H240367   0.393   4.633  12.160  0.8391 -0.1189 -1.4362
 6318TIP3   OH240368   1.335   4.016  11.079 -0.1375  0.5671 -0.6828
 6318TIP3    H140369   1.250   4.045  11.113 -0.0380  1.2750 -1.0065
 6318TIP3    H240370   1.397   4.036  11.149 -0.2412  0.0148 -0.4317
 6319TIP3   OH240371   3.218   2.339  12.736 -0.2854 -0.0152 -0.5073
 6319TIP3    H140372   3.232   2.432  12.758  0.0878 -0.0364 -0.6405
 6319TIP3    H240373   3.136   2.338  12.687  0.2410  0.3878 -1.4131
 6320TIP3   OH240374   5.383   2.859   3.357  0.8135  0.4011 -0.1001
 6320TIP3    H140375   5.352   2.866   3.266  0.4511 -0.7289 -0.0874
 6320TIP3    H240376   5.329   2.789   3.394  2.6945 -0.9533  0.2210
 6321TIP3   OH240377   1.452   4.558   3.747 -0.4756  0.4425  0.1535
 6321TIP3    H140378   1.524   4.506   3.783 -0.9539  0.7766  1.6850
 6321TIP3    H240379   1.468   4.647   3.779  0.5920  1.4384 -2.8157
 6322TIP3   OH240380   6.713   1.494  17.088 -0.3391  0.2017 -0.2901
 6322TIP3    H140381   6.775   1.513  17.158 -0.1529  0.0131 -0.4013
 6322TIP3    H240382   6.659   1.423  17.122 -0.0607 -0.0878 -0.4467
 6323TIP3   OH240383   4.693   3.415  12.871  0.4215  0.0211  0.5098
 6323TIP3    H140384   4.748   3.354  12.920 -0.0507 -0.8159  0.0108
 6323TIP3    H240385   4.622   3.361  12.835  0.4532  0.7059 -0.6418
 6324TIP3   OH240386   1.840   0.482  13.315  0.0272 -0.3718  0.1122
 6324TIP3    H140387   1.907   0.516  13.375 -1.5312  0.9364  1.2257
 6324TIP3    H240388   1.826   0.553  13.253  0.1234 -0.8982 -0.5136
 6325TIP3   OH240389   4.140   3.333   0.482 -0.7549 -0.2575  0.0656
 6325TIP3    H140390   4.069   3.394   0.505 -1.1708  0.3147 -2.3935
 6325TIP3    H240391   4.110   3.248   0.515 -1.1149  0.4993  1.7799
 6326TIP3   OH240392   0.760   3.370   6.158 -0.2158  0.5146  0.2787
 6326TIP3    H140393   0.755   3.395   6.251  0.7818 -1.0444  0.8012
 6326TIP3    H240394   0.785   3.451   6.113 -0.8628  1.3381  1.3384
 6327TIP3   OH240395   6.773   5.556   1.210  0.3563 -0.3450 -0.1193
 6327TIP3    H140396   6.747   5.549   1.118  0.6940 -0.9621 -0.1768
 6327TIP3    H240397   6.749   5.646   1.235 -1.2478 -0.6916 -0.3188
 6328TIP3   OH240398   5.037   2.726  13.396  0.0729  0.4439  0.2105
 6328TIP3    H140399   5.121   2.706  13.437 -0.4176 -2.5002 -0.0011
 6328TIP3    H240400   4.979   2.655  13.424 -1.0358 -0.2621 -3.3610
 6329TIP3   OH240401   2.194   3.178  16.017 -0.0196  0.5365 -0.5328
 6329TIP3    H140402   2.286   3.200  16.030 -0.1946  1.6179 -0.9500
 6329TIP3    H240403   2.195   3.101  15.960  0.6328 -0.0644  0.2731
 6330TIP3   OH240404   4.427   5.550   2.953  0.5860  0.7614  0.0484
 6330TIP3    H140405   4.408   5.540   3.046 -0.0280  3.1213  0.2376
 6330TIP3    H240406   4.432   5.460   2.920 -2.6514 -0.1809  1.6704
 6331TIP3   OH240407   6.314   1.619   0.290 -0.2984  0.6170 -0.0996
 6331TIP3    H140408   6.375   1.580   0.352 -0.9061  1.2549  0.9201
 6331TIP3    H240409   6.365   1.686   0.245 -0.3302  1.4453  1.0547
 6332TIP3   OH240410   0.598   5.600   2.257  0.0525  0.5296  0.9713
 6332TIP3    H140411   0.670   5.655   2.285  0.1231  1.0388 -0.1536
 6332TIP3    H240412   0.577   5.631   2.169  0.8484 -1.9469 -0.1787
 6333TIP3   OH240413   3.339   4.215  15.009  0.5585  0.7656  0.1331
 6333TIP3    H140414   3.267   4.261  15.052  0.6571 -0.4755  1.7060
 6333TIP3    H240415   3.415   4.272  15.021  0.5035  0.6097  1.2877
 6334TIP3   OH240416   6.256   0.613   0.846  0.6346  0.3926 -0.0276
 6334TIP3    H140417   6.296   0.526   0.855 -0.7392 -0.0972  1.8898
 6334TIP3    H240418   6.289   0.662   0.921  0.0468  0.9595 -0.1397
 6335TIP3   OH240419   4.802   5.556   4.269 -0.5238  0.4801  0.8750
 6335TIP3    H140420   4.789   5.514   4.184 -0.6560 -0.7255  1.4809
 6335TIP3    H240421   4.717   5.550   4.312  0.2040 -1.3722  2.1594
 6336TIP3   OH240422   3.056   4.780  17.004 -0.2039  0.2088  0.2186
 6336TIP3    H140423   3.143   4.765  16.967  0.2527 -0.5923  1.5416
 6336TIP3    H240424   3.010   4.831  16.938  1.4345  1.0663 -0.3040
 6337TIP3   OH240425   0.888   1.719  12.456  0.6482  0.0322 -0.0174
 6337TIP3    H140426   0.906   1.674  12.373  0.5012 -1.5414  0.7693
 6337TIP3    H240427   0.898   1.652  12.523 -1.1983  0.7601  1.0797
 6338TIP3   OH240428   5.092   6.533  12.190 -0.1604  0.5917 -0.0709
 6338TIP3    H140429   5.103   6.557  12.098  1.1715  0.0066 -0.0805
 6338TIP3    H240430   5.181   6.522  12.223 -0.6427 -0.2583  1.0122
 6339TIP3   OH240431   4.101   6.710   2.642 -0.2126 -0.1007 -0.1968
 6339TIP3    H140432   4.013   6.746   2.657  0.2250  0.6832  0.5412
 6339TIP3    H240433   4.122   6.736   2.552  0.2236  1.8325  0.4174
 6340TIP3   OH240434   1.148   3.284   0.442 -0.4801  0.0376 -0.9184
 6340TIP3    H140435   1.090   3.315   0.511  0.0574 -1.1240  0.1019
 6340TIP3    H240436   1.201   3.360   0.418 -0.3354  0.3351  0.3080
 6341TIP3   OH240437   4.110   1.144  15.339 -0.6161  0.4235 -0.0299
 6341TIP3    H140438   4.203   1.154  15.360 -0.6307  0.1423  0.1768
 6341TIP3    H240439   4.102   1.173  15.249 -0.5896  1.8644  0.4084
 6342TIP3   OH240440   1.032   3.596  16.101  0.0435  0.0287  0.1397
 6342TIP3    H140441   1.079   3.646  16.167 -1.2941  1.2275  0.2217
 6342TIP3    H240442   1.099   3.575  16.035  0.8037  1.2373  0.4957
 6343TIP3   OH240443   5.994   2.085   3.013  0.1304 -0.3328 -0.0731
 6343TIP3    H140444   5.915   2.136   2.993 -1.3416 -1.8273  1.6357
 6343TIP3    H240445   6.055   2.108   2.942 -0.3260  3.8410  0.5920
 6344TIP3   OH240446   4.233   4.641   0.368  0.7186  0.2721  0.0675
 6344TIP3    H140447   4.319   4.600   0.369  1.3883  1.6033 -0.4798
 6344TIP3    H240448   4.175   4.576   0.408  1.6690 -1.2833 -0.9954
 6345TIP3   OH240449   3.233   5.680  16.648 -0.2536  0.0818  0.0489
 6345TIP3    H140450   3.281   5.628  16.584 -2.0359  0.1475 -1.4266
 6345TIP3    H240451   3.192   5.615  16.705  0.5931 -0.0008  0.5803
 6346TIP3   OH240452   4.710   2.901  16.406 -0.5550  0.1663 -0.2281
 6346TIP3    H140453   4.747   2.972  16.354  0.7266 -0.8668 -0.7817
 6346TIP3    H240454   4.773   2.887  16.477  0.4864 -1.9719 -1.4795
 6347TIP3   OH240455   2.869   3.908  13.200  0.1200  0.0020 -0.4298
 6347TIP3    H140456   2.959   3.876  13.204  1.0739  2.5066  1.9800
 6347TIP3    H240457   2.837   3.897  13.290 -1.5838  0.1896 -0.9896
 6348TIP3   OH240458   0.011   1.964  13.160 -0.3873  0.3932  0.1728
 6348TIP3    H140459   0.067   1.912  13.218  1.1145 -0.0981 -1.6140
 6348TIP3    H240460  -0.068   1.981  13.212 -1.2650 -4.1571  0.7263
 6349TIP3   OH240461   5.489   3.471   5.414  0.0088 -0.2105 -0.1622
 6349TIP3    H140462   5.423   3.514   5.467 -0.4753 -1.3054  0.1598
 6349TIP3    H240463   5.440   3.433   5.340  0.5444  0.5226 -0.9113
 6350TIP3   OH240464   5.915   2.314   0.111 -0.1211  0.0471  0.0989
 6350TIP3    H140465   5.894   2.224   0.133 -2.2996  0.2213 -1.0581
 6350TIP3    H240466   5.910   2.318   0.015 -0.4725  1.4817  0.1531
 6351TIP3   OH240467   4.095   3.796   4.951  0.5878  0.3542 -0.1736
 6351TIP3    H140468   4.054   3.716   4.918 -0.5754  1.2903 -1.0704
 6351TIP3    H240469   4.122   3.774   5.040  0.1676 -0.9929 -0.3609
 6352TIP3   OH240470   4.347   4.444  13.661  0.7441 -1.1863  0.2107
 6352TIP3    H140471   4.252   4.448  13.661  0.7095 -0.0592 -2.0375
 6352TIP3    H240472   4.375   4.534  13.643  2.2189 -1.5353  0.6371
 6353TIP3   OH240473   6.409   4.283  14.016 -0.4797  0.1753 -0.1875
 6353TIP3    H140474   6.485   4.277  13.957 -1.9002  0.8868 -2.2203
 6353TIP3    H240475   6.382   4.375  14.010 -0.0079  0.5579  2.5530
 6354TIP3   OH240476   2.206   4.591   3.826 -0.0447 -0.3585  0.7290
 6354TIP3    H140477   2.177   4.668   3.777 -1.6518  0.5503  2.9442
 6354TIP3    H240478   2.242   4.626   3.907  0.7018 -1.8910  1.1070
 6355TIP3   OH240479   4.635   4.094   5.380 -0.1557 -0.2430  0.4026
 6355TIP3    H140480   4.605   4.019   5.330 -0.0792 -0.3073  0.4513
 6355TIP3    H240481   4.731   4.084   5.383 -0.1877 -0.4694  0.9121
 6356TIP3   OH240482   3.428   4.615  15.845  0.7684  0.5581 -1.1126
 6356TIP3    H140483   3.479   4.542  15.878 -2.1599 -0.8609  0.7697
 6356TIP3    H240484   3.337   4.584  15.848 -0.4464  3.5904 -2.1617
 6357TIP3   OH240485   5.057   3.694  15.745 -0.7538  0.1544  0.0381
 6357TIP3    H140486   5.081   3.642  15.822  0.8761 -0.5231 -0.8654
 6357TIP3    H240487   5.094   3.645  15.672 -0.9739  1.5562 -1.0400
 6358TIP3   OH240488   3.279   4.740  16.168  0.0628  0.4843 -0.5551
 6358TIP3    H140489   3.327   4.668  16.127  1.2182  1.5717 -1.1933
 6358TIP3    H240490   3.342   4.778  16.230 -0.0282  1.7908 -1.2293
 6359TIP3   OH240491   3.589   5.786  11.701  0.5824 -0.6467 -0.0727
 6359TIP3    H140492   3.603   5.781  11.606  0.2653 -0.3414 -0.1346
 6359TIP3    H240493   3.545   5.869  11.715 -0.9037 -1.4406  0.1601
 6360TIP3   OH240494   4.090   3.101   1.171 -0.3385  0.2558  0.5400
 6360TIP3    H140495   4.030   3.090   1.244 -0.8706  0.6259  0.1632
 6360TIP3    H240496   4.070   3.187   1.135  0.7530  0.6034  0.7115
 6361TIP3   OH240497   3.747   6.016   5.651 -0.0350  0.1705 -0.1507
 6361TIP3    H140498   3.689   6.031   5.726  2.1329  1.0675  1.4609
 6361TIP3    H240499   3.791   6.100   5.638 -0.3889  0.0483 -2.5307
 6362TIP3   OH240500   0.112   0.476  10.823  0.5872  0.5209 -0.2117
 6362TIP3    H140501   0.164   0.396  10.822  1.8040  1.2934 -0.6387
 6362TIP3    H240502   0.169   0.543  10.784 -0.2912  1.6679  0.4013
 6363TIP3   OH240503   2.364   2.105   5.085  0.1303 -0.1777 -0.1873
 6363TIP3    H140504   2.363   2.024   5.033  0.8917  0.1253 -0.6885
 6363TIP3    H240505   2.332   2.172   5.025  1.0572  0.1838 -0.2982
 6364TIP3   OH240506   3.407   2.203  16.012  0.1461 -0.1861  0.1982
 6364TIP3    H140507   3.393   2.162  15.927  0.7296  0.8021 -0.3968
 6364TIP3    H240508   3.494   2.173  16.039 -0.0089 -0.4425  0.4101
 6365TIP3   OH240509   1.195   5.166  15.607  0.3837  0.1790 -0.4223
 6365TIP3    H140510   1.194   5.259  15.630 -1.6321 -0.1567  1.0599
 6365TIP3    H240511   1.194   5.121  15.691  0.3733 -1.1983 -1.1439
 6366TIP3   OH240512   1.613   6.004  17.249  0.4528 -0.0738 -0.0734
 6366TIP3    H140513   1.644   6.070  17.312 -0.0906  1.3821 -1.2575
 6366TIP3    H240514   1.674   5.932  17.257  1.6050  0.9455  0.6687
 6367TIP3   OH240515   5.507   3.358   2.208 -0.0702 -0.2529  0.1993
 6367TIP3    H140516   5.524   3.400   2.293  0.5768 -1.9843  0.9786
 6367TIP3    H240517   5.417   3.382   2.187  0.0706  0.9928  0.9035
 6368TIP3   OH240518   4.789   6.544  11.531 -0.3353 -0.1010 -0.1813
 6368TIP3    H140519   4.755   6.507  11.449 -1.6173 -0.8387  0.6400
 6368TIP3    H240520   4.794   6.468  11.590  1.3571  0.2678  0.1994
 6369TIP3   OH240521   5.212   5.850   4.173 -0.2303 -0.3062 -0.0053
 6369TIP3    H140522   5.301   5.848   4.208 -0.1883 -2.4260 -0.0791
 6369TIP3    H240523   5.169   5.773   4.212 -1.0699 -1.0950 -2.3166
 6370TIP3   OH240524   5.389   0.900   5.455  0.3961 -0.0192 -0.2463
 6370TIP3    H140525   5.404   0.892   5.549 -0.9169  0.3347  0.0165
 6370TIP3    H240526   5.355   0.988   5.444 -1.3548 -0.7077 -0.7539
 6371TIP3   OH240527   1.259   1.850  12.785  0.0247  0.1122 -0.1465
 6371TIP3    H140528   1.215   1.790  12.726 -0.1565 -0.2983  0.3949
 6371TIP3    H240529   1.326   1.797  12.828  0.1976  0.4176 -0.0330
 6372TIP3   OH240530   2.991   3.603  12.615  0.0453 -0.2038  0.2662
 6372TIP3    H140531   2.964   3.683  12.658  0.7136  0.7070 -0.9519
 6372TIP3    H240532   2.910   3.565  12.581 -0.2900 -0.1449  0.9787
 6373TIP3   OH240533   0.922   0.621   1.003 -0.3802  0.2464  0.3466
 6373TIP3    H140534   0.851   0.591   1.060 -0.0191 -0.0223  0.6632
 6373TIP3    H240535   0.892   0.706   0.969 -1.2559 -0.3016 -0.2738
 6374TIP3   OH240536   1.785   6.455  14.604  0.3882  0.1125  0.6835
 6374TIP3    H140537   1.759   6.454  14.696  1.2422  1.3023  0.9685
 6374TIP3    H240538   1.824   6.542  14.592  0.3065 -0.0405 -0.7974
 6375TIP3   OH240539   4.624   6.028   1.679 -0.2775 -0.3037 -0.2541
 6375TIP3    H140540   4.564   5.981   1.738 -0.8513  0.4102 -0.2550
 6375TIP3    H240541   4.663   5.959   1.625 -1.4532 -0.7485 -0.5704
 6376TIP3   OH240542   3.361   2.435  15.639  0.5398  0.0968 -0.3506
 6376TIP3    H140543   3.331   2.421  15.549 -0.7418  0.3704  0.0134
 6376TIP3    H240544   3.422   2.364  15.656  1.1014  0.2639 -1.5624
 6377TIP3   OH240545   2.665   6.413   3.074  0.4690 -0.0292 -0.1285
 6377TIP3    H140546   2.664   6.488   3.014 -0.5879  0.5912  0.6272
 6377TIP3    H240547   2.620   6.343   3.027  2.5275 -0.6351 -1.3269
 6378TIP3   OH240548   4.959   6.353  15.076 -0.5296  0.3618 -0.4222
 6378TIP3    H140549   4.983   6.444  15.091  1.2351  0.2267 -1.9402
 6378TIP3    H240550   5.030   6.319  15.020 -1.3323 -1.8258 -0.2134
 6379TIP3   OH240551   2.883   4.453  14.223  0.1400  0.2445  0.0257
 6379TIP3    H140552   2.857   4.362  14.239 -0.9963  0.4467 -0.5556
 6379TIP3    H240553   2.974   4.447  14.196  0.0052 -0.7538 -0.2810
 6380TIP3   OH240554   5.630   2.445  12.694  0.1444  0.6664 -0.1112
 6380TIP3    H140555   5.712   2.398  12.709 -0.3854  0.1049  1.2060
 6380TIP3    H240556   5.636   2.522  12.750  0.4322  1.4604 -1.2219
 6381TIP3   OH240557   0.256   4.627   6.469 -0.1327  0.0120 -0.0048
 6381TIP3    H140558   0.278   4.541   6.434  0.7850  0.7642 -1.3773
 6381TIP3    H240559   0.318   4.641   6.540  0.6935  0.1338 -0.7384
 6382TIP3   OH240560   4.750   4.790   2.869  0.3962  0.2191 -0.1978
 6382TIP3    H140561   4.815   4.861   2.866 -0.2977  0.8420 -0.6939
 6382TIP3    H240562   4.684   4.821   2.931  0.0744  0.0164 -0.4393
 6383TIP3   OH240563   2.952   6.561  14.706  0.2333 -0.3432 -0.2457
 6383TIP3    H140564   2.939   6.466  14.711  1.1810 -0.5467 -1.2877
 6383TIP3    H240565   2.986   6.576  14.618 -0.3611  1.0356 -0.2656
 6384TIP3   OH240566   4.619   4.340  14.036 -0.3121 -0.3230  0.4048
 6384TIP3    H140567   4.541   4.371  13.989  1.3216  1.8517 -1.1281
 6384TIP3    H240568   4.640   4.411  14.097  1.5210  0.0840 -0.6162
 6385TIP3   OH240569   3.846   4.936  10.951 -0.1481 -0.3223  0.2798
 6385TIP3    H140570   3.897   4.871  10.902 -0.6106 -0.9740  0.6521
 6385TIP3    H240571   3.800   4.886  11.018 -1.5174  0.2100 -0.2284
 6386TIP3   OH240572   3.007   4.568  12.771  0.0306 -0.3873 -0.1444
 6386TIP3    H140573   3.005   4.473  12.780  0.0347 -0.3253  0.5575
 6386TIP3    H240574   3.033   4.583  12.680  0.3938 -1.0530 -0.1534
 6387TIP3   OH240575   5.962   2.195   2.165 -0.1747 -0.2598  0.1585
 6387TIP3    H140576   5.985   2.288   2.164  0.6906 -0.4601  0.6250
 6387TIP3    H240577   6.046   2.149   2.162 -0.6078 -1.0340 -0.4394
 6388TIP3   OH240578   3.760   0.427   6.275  0.0448 -0.3631 -0.0945
 6388TIP3    H140579   3.682   0.372   6.267 -0.0277 -0.2873  0.0726
 6388TIP3    H240580   3.761   0.479   6.194 -1.7894  1.8093  1.1422
 6389TIP3   OH240581   1.020   2.841   5.336 -0.7706  0.2376  0.2996
 6389TIP3    H140582   0.929   2.840   5.306 -0.4386 -0.3748 -0.7648
 6389TIP3    H240583   1.052   2.753   5.318  0.5125  0.9207 -0.9589
 6390TIP3   OH240584   2.829   4.994   3.510 -0.9127 -0.3364 -0.0795
 6390TIP3    H140585   2.736   4.972   3.502 -0.7008 -2.2873  1.6558
 6390TIP3    H240586   2.870   4.911   3.534  1.3145  0.4582 -0.9253
 6391TIP3   OH240587   0.775   4.904  11.926  0.1632 -0.2851  0.2576
 6391TIP3    H140588   0.860   4.861  11.930  0.5802  0.4265 -0.5969
 6391TIP3    H240589   0.755   4.927  12.016 -0.4012 -2.8487  0.8723
 6392TIP3   OH240590   1.046   6.017  12.172  0.1145 -0.6152  0.6254
 6392TIP3    H140591   0.974   5.983  12.119 -1.5904 -1.5048  3.3176
 6392TIP3    H240592   1.110   5.945  12.175 -0.4690 -1.1243  0.9941
 6393TIP3   OH240593   3.561   3.439   1.399  0.6870  0.1283 -0.5277
 6393TIP3    H140594   3.639   3.472   1.355  0.8858 -0.1589 -0.3949
 6393TIP3    H240595   3.562   3.483   1.484  1.3924 -0.8060 -0.0308
 6394TIP3   OH240596   5.807   5.331   2.221 -0.2277 -0.5101  0.7306
 6394TIP3    H140597   5.774   5.420   2.207 -0.4814 -0.2800  2.5003
 6394TIP3    H240598   5.881   5.323   2.161  0.0148  1.0331  0.7743
 6395TIP3   OH240599   3.470   1.217  11.681  0.4758 -0.0063 -0.1179
 6395TIP3    H140600   3.525   1.291  11.655 -1.2208  1.9652  1.5720
 6395TIP3    H240601   3.383   1.238  11.645 -0.3987 -0.3644  1.6818
 6396TIP3   OH240602   6.786   6.732  15.720  0.5939  0.6373  0.5368
 6396TIP3    H140603   6.694   6.705  15.718 -0.0527  2.7196 -0.3601
 6396TIP3    H240604   6.800   6.766  15.808 -0.1676  2.3002  0.0594
 6397TIP3   OH240605   0.166   5.240   3.942 -0.0464 -0.1253 -0.1462
 6397TIP3    H140606   0.206   5.322   3.971  1.3193 -1.0919  0.8050
 6397TIP3    H240607   0.226   5.172   3.971 -1.3490 -1.5145 -0.5588
 6398TIP3   OH240608   4.566   3.783  10.985  0.2238 -0.2025  0.2293
 6398TIP3    H140609   4.657   3.798  10.957  0.7388 -2.2736  0.5861
 6398TIP3    H240610   4.564   3.690  11.008 -2.0759 -0.2501  0.0005
 6399TIP3   OH240611   4.334   2.574   0.910  0.0879 -0.2680  0.1237
 6399TIP3    H140612   4.345   2.664   0.940 -0.3330 -0.2827  0.3264
 6399TIP3    H240613   4.412   2.557   0.856 -0.0835  0.3786 -0.3354
 6400TIP3   OH240614   1.106   3.131   6.554 -0.8145 -0.3311  0.0852
 6400TIP3    H140615   1.202   3.127   6.554 -0.6956  0.2305 -2.7920
 6400TIP3    H240616   1.080   3.088   6.635  1.8088 -2.8883 -0.2758
 6401TIP3   OH240617   0.759   2.661   2.243  0.4121 -0.2297  0.4416
 6401TIP3    H140618   0.830   2.710   2.285 -1.1287  1.0020  1.7280
 6401TIP3    H240619   0.757   2.695   2.153  2.5213 -1.5403 -0.1831
 6402TIP3   OH240620   0.757   3.332  13.662  0.1690  0.4410 -0.6315
 6402TIP3    H140621   0.696   3.403  13.683  0.6768  0.8043 -0.3415
 6402TIP3    H240622   0.709   3.252  13.682 -0.1362  0.7287 -0.2013
 6403TIP3   OH240623   2.751   6.257  11.494 -0.7581 -0.7845  0.1017
 6403TIP3    H140624   2.721   6.167  11.483  0.5963 -1.2196 -0.1662
 6403TIP3    H240625   2.671   6.307  11.511 -1.5854 -1.9430 -0.2876
 6404TIP3   OH240626   5.023   6.355   5.271  0.0615  0.4368  0.2931
 6404TIP3    H140627   4.994   6.446   5.263  0.6783  0.7920  1.8117
 6404TIP3    H240628   5.068   6.351   5.355  2.5434 -0.5957 -0.9873
 6405TIP3   OH240629   1.867   4.046  13.056 -0.0261 -0.1797  0.5934
 6405TIP3    H140630   1.774   4.065  13.062 -0.4089 -0.0013 -3.2871
 6405TIP3    H240631   1.910   4.124  13.092 -1.3956  0.5965  0.6198
 6406TIP3   OH240632   1.676   5.530   2.836 -0.5346  0.2416 -0.1880
 6406TIP3    H140633   1.724   5.464   2.787  0.1643  0.2490  0.4596
 6406TIP3    H240634   1.742   5.568   2.895 -1.4618 -0.2226  1.2091
 6407TIP3   OH240635   2.717   1.967   3.017 -0.3935  0.2824  0.3010
 6407TIP3    H140636   2.741   1.883   2.979  0.9210  1.1158 -0.8340
 6407TIP3    H240637   2.628   1.983   2.986 -0.9297 -0.9942  1.1270
 6408TIP3   OH240638   1.119   1.372  11.555 -0.6160 -0.2004  0.1601
 6408TIP3    H140639   1.031   1.368  11.517 -0.9433  0.8630  0.7600
 6408TIP3    H240640   1.124   1.294  11.611 -2.6099  1.5303  3.0321
 6409TIP3   OH240641   0.380   3.086   3.034 -0.0114 -0.0666  0.7898
 6409TIP3    H140642   0.466   3.057   3.004  0.3602  1.4898  0.2451
 6409TIP3    H240643   0.395   3.173   3.070 -1.4074  0.3621  0.4050
 6410TIP3   OH240644   2.440   2.415   0.271  0.0441 -0.1073  0.0901
 6410TIP3    H140645   2.440   2.390   0.363  0.3987  2.0533  0.7358
 6410TIP3    H240646   2.439   2.511   0.272  0.8595 -0.0136 -2.1488
 6411TIP3   OH240647   1.162   5.909  11.070 -0.2047  0.1482  0.0876
 6411TIP3    H140648   1.069   5.908  11.044 -0.3650  0.2357  0.6582
 6411TIP3    H240649   1.178   5.821  11.104  0.2053 -0.2136 -0.9679
 6412TIP3   OH240650   2.372   1.484   2.186  0.0253  0.3738 -0.2441
 6412TIP3    H140651   2.343   1.564   2.142  1.6830  1.5556  0.7054
 6412TIP3    H240652   2.339   1.491   2.275 -0.4295 -0.3569 -0.3478
 6413TIP3   OH240653   3.137   2.248  11.403 -0.5526  0.1515 -0.3532
 6413TIP3    H140654   3.214   2.300  11.381 -0.5048  0.0419 -0.4504
 6413TIP3    H240655   3.170   2.178  11.459 -0.6833  0.4611  0.1193
 6414TIP3   OH240656   2.251   3.157  10.845 -0.0805 -0.0292  0.5060
 6414TIP3    H140657   2.177   3.113  10.886  1.0710 -1.5491  1.0755
 6414TIP3    H240658   2.328   3.110  10.878  1.0081 -0.2520 -2.0851
 6415TIP3   OH240659   2.613   1.325   5.567 -0.0575 -0.2060 -0.5661
 6415TIP3    H140660   2.636   1.306   5.477 -0.6570  2.5123 -1.3685
 6415TIP3    H240661   2.694   1.358   5.607  0.5586 -2.6025  0.3576
 6416TIP3   OH240662   5.349   1.282   4.695 -0.2345 -0.0971 -0.0863
 6416TIP3    H140663   5.307   1.199   4.716 -0.0500 -0.0387  0.5212
 6416TIP3    H240664   5.429   1.283   4.747 -1.1778  1.3021  1.4330
 6417TIP3   OH240665   4.707   5.988  13.588  0.3631  0.1743  0.1679
 6417TIP3    H140666   4.709   5.912  13.529  2.1009  0.5049 -0.2610
 6417TIP3    H240667   4.622   5.983  13.631  0.2922 -1.8101 -0.1250
 6418TIP3   OH240668   4.432   0.658  16.812 -0.0859  0.0965  0.5447
 6418TIP3    H140669   4.484   0.603  16.872  2.3312  1.6811  0.0328
 6418TIP3    H240670   4.365   0.599  16.778  1.3774 -2.1150  1.2516
 6419TIP3   OH240671   5.540   0.340  16.669 -0.5629  0.2911 -0.4112
 6419TIP3    H140672   5.515   0.292  16.590 -1.7283  0.4385 -0.1422
 6419TIP3    H240673   5.632   0.315  16.683 -0.8376 -1.0917 -0.8400
 6420TIP3   OH240674   0.949   3.502   5.320 -0.2604 -0.1194 -0.6821
 6420TIP3    H140675   0.925   3.436   5.255  1.0467 -1.3308  0.0075
 6420TIP3    H240676   0.908   3.472   5.401 -0.3079  0.3471 -0.5329
 6421TIP3   OH240677   6.737   6.081   1.939 -0.2389 -0.3128 -0.0035
 6421TIP3    H140678   6.670   6.136   1.980 -0.8357 -0.8547 -0.2443
 6421TIP3    H240679   6.810   6.082   2.001 -0.9060 -0.6472  0.7954
 6422TIP3   OH240680   2.375   1.766  16.623 -0.3045 -0.3113  0.3997
 6422TIP3    H140681   2.336   1.690  16.581 -2.1471  0.1039  1.2685
 6422TIP3    H240682   2.464   1.738  16.646  0.0161 -1.2396 -1.7535
 6423TIP3   OH240683   6.140   3.420  13.188 -0.5764 -0.4302  0.2968
 6423TIP3    H140684   6.189   3.339  13.172 -1.7919 -1.5258  1.8040
 6423TIP3    H240685   6.173   3.453  13.271 -1.4264 -0.4529  0.6564
 6424TIP3   OH240686   2.588   4.626   2.674 -0.3146 -0.0203  0.7748
 6424TIP3    H140687   2.575   4.551   2.732  1.0921 -2.5385 -1.9302
 6424TIP3    H240688   2.501   4.646   2.642 -0.8984  0.4419  2.5099
 6425TIP3   OH240689   4.923   3.608  12.074  0.1229 -0.0451 -0.2636
 6425TIP3    H140690   4.952   3.517  12.071 -0.1001 -0.1704  0.7582
 6425TIP3    H240691   4.848   3.606  12.134 -0.8249  0.5656 -1.4070
 6426TIP3   OH240692   4.016   6.311  15.588  0.2247 -0.2261 -0.0142
 6426TIP3    H140693   3.947   6.244  15.586  0.2086 -0.2393  0.6864
 6426TIP3    H240694   3.982   6.379  15.646  0.0927  0.5699 -0.9915
 6427TIP3   OH240695   0.551   5.255  12.302  0.2506  0.8159  0.3344
 6427TIP3    H140696   0.557   5.338  12.350 -2.5021  0.4101  1.5738
 6427TIP3    H240697   0.467   5.217  12.330  1.2472 -2.2434 -0.4686
 6428TIP3   OH240698   0.866   2.732   1.126 -0.0423  1.0296  0.2137
 6428TIP3    H140699   0.923   2.798   1.165  0.1277  1.7313 -1.1583
 6428TIP3    H240700   0.784   2.739   1.175  0.0243  2.1596  0.1780
 6429TIP3   OH240701   0.077   6.686   1.206 -0.1416  0.1141 -0.5120
 6429TIP3    H140702   0.065   6.645   1.292  3.5418 -0.7694 -0.2469
 6429TIP3    H240703   0.069   6.613   1.144 -1.9538  0.6072 -0.9171
 6430TIP3   OH240704   6.204   1.823   0.951  0.8567  0.1152  0.0788
 6430TIP3    H140705   6.136   1.881   0.986  0.7073  0.5293 -0.8632
 6430TIP3    H240706   6.210   1.752   1.015  1.7691  1.6623  1.8038
 6431TIP3   OH240707   4.084   6.693  15.895  0.5393 -0.5781 -0.4155
 6431TIP3    H140708   4.055   6.736  15.975 -1.3133 -3.0542  0.3729
 6431TIP3    H240709   4.158   6.746  15.865 -0.2281  1.8259  1.5650
 6432TIP3   OH240710   3.472   3.820  12.485  0.3932 -0.1697 -0.0250
 6432TIP3    H140711   3.424   3.899  12.510 -0.3110 -0.3376 -0.8309
 6432TIP3    H240712   3.452   3.807  12.392  0.1566 -1.5375  0.1966
 6433TIP3   OH240713   1.388   4.232   5.058 -0.1534  0.5681  0.0713
 6433TIP3    H140714   1.353   4.171   5.123  1.5185  1.2930  1.7531
 6433TIP3    H240715   1.465   4.188   5.023  0.7512  1.4303  0.9018
 6434TIP3   OH240716   0.962   6.030   5.086 -0.1693 -0.1415 -0.2180
 6434TIP3    H140717   1.016   6.060   5.159  0.1041 -0.3218 -0.3450
 6434TIP3    H240718   0.973   5.935   5.085 -1.1124 -0.2717  0.2475
 6435TIP3   OH240719   0.842   2.446   2.804 -0.1150  0.1934  0.5587
 6435TIP3    H140720   0.787   2.501   2.860 -0.6433 -0.4009  0.6355
 6435TIP3    H240721   0.872   2.504   2.734  2.0391  1.4524  2.3929
 6436TIP3   OH240722   0.045   0.267   4.060 -0.1536  0.2474 -0.4719
 6436TIP3    H140723   0.021   0.352   4.024 -0.3634  0.3671 -0.0586
 6436TIP3    H240724  -0.029   0.241   4.114  0.3762  0.3319  0.3164
 6437TIP3   OH240725   3.937   2.690  16.715  0.3437 -0.6102  0.1911
 6437TIP3    H140726   3.926   2.629  16.643 -0.2917  0.7806 -0.9485
 6437TIP3    H240727   4.032   2.697  16.726  0.5191  0.1065 -1.4041
 6438TIP3   OH240728   2.479   4.081  16.652 -0.0514 -0.8490 -0.2717
 6438TIP3    H140729   2.573   4.077  16.631 -0.1936 -0.7992 -0.9481
 6438TIP3    H240730   2.470   4.027  16.730  0.8504  0.7156  0.9706
 6439TIP3   OH240731   5.893   6.408  15.644 -0.3748 -0.5883  0.2223
 6439TIP3    H140732   5.831   6.475  15.615 -2.4678 -2.4377  0.1539
 6439TIP3    H240733   5.842   6.352  15.702  1.4704 -1.7816  0.7753
 6440TIP3   OH240734   2.906   6.606  11.507  0.5175 -0.7647 -0.3545
 6440TIP3    H140735   2.984   6.578  11.459  0.0946  0.0352 -1.5615
 6440TIP3    H240736   2.878   6.528  11.556  0.3495 -1.9626 -2.2639
 6441TIP3   OH240737   0.778   1.483   2.717  1.0029  0.1760 -0.5640
 6441TIP3    H140738   0.824   1.416   2.666  1.1418  1.2114 -1.8626
 6441TIP3    H240739   0.697   1.497   2.669  0.1784 -0.2663  0.6601
 6442TIP3   OH240740   0.170   2.098   4.904  0.0130 -0.3709  0.5081
 6442TIP3    H140741   0.203   2.094   4.994 -0.2491 -0.8621  0.5848
 6442TIP3    H240742   0.122   2.181   4.901 -0.7009 -0.7467  1.0792
 6443TIP3   OH240743   1.199   4.203  15.182 -0.4376  0.1169 -0.5562
 6443TIP3    H140744   1.205   4.124  15.127  0.3102 -0.1567 -0.0937
 6443TIP3    H240745   1.126   4.252  15.145  1.8876  1.4654 -3.7600
 6444TIP3   OH240746   4.681   4.407   1.930  0.2492 -0.1792 -0.2453
 6444TIP3    H140747   4.703   4.461   2.006 -0.5234 -0.6668  0.3353
 6444TIP3    H240748   4.596   4.441   1.900  1.0158  0.6823 -1.5261
 6445TIP3   OH240749   2.550   0.780   1.402  0.1228  0.1800  0.8327
 6445TIP3    H140750   2.609   0.740   1.338 -1.3194 -2.8990  1.2876
 6445TIP3    H240751   2.604   0.792   1.480  0.5983 -0.9155  0.6813
 6446TIP3   OH240752   0.984   3.907  12.895 -0.2127 -0.1249 -0.2606
 6446TIP3    H140753   0.889   3.912  12.887 -0.2259  1.2404  0.4038
 6446TIP3    H240754   1.002   3.818  12.925 -1.1181 -1.0389 -2.2542
 6447TIP3   OH240755   0.761   6.144  16.715  0.1654  0.3530 -0.0298
 6447TIP3    H140756   0.719   6.171  16.797 -0.9469  1.6794 -0.9778
 6447TIP3    H240757   0.728   6.056  16.699  0.8473 -0.1535  1.2179
 6448TIP3   OH240758   4.367   6.338  14.627  0.4589  0.2744 -0.3162
 6448TIP3    H140759   4.375   6.304  14.716 -3.2227  1.2847  0.5581
 6448TIP3    H240760   4.355   6.260  14.573  0.3516 -0.2286  0.4138
 6449TIP3   OH240761   5.960   1.212  11.363 -0.1359 -0.9053  0.5934
 6449TIP3    H140762   5.883   1.247  11.409  0.0471 -1.9884  1.7753
 6449TIP3    H240763   6.011   1.290  11.340  0.1047 -0.3214  2.8704
 6450TIP3   OH240764   2.199   6.049  14.144  0.4220 -0.4223  0.2507
 6450TIP3    H140765   2.207   6.145  14.142  0.7525 -0.3888  1.9309
 6450TIP3    H240766   2.285   6.018  14.173  0.3661 -1.2501 -0.4406
 6451TIP3   OH240767   3.777   2.138   4.061  0.0393 -0.3477  0.0744
 6451TIP3    H140768   3.763   2.050   4.097  0.6672 -0.5294 -0.1139
 6451TIP3    H240769   3.694   2.159   4.018  0.0150 -1.0206 -0.2273
 6452TIP3   OH240770   4.475   3.537   0.179  0.4145 -0.2381  0.2518
 6452TIP3    H140771   4.492   3.531   0.273  2.9976  0.1915 -0.1369
 6452TIP3    H240772   4.381   3.520   0.171  0.0697  0.0240  2.9250
 6453TIP3   OH240773   4.920   4.481   3.463  0.5352  0.1129  0.3172
 6453TIP3    H140774   4.920   4.482   3.367  0.7115 -0.6425  0.3048
 6453TIP3    H240775   5.012   4.489   3.487  0.4826  0.4074  0.4313
 6454TIP3   OH240776   0.073   3.519  12.086  0.2283 -0.1865  0.0349
 6454TIP3    H140777   0.018   3.552  12.015  1.6128  3.2225  0.3803
 6454TIP3    H240778   0.025   3.541  12.166 -0.5781 -2.6017  0.3078
 6455TIP3   OH240779   3.259   4.593   6.035 -0.6902 -0.4302  0.2414
 6455TIP3    H140780   3.275   4.501   6.015  0.2739 -0.4415  0.9999
 6455TIP3    H240781   3.237   4.595   6.128  2.4454  0.3730  1.0965
 6456TIP3   OH240782   3.457   2.281   2.832  0.0216 -0.3338  0.2473
 6456TIP3    H140783   3.533   2.336   2.852  0.1258 -0.3151 -0.1890
 6456TIP3    H240784   3.484   2.229   2.757 -0.7059  0.3186 -0.4843
 6457TIP3   OH240785   3.840   3.244   4.616 -0.2596 -0.1293 -0.0819
 6457TIP3    H140786   3.894   3.168   4.596 -1.5774 -1.1187 -0.0324
 6457TIP3    H240787   3.780   3.215   4.684  0.7412  1.6828  1.6832
 6458TIP3   OH240788   4.157   1.432  16.889  0.4181  0.3883  0.5662
 6458TIP3    H140789   4.161   1.392  16.802  0.7011  0.9731  0.3029
 6458TIP3    H240790   4.095   1.504  16.879  0.3121  0.3421  0.8969
 6459TIP3   OH240791   3.219   0.743   0.838  0.1030 -0.0573  0.0617
 6459TIP3    H140792   3.265   0.779   0.913  0.5177  0.7325 -0.5577
 6459TIP3    H240793   3.166   0.815   0.805 -0.6042 -0.5951  0.0025
 6460TIP3   OH240794   2.009   0.746   3.246 -0.0087 -0.1440  0.2930
 6460TIP3    H140795   2.002   0.790   3.331  1.6133 -0.5520  0.6746
 6460TIP3    H240796   2.101   0.756   3.222 -0.3701 -0.3414 -1.2630
 6461TIP3   OH240797   3.480   4.901  11.511 -0.0553 -1.1667  0.9701
 6461TIP3    H140798   3.523   4.863  11.434  1.8218 -0.6307  1.6915
 6461TIP3    H240799   3.487   4.996  11.497 -2.1966 -1.0324  0.5137
 6462TIP3   OH240800   4.294   5.302  12.488  0.3137 -0.7495  0.5423
 6462TIP3    H140801   4.329   5.372  12.433 -2.8112  0.4087 -0.1897
 6462TIP3    H240802   4.282   5.229  12.428 -2.3688  0.2666 -0.3179
 6463TIP3   OH240803   6.611   4.343  12.200  0.1210 -0.0993  0.3894
 6463TIP3    H140804   6.650   4.428  12.219  0.1843  0.0020 -0.1783
 6463TIP3    H240805   6.562   4.321  12.278  2.4019 -0.8440  1.7146
 6464TIP3   OH240806   2.891   3.492   0.001  0.4706  0.4941  0.4374
 6464TIP3    H140807   2.944   3.566  -0.030  0.8782 -0.0866 -0.2874
 6464TIP3    H240808   2.808   3.500  -0.047  1.0201 -0.2793 -0.6809
 6465TIP3   OH240809   6.740   1.835   4.356 -0.3480  0.4764  0.2164
 6465TIP3    H140810   6.685   1.771   4.400  0.9941 -0.3948  0.7072
 6465TIP3    H240811   6.790   1.784   4.292  0.3250  1.1165  0.2113
 6466TIP3   OH240812   1.931   3.090   2.511 -0.0920 -0.0631  0.1097
 6466TIP3    H140813   2.000   3.028   2.489  0.1746  0.7335 -1.4534
 6466TIP3    H240814   1.875   3.043   2.572  2.3433 -0.4166  2.2513
 6467TIP3   OH240815   2.438   5.623   0.298  0.7879 -0.0826 -0.2304
 6467TIP3    H140816   2.367   5.613   0.235  0.5079  0.9137 -0.0967
 6467TIP3    H240817   2.440   5.717   0.317  0.1930 -0.4524  2.0017
 6468TIP3   OH240818   2.980   4.763  12.052  0.4942 -0.6684  0.1251
 6468TIP3    H140819   3.016   4.689  12.003  1.2872 -0.1926 -0.0214
 6468TIP3    H240820   2.976   4.732  12.142  1.7312 -0.5790  0.2278
 6469TIP3   OH240821   2.310   1.462   4.776  0.2513  0.1258  0.1070
 6469TIP3    H140822   2.293   1.488   4.686  2.9229  0.3812 -0.4031
 6469TIP3    H240823   2.322   1.367   4.771 -0.9928 -0.0702  0.4796
 6470TIP3   OH240824   5.267   3.192  11.357 -0.7558 -0.0710 -0.2412
 6470TIP3    H140825   5.236   3.103  11.340 -0.6284 -0.2126  0.2707
 6470TIP3    H240826   5.357   3.192  11.325 -0.6826 -0.1907 -0.0357
 6471TIP3   OH240827   5.100   1.777  12.761 -0.1774  0.3144 -0.2459
 6471TIP3    H140828   5.017   1.822  12.778  0.0736  0.6999 -0.0278
 6471TIP3    H240829   5.129   1.809  12.676 -0.6785 -0.4733 -0.7253
 6472TIP3   OH240830   0.838   4.538  13.333 -0.4537  0.1829  0.5078
 6472TIP3    H140831   0.858   4.454  13.291  0.7571  0.4233  0.5652
 6472TIP3    H240832   0.819   4.515  13.424 -1.3386 -0.1510  0.2462
 6473TIP3   OH240833   5.807   5.671  16.344  0.3019  0.0762  0.1959
 6473TIP3    H140834   5.809   5.607  16.415 -0.9239 -0.5357 -0.3042
 6473TIP3    H240835   5.778   5.752  16.386 -2.7819 -0.8363  0.0497
 6474TIP3   OH240836   0.454   4.760   0.608  0.2553 -0.6948 -0.2114
 6474TIP3    H140837   0.512   4.777   0.534  0.8709  0.3404  0.4781
 6474TIP3    H240838   0.512   4.734   0.679 -0.0049  0.9546  0.6708
 6475TIP3   OH240839   0.332   5.509  12.156 -0.0823  1.2828 -0.3412
 6475TIP3    H140840   0.323   5.595  12.115 -0.5142  2.8493  2.7478
 6475TIP3    H240841   0.246   5.491  12.194  0.5346  0.4200  0.7047
 6476TIP3   OH240842   5.077   1.486   5.186 -0.6499  0.1333 -0.1280
 6476TIP3    H140843   5.166   1.495   5.154 -0.4407 -0.6838  0.2084
 6476TIP3    H240844   5.085   1.490   5.282 -1.1862  1.8403 -0.1164
 6477TIP3   OH240845   1.428   6.264   1.774 -0.1303 -0.4593 -0.4885
 6477TIP3    H140846   1.427   6.175   1.809  0.8019  0.2544  1.5127
 6477TIP3    H240847   1.512   6.270   1.728  0.1221 -0.3971 -0.0204
 6478TIP3   OH240848   2.230   5.842   5.374  0.1728 -0.5139 -0.2964
 6478TIP3    H140849   2.151   5.857   5.425  0.9596  0.4237  0.7060
 6478TIP3    H240850   2.246   5.748   5.381  0.4310 -0.3656  1.4668
 6479TIP3   OH240851   5.744   5.862   5.376 -0.5043  0.3553 -0.3557
 6479TIP3    H140852   5.739   5.915   5.455  2.0016  0.8339 -0.4305
 6479TIP3    H240853   5.729   5.923   5.304 -0.1552  0.4722 -0.3331
 6480TIP3   OH240854   2.305   4.413   1.438  0.3878 -0.2733  0.8768
 6480TIP3    H140855   2.293   4.327   1.479  1.8522 -0.8882  0.1211
 6480TIP3    H240856   2.224   4.429   1.390 -1.7735  0.8795  4.5738
 6481TIP3   OH240857   1.050   2.587  14.367 -0.4324  0.1598  0.1228
 6481TIP3    H140858   1.136   2.554  14.392 -0.0116  1.2905  0.2204
 6481TIP3    H240859   1.048   2.579  14.271  0.6700  2.1199 -0.1169
 6482TIP3   OH240860   6.099   1.913   4.504  0.3568 -0.2625 -0.2181
 6482TIP3    H140861   6.033   1.903   4.436 -0.7240  0.9282  0.5983
 6482TIP3    H240862   6.056   1.885   4.585  1.2012 -0.4685  0.1761
 6483TIP3   OH240863   4.558   6.654  11.010 -0.1060 -0.4245  0.3288
 6483TIP3    H140864   4.477   6.706  11.016  0.2535  0.0603  1.2191
 6483TIP3    H240865   4.623   6.716  10.976 -0.0869 -0.7877 -0.2973
 6484TIP3   OH240866   4.200   4.843  16.257 -0.2532  0.1097  0.0000
 6484TIP3    H140867   4.215   4.875  16.347 -0.4175 -0.8736  0.3853
 6484TIP3    H240868   4.125   4.894  16.227  0.9197  1.7720 -0.2713
 6485TIP3   OH240869   1.021   0.796  14.988  0.1813  0.2826  0.5051
 6485TIP3    H140870   1.088   0.773  14.924  1.6265  0.2782  1.9483
 6485TIP3    H240871   0.940   0.761  14.952  1.0483 -0.2764 -0.9966
 6486TIP3   OH240872   4.309   1.769   1.779  0.6700 -0.0432 -0.0969
 6486TIP3    H140873   4.325   1.813   1.863 -0.6658 -0.1238  0.2252
 6486TIP3    H240874   4.319   1.676   1.798  0.1257 -0.0780  0.0491
 6487TIP3   OH240875   4.238   6.420   3.606  1.0345  0.2766  0.3556
 6487TIP3    H140876   4.247   6.494   3.546  0.0457  1.7761  1.9664
 6487TIP3    H240877   4.165   6.369   3.571  1.3191  0.3923 -0.4193
 6488TIP3   OH240878   4.561   3.778   6.882  0.1091  0.2463  0.1469
 6488TIP3    H140879   4.612   3.725   6.943  1.1175 -0.0306 -0.9074
 6488TIP3    H240880   4.618   3.789   6.806 -0.4841  1.9871 -0.0808
 6489TIP3   OH240881   6.008   5.914  12.138 -0.1732 -0.2254  0.3980
 6489TIP3    H140882   6.045   5.973  12.072 -0.0797  0.0580  0.7059
 6489TIP3    H240883   6.045   5.828  12.116 -0.1923 -0.1436  0.0412
 6490TIP3   OH240884   4.365   3.419   2.681 -0.0231 -0.3361 -0.5382
 6490TIP3    H140885   4.406   3.408   2.595 -0.0092 -2.1694 -0.3351
 6490TIP3    H240886   4.292   3.478   2.666  2.2647  2.6051 -1.0259
 6491TIP3   OH240887   2.548   2.565  15.816  0.0757  0.0017 -0.8777
 6491TIP3    H140888   2.641   2.545  15.828  0.2662  1.2008 -0.1653
 6491TIP3    H240889   2.547   2.646  15.765 -0.5423  0.4486 -0.1887
 6492TIP3   OH240890   1.757   1.357   1.350 -0.2793 -0.7509  0.3858
 6492TIP3    H140891   1.767   1.423   1.281 -0.0548 -0.8184  0.3569
 6492TIP3    H240892   1.771   1.273   1.307  0.2141 -0.7726  0.5879
 6493TIP3   OH240893   2.106   6.488   0.430  0.7702  0.3490  0.4942
 6493TIP3    H140894   2.126   6.572   0.469 -1.2429  0.8837  0.4748
 6493TIP3    H240895   2.013   6.474   0.448  0.0340 -0.0170 -2.8367
 6494TIP3   OH240896   2.148   6.744   2.017 -0.3561 -0.1299 -0.5574
 6494TIP3    H140897   2.212   6.672   2.012  0.0402  0.1915 -0.1649
 6494TIP3    H240898   2.070   6.704   2.054 -0.2731 -0.4554 -0.7308
 6495TIP3   OH240899   4.136   1.484  12.786 -0.0552  0.0939  0.0314
 6495TIP3    H140900   4.143   1.407  12.842 -1.4903 -0.9292 -1.1076
 6495TIP3    H240901   4.190   1.551  12.829  0.9439 -1.4261  1.2255
 6496TIP3   OH240902   2.792   0.921   1.998  0.3176  0.0124 -0.3156
 6496TIP3    H140903   2.796   1.015   1.977 -0.0018 -0.0398 -0.6209
 6496TIP3    H240904   2.700   0.905   2.019  0.2779 -0.3276 -0.7254
 6497TIP3   OH240905   5.000   5.046  12.843  0.0496  0.2856 -0.2492
 6497TIP3    H140906   4.940   5.120  12.843 -1.2798 -0.7470  0.4510
 6497TIP3    H240907   4.990   5.006  12.757 -1.2718 -0.6218  0.2893
 6498TIP3   OH240908   2.696   3.330   1.882 -0.0030  0.3783 -0.1934
 6498TIP3    H140909   2.764   3.312   1.946 -1.0282  0.8527  1.0605
 6498TIP3    H240910   2.720   3.278   1.806  0.2327 -1.7246  1.2446
 6499TIP3   OH240911   4.680   5.150   4.447 -0.3790 -0.0982 -0.1516
 6499TIP3    H140912   4.745   5.211   4.481 -0.3964 -0.1889  0.0476
 6499TIP3    H240913   4.727   5.068   4.435 -0.8316 -0.6926  1.7029
 6500TIP3   OH240914   2.864   1.160  12.715 -0.1734 -0.5920 -0.1333
 6500TIP3    H140915   2.795   1.216  12.679 -0.0844 -0.6057 -0.3281
 6500TIP3    H240916   2.940   1.178  12.660 -0.1336 -0.8741 -0.1709
 6501TIP3   OH240917   6.439   6.332  12.433 -0.0882  0.0448  0.3646
 6501TIP3    H140918   6.379   6.283  12.378  0.6117 -1.2481  0.7142
 6501TIP3    H240919   6.384   6.374  12.499 -0.6690 -0.5913  0.2884
 6502TIP3   OH240920   3.761   3.011   1.793 -0.4117 -0.0571  0.3010
 6502TIP3    H140921   3.668   2.993   1.809 -0.9458  2.0616 -0.1222
 6502TIP3    H240922   3.793   3.047   1.875 -0.1413 -0.1727  0.2468
 6503TIP3   OH240923   6.571   0.618  11.157 -0.1506  0.2703 -0.1609
 6503TIP3    H140924   6.658   0.588  11.130  0.1974  1.9161 -1.0118
 6503TIP3    H240925   6.511   0.575  11.096  0.0323 -0.8971  0.4487
 6504TIP3   OH240926   1.077   4.354   5.097  0.7025  0.5303  0.1560
 6504TIP3    H140927   0.985   4.378   5.107  0.3952 -0.4548 -0.1778
 6504TIP3    H240928   1.079   4.299   5.018  1.5042  0.2119  0.3863
 6505TIP3   OH240929   5.906   4.468   0.063  0.2315 -0.6080  0.2104
 6505TIP3    H140930   5.945   4.519   0.133  0.9744 -2.1194  0.9500
 6505TIP3    H240931   5.972   4.401   0.042  0.3552  0.1972 -2.4384
 6506TIP3   OH240932   4.370   4.899  16.794  0.3716 -0.1547 -0.2627
 6506TIP3    H140933   4.408   4.960  16.730 -0.2519 -0.3880 -0.8637
 6506TIP3    H240934   4.283   4.934  16.811  0.8803  0.4680  1.2289
 6507TIP3   OH240935   4.645   4.198  14.841 -0.1158 -1.0019  0.0358
 6507TIP3    H140936   4.579   4.130  14.831 -0.7708 -0.5709  1.2021
 6507TIP3    H240937   4.678   4.187  14.930 -1.1563  0.9785  0.7232
 6508TIP3   OH240938   5.926   4.880  15.881  0.6092 -0.1147 -0.2540
 6508TIP3    H140939   5.851   4.925  15.921  0.1030 -2.6954  2.0219
 6508TIP3    H240940   5.891   4.842  15.801 -0.2723 -0.4695  0.2810
 6509TIP3   OH240941   5.746   0.650  12.931 -0.2397  0.3236 -0.1079
 6509TIP3    H140942   5.811   0.685  12.992 -1.4529  2.0269  0.2752
 6509TIP3    H240943   5.676   0.715  12.930 -0.8566 -0.2653 -2.3558
 6510TIP3   OH240944   0.421   0.724  10.964  0.4432 -0.0931 -0.2744
 6510TIP3    H140945   0.362   0.771  10.905 -0.9067  0.4123  1.4171
 6510TIP3    H240946   0.408   0.632  10.944 -0.3318  0.0528 -0.4452
 6511TIP3   OH240947   5.336   1.751  12.926 -0.3706  0.1180  0.4298
 6511TIP3    H140948   5.282   1.782  12.854  1.5370  1.2025 -0.6211
 6511TIP3    H240949   5.346   1.827  12.984  2.9310  1.2095 -1.2946
 6512TIP3   OH240950   2.894   1.541  12.460  0.4358  0.3954  0.0422
 6512TIP3    H140951   2.966   1.539  12.397 -1.0254  0.6210 -1.7005
 6512TIP3    H240952   2.917   1.612  12.520  2.6302 -0.8492  0.7945
 6513TIP3   OH240953   0.200   1.743   0.312 -0.0569 -0.1661 -0.4213
 6513TIP3    H140954   0.244   1.717   0.231 -1.3668  1.2927 -1.6415
 6513TIP3    H240955   0.262   1.718   0.381  2.8098  1.9313 -2.0310
 6514TIP3   OH240956   4.549   5.920  16.692 -0.2642 -0.3495  0.2673
 6514TIP3    H140957   4.489   5.990  16.666  1.3332  1.5698  1.4840
 6514TIP3    H240958   4.589   5.892  16.610  1.6234  2.6780  0.0004
 6515TIP3   OH240959   2.679   3.786  13.759 -0.3791  0.8124 -0.2081
 6515TIP3    H140960   2.664   3.773  13.853 -1.5393 -0.6516 -0.5545
 6515TIP3    H240961   2.716   3.874  13.753  0.4860  0.6255  1.6859
 6516TIP3   OH240962   0.075   6.657  14.631  0.5794  0.2712 -0.0939
 6516TIP3    H140963   0.073   6.710  14.711  0.3938  1.3944 -0.8181
 6516TIP3    H240964   0.004   6.593  14.643  1.3601 -0.3919  1.1605
 6517TIP3   OH240965   6.158   3.550  11.364 -0.0488  0.7500  0.3679
 6517TIP3    H140966   6.126   3.564  11.275  1.1436  1.4515  0.0244
 6517TIP3    H240967   6.175   3.638  11.398 -1.4874  0.5603  1.6989
 6518TIP3   OH240968   2.896   2.020   1.898 -0.2870 -0.1558  0.7785
 6518TIP3    H140969   2.915   2.113   1.885 -0.6650  0.0291  1.5138
 6518TIP3    H240970   2.849   2.016   1.981  0.0133 -1.0446  0.9195
 6519TIP3   OH240971   6.030   0.071  17.164 -0.5415  0.3346  0.4912
 6519TIP3    H140972   5.955   0.080  17.105 -0.0195 -0.9994 -0.4287
 6519TIP3    H240973   5.993   0.079  17.252 -1.5480  0.9979  0.0155
 6520TIP3   OH240974   3.287   0.374  15.037 -0.0687 -0.3209  0.1876
 6520TIP3    H140975   3.283   0.422  14.954  2.5256 -0.2910  0.0009
 6520TIP3    H240976   3.294   0.282  15.011 -0.1052 -0.3801  0.3895
 6521TIP3   OH240977   3.957   4.377  11.465 -0.4250  0.0457  0.2108
 6521TIP3    H140978   3.930   4.426  11.387  2.7157  0.8691 -0.5022
 6521TIP3    H240979   3.987   4.443  11.527  1.2723 -0.7724  0.3305
 6522TIP3   OH240980   5.417   1.992   5.513  0.4925 -0.7709  0.0399
 6522TIP3    H140981   5.430   2.086   5.502 -1.0532 -0.4717  0.5452
 6522TIP3    H240982   5.433   1.955   5.426  0.2971  0.0579 -0.3548
 6523TIP3   OH240983   5.439   1.777  11.799 -0.4030  0.1257  0.4001
 6523TIP3    H140984   5.368   1.812  11.853  0.1945  0.4298  1.0084
 6523TIP3    H240985   5.500   1.738  11.862 -0.3313 -0.7057 -0.1565
 6524TIP3   OH240986   5.973   5.627   5.360  0.1298  0.0375 -0.3736
 6524TIP3    H140987   5.898   5.662   5.311  1.0770  1.7287 -0.6829
 6524TIP3    H240988   6.047   5.681   5.333  1.3941 -1.3237  0.2490
 6525TIP3   OH240989   4.500   3.730  14.705 -0.0602  0.4987 -0.4068
 6525TIP3    H140990   4.537   3.654  14.750 -1.5360  0.6312  1.1426
 6525TIP3    H240991   4.443   3.694  14.638  0.7360  0.2736 -0.9714
 6526TIP3   OH240992   5.248   2.368  17.098 -0.0697  0.6498 -0.5449
 6526TIP3    H140993   5.169   2.411  17.131  1.2905  1.1386  2.4433
 6526TIP3    H240994   5.246   2.384  17.004 -2.4144  2.4849 -0.2986
 6527TIP3   OH240995   4.383   6.610  16.110  0.0344  0.2423 -0.4198
 6527TIP3    H140996   4.291   6.616  16.137 -0.0987  0.5170 -0.9284
 6527TIP3    H240997   4.399   6.516  16.104 -0.7051  0.1844 -1.9462
 6528TIP3   OH240998   1.402   5.799  16.056  0.3861  0.1589  0.3105
 6528TIP3    H140999   1.372   5.822  16.143 -1.1113  1.0697 -0.4043
 6528TIP3    H241000   1.414   5.883  16.012  2.5684 -0.2201  0.0596
 6529TIP3   OH241001   1.519   1.378  13.811 -0.4621  0.8125  0.7069
 6529TIP3    H141002   1.500   1.457  13.759  0.4470  0.3605 -0.3411
 6529TIP3    H241003   1.446   1.319  13.794  0.6288  0.0036 -1.4446
 6530TIP3   OH241004   0.837   1.193  11.587 -0.1375 -0.5511  0.2322
 6530TIP3    H141005   0.798   1.106  11.575  0.3352 -1.3344  3.3254
 6530TIP3    H241006   0.922   1.176  11.627  0.2848  1.3261  0.2341
 6531TIP3   OH241007   0.237   0.488  16.830  0.4737  0.1639  0.0784
 6531TIP3    H141008   0.149   0.525  16.817 -1.2979 -3.1836  1.2409
 6531TIP3    H241009   0.257   0.444  16.748  0.5900  0.0484  0.1674
 6532TIP3   OH241010   5.064   4.540   1.773 -0.5457  0.5792  0.7093
 6532TIP3    H141011   5.002   4.469   1.789  1.0140 -0.5086  2.2421
 6532TIP3    H241012   5.135   4.526   1.836  1.5911  1.3833 -1.3507
 6533TIP3   OH241013   1.911   0.552  11.619  0.1896  1.0597 -0.0442
 6533TIP3    H141014   1.994   0.589  11.648 -0.0743  0.9696  0.8761
 6533TIP3    H241015   1.866   0.529  11.700  0.4905 -1.6197 -0.5395
 6534TIP3   OH241016   1.955   5.489   4.787 -0.7825 -0.5731  0.2263
 6534TIP3    H141017   1.914   5.404   4.797 -1.0339 -0.2422  3.0931
 6534TIP3    H241018   1.956   5.506   4.693 -2.5597 -2.8202 -0.2653
 6535TIP3   OH241019   4.669   4.188  11.925 -0.0421 -0.0418  0.2350
 6535TIP3    H141020   4.745   4.245  11.933  0.8158 -1.1452  0.1475
 6535TIP3    H241021   4.619   4.224  11.852 -1.4273  2.7175  2.3650
 6536TIP3   OH241022   5.957   0.414  11.009  0.4165  0.2639  0.0129
 6536TIP3    H141023   5.906   0.367  10.944  1.4072  2.2982 -2.4148
 6536TIP3    H241024   6.042   0.370  11.011  0.4856  0.3778 -0.3376
 6537TIP3   OH241025   3.518   2.133   2.591 -0.1824 -0.3784 -0.3579
 6537TIP3    H141026   3.431   2.117   2.555 -0.4328  2.0957 -1.0211
 6537TIP3    H241027   3.572   2.154   2.515  0.7310 -0.8180  0.1585
 6538TIP3   OH241028   3.640   1.027  13.775  0.5729  0.2707 -0.1695
 6538TIP3    H141029   3.602   0.953  13.727  0.9414 -0.1081  0.1188
 6538TIP3    H241030   3.608   1.104  13.728 -1.6927  0.0291  0.8441
 6539TIP3   OH241031   3.370   1.944  11.790  1.0590  0.6403  0.0356
 6539TIP3    H141032   3.332   1.862  11.823  0.6359  0.9905  0.4294
 6539TIP3    H241033   3.464   1.929  11.790  0.9185 -0.6961 -2.1114
 6540TIP3   OH241034   4.255   1.348  11.524  0.7056 -0.0860  0.6123
 6540TIP3    H141035   4.195   1.346  11.598  0.0798  1.5083  0.1729
 6540TIP3    H241036   4.200   1.368  11.448  1.6141  0.2291  0.0175
 6541TIP3   OH241037   4.611   0.521   2.568  0.3267  0.3780  0.1763
 6541TIP3    H141038   4.577   0.524   2.478  0.5970  0.2258  0.0702
 6541TIP3    H241039   4.621   0.613   2.592  0.0575  0.4229  0.1250
 6542TIP3   OH241040   1.021   4.573   1.914  0.3730 -0.4537  0.2250
 6542TIP3    H141041   1.088   4.510   1.941  1.5167  1.0104  0.9158
 6542TIP3    H241042   1.037   4.586   1.820 -0.0187 -1.3202  0.0224
 6543TIP3   OH241043   3.580   0.765  14.003 -0.5361  0.7020 -0.0413
 6543TIP3    H141044   3.581   0.788  13.911  1.6708 -0.2359 -0.3243
 6543TIP3    H241045   3.624   0.680  14.007 -1.0241  0.4836  1.8239
 6544TIP3   OH241046   1.394   0.606  12.598  0.5229 -0.1254  0.1051
 6544TIP3    H141047   1.346   0.598  12.681  0.0831  0.7253 -0.0535
 6544TIP3    H241048   1.486   0.610  12.624  0.3548  0.7541  0.6114
 6545TIP3   OH241049   0.143   2.841  14.648  0.7285  0.6107 -0.0832
 6545TIP3    H141050   0.204   2.887  14.706  1.3804  1.3743 -1.3201
 6545TIP3    H241051   0.151   2.887  14.564 -1.0430  0.2836 -0.4680
 6546TIP3   OH241052   4.635   0.017  10.465  0.0966 -0.2330 -0.2686
 6546TIP3    H141053   4.708  -0.043  10.448  0.4979 -0.0468  0.7259
 6546TIP3    H241054   4.632   0.024  10.560 -0.2221  0.9960 -0.3600
 6547TIP3   OH241055   2.687   2.495   2.460 -0.0650  0.4341  0.8031
 6547TIP3    H141056   2.639   2.560   2.409 -0.4973 -0.3816  0.1554
 6547TIP3    H241057   2.776   2.530   2.465 -0.4953  1.5072  1.2352
 6548TIP3   OH241058   5.248   4.462   3.404 -0.2844 -0.5743  0.0529
 6548TIP3    H141059   5.264   4.499   3.491 -0.7578  0.6972 -0.3759
 6548TIP3    H241060   5.334   4.431   3.375  0.8524  2.8668 -0.7365
 6549TIP3   OH241061   0.808   4.409   5.093 -0.1974  0.1826  0.1887
 6549TIP3    H141062   0.769   4.324   5.114  0.1242  0.4209  1.9625
 6549TIP3    H241063   0.758   4.472   5.145  1.2627  0.7244  1.0251
 6550TIP3   OH241064   4.690   3.022   3.245 -0.0872  0.1750 -0.0121
 6550TIP3    H141065   4.674   3.003   3.338  0.1511  0.8567  0.1745
 6550TIP3    H241066   4.719   3.113   3.244 -0.9258  0.4515 -0.8435
 6551TIP3   OH241067   4.400   5.998   3.726 -0.0964  0.4682 -0.1646
 6551TIP3    H141068   4.484   5.951   3.721 -1.3517 -2.1149  1.1190
 6551TIP3    H241069   4.398   6.052   3.647  2.1709 -0.4041 -0.9071
 6552TIP3   OH241070   6.113   4.534  13.987  0.1451 -0.1324 -0.2756
 6552TIP3    H141071   6.204   4.523  14.016 -0.1771 -0.3530  0.6835
 6552TIP3    H241072   6.120   4.549  13.893  1.1876  0.0274 -0.1879
 6553TIP3   OH241073   1.222   3.229  11.187  0.9154  0.4201 -0.2787
 6553TIP3    H141074   1.145   3.201  11.137  0.5839  0.2112  0.3457
 6553TIP3    H241075   1.230   3.323  11.168  0.5321  0.4354 -0.3766
 6554TIP3   OH241076   1.051   1.974  12.921  0.9711 -0.2762  0.4177
 6554TIP3    H141077   1.053   2.070  12.914 -0.2716 -0.1408  1.4122
 6554TIP3    H241078   1.102   1.943  12.846 -1.6321  1.1125 -2.1638
 6555TIP3   OH241079   2.344   3.523   1.929 -0.7081 -0.5578 -0.6188
 6555TIP3    H141080   2.379   3.611   1.944  1.4604 -1.5111  0.3474
 6555TIP3    H241081   2.250   3.531   1.943 -0.5874  1.6476 -0.7982
 6556TIP3   OH241082   1.208   4.362   2.294 -0.0540  0.3844 -0.3443
 6556TIP3    H141083   1.126   4.350   2.340  0.5666 -0.6410  0.5323
 6556TIP3    H241084   1.205   4.452   2.262 -1.8800  0.1033 -1.0972
 6557TIP3   OH241085   6.590   0.555   0.203 -0.2040  0.3265  0.1028
 6557TIP3    H141086   6.632   0.639   0.187 -0.3897 -0.0804 -3.2614
 6557TIP3    H241087   6.508   0.576   0.246 -0.5064  1.9665 -1.1875
 6558TIP3   OH241088   5.726   2.044  12.649  0.3133 -0.3590 -0.6931
 6558TIP3    H141089   5.783   1.968  12.655  1.0312  0.2186  0.0303
 6558TIP3    H241090   5.777   2.116  12.688 -0.9487  0.1510  0.0875
 6559TIP3   OH241091   4.140   3.452   4.305  0.2648 -0.0567 -0.6512
 6559TIP3    H141092   4.109   3.471   4.393 -0.5405  0.0173 -0.9406
 6559TIP3    H241093   4.066   3.473   4.248  0.1240 -1.8457 -1.1863
 6560TIP3   OH241094   2.333   3.804  11.235  0.5412 -0.6689 -0.2976
 6560TIP3    H141095   2.397   3.849  11.181  0.9544 -0.2515  0.5240
 6560TIP3    H241096   2.259   3.787  11.176  0.1680  1.5061 -0.5332
 6561TIP3   OH241097   3.561   0.393  16.287  0.5381  0.0628 -0.5010
 6561TIP3    H141098   3.552   0.479  16.329  1.5952  0.7908 -1.6625
 6561TIP3    H241099   3.471   0.365  16.271  0.1528  0.5277  0.7041
 6562TIP3   OH241100   5.600   3.268  13.990  0.2957  0.7168 -0.3020
 6562TIP3    H141101   5.611   3.197  13.926  1.2384 -1.4002  2.0444
 6562TIP3    H241102   5.681   3.319  13.982  1.3635 -0.7721  0.5679
 6563TIP3   OH241103   1.348   0.037   0.502  0.5840  0.1845  0.2340
 6563TIP3    H141104   1.382  -0.044   0.539 -0.5482 -1.3292 -1.8039
 6563TIP3    H241105   1.253   0.023   0.497  0.4836  1.1449 -1.1688
 6564TIP3   OH241106   6.220   5.610   1.025 -0.2568 -0.1812  0.3828
 6564TIP3    H141107   6.235   5.673   1.095 -0.3924 -1.4645  1.6105
 6564TIP3    H241108   6.128   5.621   1.002 -0.7554 -1.0908  1.8113
 6565TIP3   OH241109   2.525   1.426  15.599 -0.4851  0.0228  0.0012
 6565TIP3    H141110   2.486   1.490  15.541 -1.3752  0.4727  1.0687
 6565TIP3    H241111   2.543   1.350  15.543  1.9110  1.6448 -1.5966
 6566TIP3   OH241112   4.645   1.767  11.592  0.0345 -0.3661 -0.3704
 6566TIP3    H141113   4.658   1.814  11.675 -1.0639 -0.2310 -0.2552
 6566TIP3    H241114   4.616   1.679  11.619 -1.3013 -0.0175 -0.5936
 6567TIP3   OH241115   5.006   1.528  12.742 -0.2086 -0.1034  0.0041
 6567TIP3    H141116   5.046   1.615  12.745  1.7913 -0.8508 -2.1636
 6567TIP3    H241117   5.070   1.471  12.784 -1.1560 -0.6829  0.7009
 6568TIP3   OH241118   3.637   6.006   1.052 -0.2514  0.3445  0.2626
 6568TIP3    H141119   3.629   6.070   1.122 -0.5563 -0.2563  0.7824
 6568TIP3    H241120   3.549   6.000   1.014 -0.3963 -0.2584  0.6661
 6569TIP3   OH241121   6.016   4.737   0.904  0.2566  0.2384 -0.0388
 6569TIP3    H141122   5.968   4.655   0.893  3.1632 -1.5536 -0.5647
 6569TIP3    H241123   5.948   4.803   0.917 -2.2783 -2.0496 -0.6525
 6570TIP3   OH241124   6.158   4.917  15.527  0.5459  0.6578  0.1401
 6570TIP3    H141125   6.173   4.982  15.459  3.4703  0.6678  0.6654
 6570TIP3    H241126   6.215   4.844  15.504  0.9873  0.3209  2.0691
 6571TIP3   OH241127   0.911   3.847   5.021  0.6659 -0.1599 -0.5809
 6571TIP3    H141128   0.933   3.896   4.942 -1.2201 -1.2019 -1.8426
 6571TIP3    H241129   0.924   3.755   4.997 -1.7408 -0.6327 -0.4048
 6572TIP3   OH241130   4.382   3.350   5.072  0.5949  0.1612  0.1315
 6572TIP3    H141131   4.366   3.308   4.987  5.1675 -2.0338  0.0735
 6572TIP3    H241132   4.398   3.442   5.050 -0.6697  0.1534 -0.9766
 6573TIP3   OH241133   4.256   4.801   2.621  0.3222 -1.2408 -0.0846
 6573TIP3    H141134   4.337   4.850   2.607  0.3333 -0.6725  1.7315
 6573TIP3    H241135   4.282   4.727   2.676 -0.4557 -0.7327  1.0047
 6574TIP3   OH241136   4.489   0.046   4.915  0.4208 -0.3661  0.4900
 6574TIP3    H141137   4.465   0.059   5.007 -1.5986 -1.4776  0.1696
 6574TIP3    H241138   4.547  -0.031   4.916  1.1565  0.1808  0.9029
 6575TIP3   OH241139   0.923   1.055   3.959  0.9160  0.7142 -0.1250
 6575TIP3    H141140   0.873   1.096   4.030  2.0082  1.0810  0.4450
 6575TIP3    H241141   0.868   1.067   3.881 -0.5675 -0.2103  0.7398
 6576TIP3   OH241142   1.408   4.594   2.181 -0.0491  0.5758  0.2020
 6576TIP3    H141143   1.467   4.568   2.111  2.1191  3.5323  0.7675
 6576TIP3    H241144   1.464   4.608   2.257 -1.2714  4.0767  0.6260
 6577TIP3   OH241145   0.016   2.360  15.472 -0.3804  0.1421  0.0674
 6577TIP3    H141146  -0.049   2.357  15.403  0.4175 -0.1821 -0.6825
 6577TIP3    H241147   0.023   2.270  15.503 -0.9021  0.3253  0.7366
 6578TIP3   OH241148   2.304   2.635  15.519 -0.1056 -0.2804  0.4214
 6578TIP3    H141149   2.279   2.630  15.611  0.8608 -0.9489  0.6538
 6578TIP3    H241150   2.379   2.693  15.516  0.2955 -0.8024  0.1482
 6579TIP3   OH241151   3.398   0.652   1.645 -0.1221 -0.1332  0.8977
 6579TIP3    H141152   3.348   0.631   1.724  1.6017 -1.7501  1.6387
 6579TIP3    H241153   3.472   0.704   1.676  0.3461 -0.4252  0.2987
 6580TIP3   OH241154   5.093   3.099   5.228  0.1399  0.3781 -0.3010
 6580TIP3    H141155   5.020   3.160   5.220  0.6976  1.1805  0.4991
 6580TIP3    H241156   5.077   3.053   5.310  1.1547  1.4613  0.5489
 6581TIP3   OH241157   4.935   0.140   5.285 -0.3638  0.0796  0.0598
 6581TIP3    H141158   5.016   0.095   5.308  0.4218  1.4837  0.1755
 6581TIP3    H241159   4.910   0.186   5.365  1.3988  3.5171 -1.1214
 6582TIP3   OH241160   3.616   4.670   6.077 -0.5216 -0.5677  0.2623
 6582TIP3    H141161   3.599   4.579   6.097 -1.0115 -0.2966  1.1125
 6582TIP3    H241162   3.555   4.691   6.006  1.0370 -1.4513 -1.4318
 6583TIP3   OH241163   0.365   4.995   3.430  0.6580 -0.0191 -0.2402
 6583TIP3    H141164   0.403   4.915   3.393 -0.5560 -0.6143 -0.2593
 6583TIP3    H241165   0.402   5.065   3.377  1.6056 -0.5835 -0.3440
 6584TIP3   OH241166   2.885   1.248  14.959  0.1290  0.4485 -0.6730
 6584TIP3    H141167   2.901   1.207  15.044  0.0116  1.0819 -0.3447
 6584TIP3    H241168   2.966   1.232  14.910  0.1688  0.0143 -0.4750
 6585TIP3   OH241169   2.470   1.622   3.756 -0.7021  0.1911 -0.2378
 6585TIP3    H141170   2.502   1.677   3.685  1.3782  0.1333  0.5803
 6585TIP3    H241171   2.410   1.679   3.805 -0.0673  1.1238 -0.5166
 6586TIP3   OH241172   3.199   3.478   6.220 -0.3536  0.8441 -0.1477
 6586TIP3    H141173   3.260   3.456   6.150 -1.6412 -0.1017 -1.0083
 6586TIP3    H241174   3.245   3.453   6.300  0.6716  0.8457 -0.7151
 6587TIP3   OH241175   2.150   5.097  10.907  0.3056  0.2050 -0.2154
 6587TIP3    H141176   2.172   5.050  10.988 -0.2846  2.5694  1.4068
 6587TIP3    H241177   2.231   5.140  10.882 -0.3075  2.2738  1.1414
 6588TIP3   OH241178   0.645   6.439  10.558  0.2669 -0.4905  0.3201
 6588TIP3    H141179   0.669   6.360  10.509 -1.0910 -1.4994  1.2078
 6588TIP3    H241180   0.549   6.435  10.564  0.0216  1.9711 -0.8111
 6589TIP3   OH241181   4.708   1.230   0.590  0.1660 -0.2846 -0.5596
 6589TIP3    H141182   4.763   1.212   0.513  1.1526  2.0275 -0.4872
 6589TIP3    H241183   4.771   1.241   0.661 -0.6456 -0.8396  0.2568
 6590TIP3   OH241184   0.693   2.243  14.737  0.1010 -0.6508 -0.0606
 6590TIP3    H141185   0.772   2.296  14.752  0.9090 -1.5644 -0.9268
 6590TIP3    H241186   0.707   2.165  14.790 -1.1046 -0.0053  1.2432
 6591TIP3   OH241187   2.333   6.632   4.906  0.3399  0.2607  0.0102
 6591TIP3    H141188   2.357   6.546   4.939  1.2576  0.2907 -0.5471
 6591TIP3    H241189   2.346   6.626   4.811 -1.0230  0.5555 -0.2136
 6592TIP3   OH241190   3.850   4.442  14.788 -0.1759 -0.1117 -0.1360
 6592TIP3    H141191   3.886   4.410  14.871  0.4307 -1.3734 -0.8467
 6592TIP3    H241192   3.852   4.537  14.796 -2.2692 -0.1596  2.1907
 6593TIP3   OH241193   3.572   2.788  13.424 -0.1157  0.5876 -0.3911
 6593TIP3    H141194   3.617   2.785  13.508 -1.7669  3.1735  0.7224
 6593TIP3    H241195   3.574   2.880  13.399 -0.2829 -0.0218 -2.8795
 6594TIP3   OH241196   0.213   6.169  12.073 -0.2310  0.4515 -0.2315
 6594TIP3    H141197   0.283   6.140  12.015  0.2927  1.2929 -0.0168
 6594TIP3    H241198   0.237   6.134  12.159 -1.0732 -0.9076 -0.5145
 6595TIP3   OH241199   4.477   2.710  10.870  0.7800 -0.4987  0.0065
 6595TIP3    H141200   4.518   2.728  10.785 -0.5909  0.7702 -0.4167
 6595TIP3    H241201   4.455   2.617  10.866  1.8980 -0.7628 -0.4897
 6596TIP3   OH241202   3.767   0.357  14.254  0.3080  1.0230 -0.8497
 6596TIP3    H141203   3.802   0.421  14.192 -1.0213  0.9674 -1.7081
 6596TIP3    H241204   3.738   0.284  14.198 -1.7825  1.3690 -0.2740
 6597TIP3   OH241205   1.286   0.951   1.131 -0.4546  0.4927  0.1678
 6597TIP3    H141206   1.317   1.025   1.183  0.6123  0.4173 -0.3339
 6597TIP3    H241207   1.219   0.911   1.186 -0.4859  1.3508  0.7960
 6598TIP3   OH241208   5.518   5.034  16.346  0.2439  0.0412 -0.2325
 6598TIP3    H141209   5.425   5.011  16.349  0.6400 -1.6994 -0.0867
 6598TIP3    H241210   5.557   4.967  16.290  1.5100  0.4018  0.1843
 6599TIP3   OH241211   3.858   3.624   4.336  0.4354  0.1189 -0.2593
 6599TIP3    H141212   3.843   3.576   4.418  0.6543  0.6443  0.0971
 6599TIP3    H241213   3.792   3.591   4.276 -0.5385  0.6170  0.5198
 6600TIP3   OH241214   6.201   1.118   3.216 -0.1511  0.0915  0.1831
 6600TIP3    H141215   6.166   1.197   3.176  0.4833  0.7171  0.8381
 6600TIP3    H241216   6.232   1.066   3.142 -0.5752  0.4523 -0.2534
 6601TIP3   OH241217   4.669   0.593   2.227  0.3220 -0.6113 -0.0432
 6601TIP3    H141218   4.634   0.612   2.140  0.0896  0.6140  0.3057
 6601TIP3    H241219   4.727   0.518   2.213 -0.8540 -1.3731 -0.9833
 6602TIP3   OH241220   5.529   4.681   2.041  0.2685  0.0605 -0.1318
 6602TIP3    H141221   5.490   4.698   1.956  0.8026 -1.1295 -0.6385
 6602TIP3    H241222   5.478   4.609   2.077 -0.2539  0.8650  0.7755
 6603TIP3   OH241223   3.013   1.341   1.568 -0.0491  0.0309  0.7331
 6603TIP3    H141224   3.031   1.375   1.655  0.4422  0.7481  0.3673
 6603TIP3    H241225   3.095   1.354   1.520  0.2199 -1.8631  0.6191
 6604TIP3   OH241226   4.483   3.581   3.246 -0.4502 -0.3856  0.4277
 6604TIP3    H141227   4.498   3.515   3.178  0.8911 -0.6228  0.9256
 6604TIP3    H241228   4.485   3.531   3.328 -2.6162 -0.1990  0.6749
 6605TIP3   OH241229   1.851   5.862  11.896  0.7932 -0.2640 -0.1009
 6605TIP3    H141230   1.874   5.834  11.807 -0.1874  1.1330 -0.8483
 6605TIP3    H241231   1.761   5.830  11.908  0.0623  1.4613 -0.5527
 6606TIP3   OH241232   3.279   1.341   2.790 -0.3838  0.5572  0.0784
 6606TIP3    H141233   3.345   1.368   2.727 -0.8700 -0.0104 -0.6970
 6606TIP3    H241234   3.205   1.312   2.737 -0.6229 -0.3983  0.8910
 6607TIP3   OH241235   3.049   4.650  14.508  0.1859 -0.2496 -0.1588
 6607TIP3    H141236   3.135   4.630  14.471  0.1863 -0.0454 -0.2700
 6607TIP3    H241237   3.063   4.732  14.557 -0.8330  2.1809 -3.5500
 6608TIP3   OH241238   6.229   0.264  10.993  0.0742 -0.0644 -0.4248
 6608TIP3    H141239   6.316   0.302  10.984 -1.0267  2.3019 -2.0739
 6608TIP3    H241240   6.228   0.227  11.082  2.0826  1.6569  0.3870
 6609TIP3   OH241241   2.247   2.173  15.037 -0.3959  0.1970  0.0344
 6609TIP3    H141242   2.260   2.149  15.129  1.2434  1.3453  0.1495
 6609TIP3    H241243   2.152   2.182  15.027 -0.5479  0.8209  1.8076
 6610TIP3   OH241244   0.993   5.759   0.035 -0.0110 -0.0056 -0.4588
 6610TIP3    H141245   0.983   5.749   0.130  0.6800  0.2412 -0.3605
 6610TIP3    H241246   1.032   5.845   0.023  0.0762 -0.1111 -0.9580
 6611TIP3   OH241247   2.938   0.426   0.313 -0.2520 -0.1586 -0.6359
 6611TIP3    H141248   2.911   0.446   0.224 -0.7480  0.9418 -0.2506
 6611TIP3    H241249   2.996   0.350   0.304 -0.8139 -0.4660 -1.8182
 6612TIP3   OH241250   2.231   3.360   4.379 -0.0326 -0.2487  0.4255
 6612TIP3    H141251   2.177   3.285   4.356  1.0813 -0.8257 -0.3902
 6612TIP3    H241252   2.273   3.386   4.297  0.8979  0.1976  1.0156
 6613TIP3   OH241253   4.128   4.435   1.446  0.0856 -0.6885  0.3093
 6613TIP3    H141254   4.200   4.498   1.439  0.2176 -0.8890 -0.1922
 6613TIP3    H241255   4.169   4.357   1.484  0.4780 -1.3042 -1.2671
 6614TIP3   OH241256   3.680   4.419  16.250  0.4755  0.1219 -0.0670
 6614TIP3    H141257   3.715   4.448  16.335  1.2463 -0.5421 -0.1466
 6614TIP3    H241258   3.586   4.414  16.264  0.3890  1.7663  0.2158
 6615TIP3   OH241259   4.625   6.232  13.191 -0.0252  0.0189 -0.0183
 6615TIP3    H141260   4.579   6.316  13.187  1.2336  0.9324  2.3574
 6615TIP3    H241261   4.718   6.256  13.196  0.3552 -1.4811  0.8993
 6616TIP3   OH241262   5.516   5.988  10.463 -0.4997 -0.0205  0.0131
 6616TIP3    H141263   5.492   6.005  10.554  3.1610  1.0777  0.9497
 6616TIP3    H241264   5.531   6.075  10.426  0.8886 -0.5331 -0.7139
 6617TIP3   OH241265   1.053   0.706  11.301  0.3620 -0.3355  0.0933
 6617TIP3    H141266   1.013   0.729  11.217 -2.6871  0.5938  1.6757
 6617TIP3    H241267   1.086   0.789  11.336 -1.8289  0.0503  1.4269
 6618TIP3   OH241268   6.053   5.675  16.839 -0.1406 -0.1619 -0.4302
 6618TIP3    H141269   6.013   5.729  16.907  0.6853  0.4138 -0.3771
 6618TIP3    H241270   6.002   5.595  16.838 -0.0823 -0.2348  0.9714
 6619TIP3   OH241271   4.479   4.786   4.298  0.4458  0.2329  0.1487
 6619TIP3    H141272   4.477   4.739   4.215 -0.1673  1.2127 -0.4052
 6619TIP3    H241273   4.395   4.766   4.339  0.1178  0.9488 -0.1588
 6620TIP3   OH241274   3.380   6.114  14.383  0.3112 -0.2632  0.2388
 6620TIP3    H141275   3.386   6.033  14.332 -0.5496 -0.7805  0.9309
 6620TIP3    H241276   3.389   6.184  14.318  2.9946 -0.8620 -0.1545
 6621TIP3   OH241277   3.871   4.885   1.832  0.2595 -0.2857  0.3656
 6621TIP3    H141278   3.944   4.940   1.803  0.6896  1.4747  4.1395
 6621TIP3    H241279   3.798   4.947   1.843 -0.7377 -1.3781  0.1062
 6622TIP3   OH241280   1.021   2.514   5.035  0.6158 -0.1078  0.0308
 6622TIP3    H141281   1.045   2.544   5.122  1.4081 -1.2010  0.1992
 6622TIP3    H241282   1.102   2.514   4.985  0.2787 -0.0910 -0.5345
 6623TIP3   OH241283   2.388   4.975   1.324  0.5961  0.1874 -0.1148
 6623TIP3    H141284   2.296   4.963   1.302  0.6827 -2.1992  0.5846
 6623TIP3    H241285   2.388   5.038   1.397 -0.8475 -2.3793  2.2733
 6624TIP3   OH241286   2.065   0.644  15.354 -0.0684  0.1418  0.5734
 6624TIP3    H141287   2.103   0.594  15.426  0.5023 -1.2188 -0.6014
 6624TIP3    H241288   1.980   0.674  15.387 -0.2275 -1.2372  1.5032
 6625TIP3   OH241289   0.729   5.340  17.047 -0.5152  0.4727 -0.1056
 6625TIP3    H141290   0.782   5.267  17.079  0.7679  0.6223 -1.7598
 6625TIP3    H241291   0.724   5.401  17.121 -1.6712 -1.2650  1.3272
 6626TIP3   OH241292   4.540   1.586   5.814 -0.5412  0.6750  0.5381
 6626TIP3    H141293   4.631   1.593   5.843 -0.2174  2.2055 -0.7267
 6626TIP3    H241294   4.545   1.543   5.729 -0.8317  1.9709 -0.1626
 6627TIP3   OH241295   3.750   6.042  14.900  0.6386 -0.5565 -0.6086
 6627TIP3    H141296   3.670   6.012  14.943  1.3917 -0.0889  1.1787
 6627TIP3    H241297   3.774   5.969  14.843 -0.6333 -1.0070 -0.6126
 6628TIP3   OH241298   4.635   5.893   3.943 -0.6463  0.0847  0.3676
 6628TIP3    H141299   4.644   5.963   3.879 -3.0570 -0.5107 -0.7471
 6628TIP3    H241300   4.687   5.821   3.908 -2.5072 -0.4837 -1.4060
 6629TIP3   OH241301   5.770   3.002   3.701  0.2055 -0.5050  0.0605
 6629TIP3    H141302   5.772   3.004   3.606 -0.7430  0.2926  0.0332
 6629TIP3    H241303   5.741   2.914   3.723 -0.2505 -0.4769 -0.4167
 6630TIP3   OH241304   6.720   1.809  12.791 -0.7044  0.1985 -0.4583
 6630TIP3    H141305   6.655   1.741  12.807 -1.3883  1.0110  0.2667
 6630TIP3    H241306   6.670   1.890  12.785 -0.1646  0.4559 -3.4017
 6631TIP3   OH241307   2.547   6.533  12.489  0.1397  0.4008 -0.0280
 6631TIP3    H141308   2.589   6.475  12.426  0.1706  0.7640 -0.3396
 6631TIP3    H241309   2.570   6.495  12.574 -0.4450 -0.4644 -0.2399
 6632TIP3   OH241310   0.145   5.496   0.821  0.3406 -0.5256  0.1263
 6632TIP3    H141311   0.078   5.541   0.871  0.9728  0.9976 -0.3383
 6632TIP3    H241312   0.096   5.447   0.754 -0.3277  0.6920 -0.3128
 6633TIP3   OH241313   5.190   4.953  14.257 -0.2695  0.0963 -0.4809
 6633TIP3    H141314   5.119   5.014  14.237 -0.7237  0.4990  2.0524
 6633TIP3    H241315   5.265   5.009  14.276 -0.6486 -0.0195  1.7043
 6634TIP3   OH241316   1.801   5.720  17.050 -0.1188  0.0684 -0.2730
 6634TIP3    H141317   1.784   5.742  17.142  1.9648  0.9100 -0.0379
 6634TIP3    H241318   1.753   5.638  17.036  1.1320 -1.2069  2.1958
 6635TIP3   OH241319   5.217   5.104  13.501  0.0957 -0.3387 -0.2891
 6635TIP3    H141320   5.303   5.065  13.516 -1.3590 -3.3387  1.0983
 6635TIP3    H241321   5.216   5.182  13.556  1.7405 -0.4782 -0.0060
 6636TIP3   OH241322   0.094   5.821   4.546 -0.5968  0.0961 -0.8166
 6636TIP3    H141323   0.173   5.874   4.558  0.1966 -1.3469  0.7659
 6636TIP3    H241324   0.097   5.795   4.455  0.6078  0.3252 -0.8685
 6637TIP3   OH241325   4.225   2.138  17.167  0.5858 -0.0318  0.3284
 6637TIP3    H141326   4.311   2.164  17.136  0.9405 -0.5345  0.8635
 6637TIP3    H241327   4.170   2.215  17.152  1.1073  0.2761 -0.0662
 6638TIP3   OH241328   5.726   2.627   4.236 -0.4970 -0.0336 -0.3985
 6638TIP3    H141329   5.782   2.555   4.207 -1.1704 -1.1311  0.9611
 6638TIP3    H241330   5.758   2.649   4.323 -2.2475 -0.7870  0.4708
 6639TIP3   OH241331   6.660   3.923   0.875  0.2414 -0.0190  0.1295
 6639TIP3    H141332   6.579   3.961   0.842 -0.2009 -0.7436  0.3683
 6639TIP3    H241333   6.650   3.829   0.862  0.4851 -0.2358  1.3756
 6640TIP3   OH241334   3.897   0.181  10.773 -0.2656 -0.4379  0.5679
 6640TIP3    H141335   3.873   0.251  10.834  2.3182  0.4915  0.6315
 6640TIP3    H241336   3.902   0.224  10.688  1.7379 -0.3439  0.6698
 6641TIP3   OH241337   6.582   0.219  15.921  0.1189  0.3432 -0.1941
 6641TIP3    H141338   6.590   0.203  16.016 -1.5280  1.3405  0.1474
 6641TIP3    H241339   6.672   0.231  15.892  0.6675  0.0134  1.2456
 6642TIP3   OH241340   3.511   2.789   1.665  0.3086 -0.3635 -0.0531
 6642TIP3    H141341   3.508   2.884   1.651 -1.6450 -0.6080 -1.9218
 6642TIP3    H241342   3.557   2.755   1.589 -0.5179 -0.9957 -0.2926
 6643TIP3   OH241343   5.782   5.619   2.180  0.2878  0.4520 -0.7835
 6643TIP3    H141344   5.838   5.637   2.104 -3.3807 -0.0282 -3.9489
 6643TIP3    H241345   5.732   5.700   2.191  0.3385  0.2924  0.8398
 6644TIP3   OH241346   5.540   2.239   3.260  0.4925 -0.0951 -0.8187
 6644TIP3    H141347   5.482   2.186   3.205 -0.7898  0.8608 -0.4272
 6644TIP3    H241348   5.571   2.308   3.202 -0.8704  0.9208 -0.3822
 6645TIP3   OH241349   3.148   3.671  14.315 -0.2945 -0.2587 -0.0609
 6645TIP3    H141350   3.185   3.703  14.233 -1.5277  0.4731 -0.3699
 6645TIP3    H241351   3.110   3.748  14.356 -1.5634 -0.9560  0.1523
 6646TIP3   OH241352   5.330   0.230   0.855 -0.1418 -0.9313  0.1999
 6646TIP3    H141353   5.321   0.250   0.762  0.2938  2.0731  0.7141
 6646TIP3    H241354   5.391   0.156   0.858 -1.0584 -1.8562 -1.8909
 6647TIP3   OH241355   5.992   2.759  12.859  0.4440 -0.2412 -0.2956
 6647TIP3    H141356   5.977   2.821  12.931 -1.0950  0.3429 -1.0691
 6647TIP3    H241357   6.083   2.773  12.834  0.2057  1.5678 -0.2748
 6648TIP3   OH241358   5.138   5.318  11.343 -0.1339 -0.1724 -0.0111
 6648TIP3    H141359   5.043   5.322  11.344 -0.1506 -0.0408 -1.3694
 6648TIP3    H241360   5.163   5.321  11.436 -1.3231  3.3443  0.3619
 6649TIP3   OH241361   4.587   1.260  16.899  0.3004  0.0334  0.5623
 6649TIP3    H141362   4.514   1.200  16.884  0.1849 -0.1943  1.9285
 6649TIP3    H241363   4.639   1.255  16.819 -0.4087 -0.8872  0.1400
 6650TIP3   OH241364   1.187   2.898   5.969  0.3104 -0.1232  0.3304
 6650TIP3    H141365   1.151   2.900   5.880  0.2139  1.1086  0.3785
 6650TIP3    H241366   1.239   2.978   5.975  1.8348 -1.1110  0.7777
 6651TIP3   OH241367   6.269   5.891   0.842 -0.0517 -0.4303 -0.3901
 6651TIP3    H141368   6.342   5.922   0.895 -0.2609  0.8817 -0.8490
 6651TIP3    H241369   6.209   5.965   0.837 -1.4765 -1.5066  0.0609
 6652TIP3   OH241370   2.760   3.624   2.926 -0.3222  0.0560 -0.4884
 6652TIP3    H141371   2.727   3.540   2.959  0.5534 -0.8861 -1.8776
 6652TIP3    H241372   2.740   3.622   2.833  0.0963  1.2183 -0.6170
 6653TIP3   OH241373   6.319   4.052  17.120  0.1118 -0.0613  0.5014
 6653TIP3    H141374   6.264   4.128  17.137 -1.5784 -0.7763 -1.2765
 6653TIP3    H241375   6.389   4.084  17.063  1.0756  0.6734  2.0389
 6654TIP3   OH241376   6.514   0.369  16.288  0.5777  0.2149  0.7982
 6654TIP3    H141377   6.437   0.375  16.343  0.5041  3.1822  0.5390
 6654TIP3    H241378   6.495   0.298  16.227 -2.2544  1.2557  0.3418
 6655TIP3   OH241379   6.033   2.056   0.791 -0.8496 -0.3890  0.3270
 6655TIP3    H141380   6.035   1.970   0.750  0.3235 -0.8102  1.1852
 6655TIP3    H241381   5.950   2.095   0.764 -0.1854 -0.6514 -2.3352
 6656TIP3   OH241382   1.881   6.201   3.081  0.0057 -0.2637 -0.3300
 6656TIP3    H141383   1.870   6.167   2.992 -0.2614  0.8324 -0.7339
 6656TIP3    H241384   1.840   6.287   3.079  0.0353 -0.2037  0.8539
 6657TIP3   OH241385   0.215   2.870   2.435 -0.1650 -0.3767  0.4049
 6657TIP3    H141386   0.303   2.831   2.437  0.4534  0.8346  4.0873
 6657TIP3    H241387   0.164   2.817   2.497 -1.4477  0.2321 -0.0961
 6658TIP3   OH241388   2.735   0.710   3.445 -0.4015  0.2539  0.3699
 6658TIP3    H141389   2.643   0.719   3.420 -0.2464  1.4218  0.1664
 6658TIP3    H241390   2.738   0.739   3.536 -0.3048 -0.2526  0.5342
 6659TIP3   OH241391   1.131   3.133   2.158 -0.1801  0.2924  0.3297
 6659TIP3    H141392   1.217   3.100   2.181  0.6441  2.5861  0.8440
 6659TIP3    H241393   1.125   3.218   2.203 -2.2155  0.7476 -0.6637
 6660TIP3   OH241394   3.945   5.186  16.032 -0.0049 -0.1161 -0.3237
 6660TIP3    H141395   4.013   5.224  15.976 -0.6095  0.3445 -0.7657
 6660TIP3    H241396   3.864   5.229  16.003 -0.5204 -0.8431  0.0170
 6661TIP3   OH241397   3.579   1.462   0.709  0.2609 -0.5089  0.2907
 6661TIP3    H141398   3.539   1.526   0.767  1.5794  1.5968 -0.9984
 6661TIP3    H241399   3.616   1.514   0.638  2.3324 -2.6123 -0.2881
 6662TIP3   OH241400   6.787   4.442  15.114 -0.1494  0.1192  0.0120
 6662TIP3    H141401   6.715   4.500  15.139 -0.1416 -0.2775  1.0219
 6662TIP3    H241402   6.744   4.363  15.083 -0.1774 -0.3885  1.2749
 6663TIP3   OH241403   4.123   5.571  14.157 -0.0383 -0.1099  0.6889
 6663TIP3    H141404   4.069   5.631  14.106  0.3954  1.0589  1.5711
 6663TIP3    H241405   4.205   5.565  14.108  0.0541  0.3204  0.7868
 6664TIP3   OH241406   2.910   1.009  15.153 -0.7984  0.1603  0.3567
 6664TIP3    H141407   2.826   0.964  15.149 -0.7480  0.1304 -0.7928
 6664TIP3    H241408   2.974   0.945  15.120 -0.0599 -0.3357  2.5785
 6665TIP3   OH241409   3.425   3.452   0.518  1.1733  0.3274 -0.2292
 6665TIP3    H141410   3.358   3.397   0.558 -0.9589  1.5270 -1.8692
 6665TIP3    H241411   3.443   3.411   0.434  0.9719  1.0776 -0.6538
 6666TIP3   OH241412   4.526   0.604   1.984  0.7991 -0.3195 -0.1523
 6666TIP3    H141413   4.576   0.544   1.928  0.0468 -2.0250  0.9337
 6666TIP3    H241414   4.551   0.691   1.953  1.7203 -1.1693 -1.9811
 6667TIP3   OH241415   4.665   3.244  14.926  0.3306  0.4070 -0.4337
 6667TIP3    H141416   4.703   3.268  14.841 -0.0739  3.0245  0.0392
 6667TIP3    H241417   4.727   3.279  14.990 -0.1601 -0.1324  0.3498
 6668TIP3   OH241418   0.250   1.185   6.329  0.0685 -0.3196  0.0116
 6668TIP3    H141419   0.169   1.236   6.340 -0.4107 -1.3746  1.7701
 6668TIP3    H241420   0.311   1.225   6.392  0.0859 -1.1183  0.5091
 6669TIP3   OH241421   0.968   3.938  15.230 -0.0208  0.3088 -0.1301
 6669TIP3    H141422   1.027   3.901  15.164  0.7528 -0.5550  1.0022
 6669TIP3    H241423   0.923   4.009  15.185 -0.5185 -1.1048 -1.9711
 6670TIP3   OH241424   1.935   6.682  11.620 -0.3412  0.5451  0.1131
 6670TIP3    H141425   1.857   6.737  11.610 -0.9766 -0.3558 -0.0340
 6670TIP3    H241426   1.952   6.681  11.715 -1.7998 -0.9522  0.4027
 6671TIP3   OH241427   4.406   4.724   4.782  0.3716  0.4031 -0.4397
 6671TIP3    H141428   4.479   4.721   4.844 -0.1979  0.1943  0.2333
 6671TIP3    H241429   4.423   4.801   4.728  0.8184  0.6488  0.0478
 6672TIP3   OH241430   0.124   4.273  16.363  0.0354 -0.2288  0.3403
 6672TIP3    H141431   0.121   4.271  16.268 -2.3282 -1.0495  0.3834
 6672TIP3    H241432   0.191   4.208  16.386 -0.6785 -1.4002 -0.7498
 6673TIP3   OH241433   4.389   0.543   4.703  0.0950 -0.1242  0.2365
 6673TIP3    H141434   4.333   0.485   4.753  0.9772 -1.0911  0.1326
 6673TIP3    H241435   4.434   0.486   4.641  0.1962  0.8233 -0.6002
 6674TIP3   OH241436   3.873   3.277  13.987 -0.6767  0.3359  0.3509
 6674TIP3    H141437   3.872   3.335  14.063 -1.8104  0.1797  0.4750
 6674TIP3    H241438   3.936   3.317  13.928  0.2891  0.4111  1.3977
 6675TIP3   OH241439   0.542   5.602  13.118  0.3827 -0.0476 -0.2186
 6675TIP3    H141440   0.517   5.670  13.181  2.8295 -0.1867  1.0584
 6675TIP3    H241441   0.488   5.526  13.141  0.5224  0.2240  1.0912
 6676TIP3   OH241442   6.331   4.386  13.202  0.1216 -0.1879  0.8475
 6676TIP3    H141443   6.411   4.335  13.212  1.4253  0.7663 -2.9664
 6676TIP3    H241444   6.294   4.357  13.119 -2.1474  1.1872  1.2820
 6677TIP3   OH241445   3.900   2.940  14.437  0.1001  0.2747  0.1134
 6677TIP3    H141446   3.885   2.939  14.531 -0.1270  1.2684  0.0976
 6677TIP3    H241447   3.851   3.016  14.405  2.6259  1.8035 -0.3853
 6678TIP3   OH241448   3.773   1.562   0.161  0.0518 -0.1191  0.3029
 6678TIP3    H141449   3.868   1.552   0.160  0.0064 -0.8217 -1.5316
 6678TIP3    H241450   3.757   1.640   0.108 -0.3937 -0.1769  0.3495
 6679TIP3   OH241451   0.884   2.608  16.172 -0.0355  0.6432 -0.2036
 6679TIP3    H141452   0.955   2.621  16.235  0.9172  0.7175 -1.2429
 6679TIP3    H241453   0.909   2.529  16.124 -0.5030  0.8463 -0.7919
 6680TIP3   OH241454   5.416   5.378   0.308  0.6232 -0.1133 -0.2494
 6680TIP3    H141455   5.351   5.311   0.333  1.6937 -0.4606  1.7922
 6680TIP3    H241456   5.463   5.339   0.235 -1.4422  0.1701 -1.8381
 6681TIP3   OH241457   0.620   1.298  16.134  0.6162  0.3656 -0.0086
 6681TIP3    H141458   0.608   1.376  16.080  0.7726  0.9971  0.8500
 6681TIP3    H241459   0.710   1.304  16.166  0.6783 -0.2441 -0.0541
 6682TIP3   OH241460   5.705   6.110   3.149  0.1474  0.0956 -0.2558
 6682TIP3    H141461   5.621   6.149   3.126  0.4443  1.1367  0.3571
 6682TIP3    H241462   5.768   6.182   3.140  1.0790 -0.8014 -1.2742
 6683TIP3   OH241463   2.469   3.823   0.249 -0.4760 -0.1808 -0.1781
 6683TIP3    H141464   2.548   3.796   0.295 -1.8301 -1.2726  1.6489
 6683TIP3    H241465   2.464   3.765   0.173 -0.5774 -1.5730  0.8450
 6684TIP3   OH241466   5.763   4.533   6.402 -0.2592  0.2154  0.0861
 6684TIP3    H141467   5.689   4.565   6.349 -0.7132  1.1128  1.2196
 6684TIP3    H241468   5.746   4.439   6.413 -0.3394  0.0879 -1.0533
 6685TIP3   OH241469   0.978   1.923  17.118  0.4222 -0.1813  0.5511
 6685TIP3    H141470   1.034   1.998  17.137  0.6091 -0.3178  0.5391
 6685TIP3    H241471   0.905   1.932  17.179  0.2328  0.2363  0.2699
 6686TIP3   OH241472   6.580   2.362  14.037 -0.2912 -0.0018  1.1607
 6686TIP3    H141473   6.570   2.452  14.008  1.6490  0.0809  0.5915
 6686TIP3    H241474   6.622   2.317  13.964  4.9187  0.2526  3.4788
 6687TIP3   OH241475   5.837   0.761  12.286  0.1282  0.2778 -0.2188
 6687TIP3    H141476   5.853   0.852  12.311 -1.8565  0.5711  0.1626
 6687TIP3    H241477   5.887   0.709  12.349  0.8183  1.0896 -0.0865
 6688TIP3   OH241478   4.479   0.167   4.587 -0.2465  0.2728 -0.6919
 6688TIP3    H141479   4.388   0.144   4.609 -0.8417  0.7125 -2.5031
 6688TIP3    H241480   4.474   0.199   4.497  1.5954  1.1346 -0.5214
 6689TIP3   OH241481   1.218   2.307   0.790  0.0752 -0.2336 -0.5989
 6689TIP3    H141482   1.144   2.281   0.846 -0.3253 -0.7056 -1.3286
 6689TIP3    H241483   1.245   2.225   0.748  0.0146  0.2035 -1.5065
 6690TIP3   OH241484   0.395   0.514   1.459  0.9749  0.3330  0.1181
 6690TIP3    H141485   0.358   0.571   1.527  2.2273  0.8421  0.3971
 6690TIP3    H241486   0.465   0.566   1.420  0.6755 -0.1910 -1.1529
 6691TIP3   OH241487   0.150   2.518   6.448 -0.3154 -0.3885 -0.4632
 6691TIP3    H141488   0.100   2.599   6.463 -1.1567 -0.9549 -0.1187
 6691TIP3    H241489   0.083   2.450   6.442  0.3419 -0.9736 -1.4428
 6692TIP3   OH241490   0.374   6.693  13.691  0.0343  0.0879 -0.7049
 6692TIP3    H141491   0.292   6.702  13.740  0.5287  0.1798  0.1273
 6692TIP3    H241492   0.378   6.772  13.637 -1.2010 -0.6795 -1.9810
 6693TIP3   OH241493   3.188   6.192  14.611  0.0211 -0.1457 -0.2299
 6693TIP3    H141494   3.245   6.149  14.546  0.3276  0.3048 -0.2638
 6693TIP3    H241495   3.100   6.183  14.576  0.1747  0.0083 -0.6645
 6694TIP3   OH241496   5.004   2.925   2.883  0.0337 -0.2446 -0.5814
 6694TIP3    H141497   4.995   2.869   2.960 -1.9319 -1.7729 -1.8019
 6694TIP3    H241498   5.061   2.875   2.824  0.7733  0.4795 -0.4884
 6695TIP3   OH241499   4.348   0.298   3.164 -0.3263  0.3205 -0.3042
 6695TIP3    H141500   4.434   0.266   3.190 -0.5922 -1.0191 -0.9776
 6695TIP3    H241501   4.364   0.385   3.127  0.5493  0.6245  0.7552
 6696TIP3   OH241502   5.117   1.811   4.987  0.0020  0.3307  0.0047
 6696TIP3    H141503   5.181   1.753   5.029 -0.4715  0.3362  0.7364
 6696TIP3    H241504   5.060   1.752   4.937 -1.0078  0.0617  1.4330
 6697TIP3   OH241505   6.570   6.062   3.033 -0.3970  0.2439 -0.0712
 6697TIP3    H141506   6.650   6.113   3.018  0.0015 -0.4615 -0.3885
 6697TIP3    H241507   6.582   5.983   2.981 -2.5273  1.3362 -2.4493
 6698TIP3   OH241508   3.128   5.281  11.139  0.0659  0.2604 -0.2629
 6698TIP3    H141509   3.043   5.308  11.104  0.0822  1.3425  0.4793
 6698TIP3    H241510   3.112   5.195  11.177 -1.8195  2.0720  3.5979
 6699TIP3   OH241511   1.282   6.379  14.781 -0.1466  0.0582 -0.3321
 6699TIP3    H141512   1.196   6.409  14.811  0.3248 -0.2512  1.4785
 6699TIP3    H241513   1.286   6.287  14.810  0.5794 -0.0951 -0.8989
 6700TIP3   OH241514   1.519   5.600   3.303 -0.0257 -0.3453 -0.1069
 6700TIP3    H141515   1.557   5.515   3.281  1.3551  0.3310 -0.4878
 6700TIP3    H241516   1.587   5.643   3.356 -0.3360  0.8377 -0.6451
 6701TIP3   OH241517   6.428   3.939   1.237  0.3893  0.0491 -0.1340
 6701TIP3    H141518   6.376   3.874   1.284  0.6027 -0.2956 -0.3661
 6701TIP3    H241519   6.496   3.965   1.299 -0.8555  1.5431  0.6838
 6702TIP3   OH241520   3.210   3.066   0.872  0.1795 -0.1028  0.7489
 6702TIP3    H141521   3.121   3.030   0.878 -0.1624  0.7383  0.7565
 6702TIP3    H241522   3.267   2.991   0.890 -0.4519 -1.1674 -1.4180
 6703TIP3   OH241523   2.567   4.433  13.209 -0.0675 -0.4576  0.5603
 6703TIP3    H141524   2.584   4.444  13.116  0.1295 -3.4285  0.1686
 6703TIP3    H241525   2.521   4.513  13.234  0.4354  0.7021 -1.9113
 6704TIP3   OH241526   3.306   6.454   6.432  0.0419  0.2421  0.1700
 6704TIP3    H141527   3.293   6.541   6.469 -0.8489 -0.5694  1.8731
 6704TIP3    H241528   3.218   6.417   6.425  0.5391 -1.7136  2.6691
 6705TIP3   OH241529   2.028   3.943   1.541  0.0808 -0.5925 -0.1573
 6705TIP3    H141530   1.988   3.985   1.618 -0.6264  0.0413 -0.8414
 6705TIP3    H241531   2.082   3.873   1.577 -0.7281 -0.7160  0.8871
 6706TIP3   OH241532   0.359   3.032  14.148  0.5350 -0.0917 -0.5954
 6706TIP3    H141533   0.424   2.962  14.145 -0.8667 -1.5383  0.8658
 6706TIP3    H241534   0.369   3.071  14.235  0.2801  0.5049 -0.8277
 6707TIP3   OH241535   3.365   1.273  12.110  0.4077  0.2136  0.1410
 6707TIP3    H141536   3.283   1.302  12.070  0.5660  0.1145 -0.2549
 6707TIP3    H241537   3.338   1.207  12.174  0.1101  0.7225  0.5544
 6708TIP3   OH241538   3.127   0.720   3.728 -0.4493  0.3104 -1.1371
 6708TIP3    H141539   3.213   0.752   3.703 -0.1337  0.8401  0.4864
 6708TIP3    H241540   3.073   0.731   3.649  0.9900 -0.1933 -2.2156
 6709TIP3   OH241541   3.003   2.470   0.139 -0.5232 -0.0054  0.6957
 6709TIP3    H141542   2.965   2.503   0.058 -0.2778 -0.5418  0.3558
 6709TIP3    H241543   2.984   2.538   0.204 -0.9013  0.3337  0.2384
 6710TIP3   OH241544   2.838   3.637   2.070  0.1729  0.0217  0.2387
 6710TIP3    H141545   2.933   3.647   2.073  0.3129 -1.2249  0.9387
 6710TIP3    H241546   2.824   3.556   2.020 -0.6031  0.9521 -1.1114
 6711TIP3   OH241547   0.700   3.217   1.780  0.3107 -0.5094  0.0239
 6711TIP3    H141548   0.697   3.268   1.861 -1.7806 -1.5596  0.6717
 6711TIP3    H241549   0.703   3.282   1.711 -1.3413  0.5135  0.8555
 6712TIP3   OH241550   0.463   4.983   2.099  0.4422 -0.6273 -0.1161
 6712TIP3    H141551   0.446   5.001   2.007  0.1700 -0.1914  0.0162
 6712TIP3    H241552   0.548   4.938   2.100  1.6218  1.4605 -0.3992
 6713TIP3   OH241553   5.714   5.628  15.203  0.4245 -0.2832 -0.1544
 6713TIP3    H141554   5.769   5.707  15.211  1.4074 -0.8244 -1.2774
 6713TIP3    H241555   5.629   5.661  15.173  0.8820  0.3376 -0.8013
 6714TIP3   OH241556   4.602   4.002  14.548  0.1385 -0.1818 -0.5198
 6714TIP3    H141557   4.521   4.013  14.597 -0.8598 -0.9743 -1.9118
 6714TIP3    H241558   4.653   3.938  14.599  1.8432  3.2664  2.5904
 6715TIP3   OH241559   0.675   2.638  13.752 -0.7418  0.0244  0.1979
 6715TIP3    H141560   0.681   2.710  13.690 -2.5812 -0.6092 -0.7983
 6715TIP3    H241561   0.754   2.645  13.805 -0.5902  2.3946 -0.2413
 6716TIP3   OH241562   0.227   6.090  16.117 -0.2058  0.0767 -0.0616
 6716TIP3    H141563   0.200   6.010  16.073  1.6487 -0.9454  0.5643
 6716TIP3    H241564   0.190   6.083  16.205  0.3156 -0.3277  0.1320
 6717TIP3   OH241565   5.389   2.373   5.776  0.2667 -0.5334  0.5826
 6717TIP3    H141566   5.378   2.453   5.724  0.4278  0.3805  1.8988
 6717TIP3    H241567   5.311   2.371   5.832  0.0882 -1.5097  0.3101
 6718TIP3   OH241568   0.779   1.193  12.887  0.2230  0.0893  0.0376
 6718TIP3    H141569   0.713   1.141  12.933 -0.7983  0.2750 -1.1662
 6718TIP3    H241570   0.765   1.282  12.920 -0.8552  0.3153 -0.9636
 6719TIP3   OH241571   5.842   5.820  15.494  0.0065  0.1593  0.1416
 6719TIP3    H141572   5.920   5.802  15.441  1.4961 -2.5165  2.8994
 6719TIP3    H241573   5.770   5.783  15.445  1.0613 -0.7696 -0.7618
 6720TIP3   OH241574   0.509   4.524  15.362 -0.0261 -0.8298 -0.5016
 6720TIP3    H141575   0.502   4.487  15.273  0.5680  1.4335 -1.5507
 6720TIP3    H241576   0.419   4.521  15.396 -0.4649 -0.7682 -1.5946
 6721TIP3   OH241577   0.282   4.690  15.023  0.0362 -0.1986 -0.2353
 6721TIP3    H141578   0.269   4.685  15.118 -0.5066 -0.7319 -0.3369
 6721TIP3    H241579   0.309   4.602  14.998 -0.5703 -0.2603 -0.6871
 6722TIP3   OH241580   4.367   1.608  16.208  0.5329  0.2881  0.4833
 6722TIP3    H141581   4.388   1.694  16.245 -0.0697  0.6035  0.1248
 6722TIP3    H241582   4.309   1.568  16.272  0.1882  0.4744  0.2901
 6723TIP3   OH241583   4.322   4.599   4.151  0.3370 -0.3160 -0.5466
 6723TIP3    H141584   4.268   4.659   4.203 -1.1883  0.2754 -2.6784
 6723TIP3    H241585   4.258   4.542   4.107  1.5453 -0.6712 -1.9015
 6724TIP3   OH241586   3.030   6.071  13.792  0.0508  0.3428  0.0953
 6724TIP3    H141587   2.960   6.007  13.777 -0.4176  0.9073 -0.1399
 6724TIP3    H241588   3.098   6.046  13.730 -0.6570  0.8387 -0.9147
 6725TIP3   OH241589   0.340   2.820  12.983  0.5009 -0.1921  0.1870
 6725TIP3    H141590   0.380   2.885  13.042 -1.2520  1.3964 -0.2625
 6725TIP3    H241591   0.278   2.773  13.039 -0.5179  0.7073 -0.1694
 6726TIP3   OH241592   0.119   4.548   2.997  1.0001 -1.0508 -0.2592
 6726TIP3    H141593   0.098   4.635   3.030 -0.4931 -1.0616 -1.0717
 6726TIP3    H241594   0.213   4.550   2.978  0.8887  0.5433 -0.7343
 6727TIP3   OH241595   0.610   1.339   0.083  0.4254 -0.2523  0.1561
 6727TIP3    H141596   0.551   1.408   0.113  0.6113 -0.3049  0.6511
 6727TIP3    H241597   0.608   1.346  -0.012  0.1260  0.1710  0.1908
 6728TIP3   OH241598   4.125   3.295  15.177 -0.6940 -0.1023 -0.1817
 6728TIP3    H141599   4.092   3.227  15.236 -0.8335  1.4019  1.5458
 6728TIP3    H241600   4.141   3.249  15.094 -1.0296 -2.1694  0.8389
 6729TIP3   OH241601   1.859   1.179   0.325 -0.0376  0.5921 -0.2847
 6729TIP3    H141602   1.846   1.274   0.330  1.0882  0.8874 -2.1154
 6729TIP3    H241603   1.824   1.146   0.408  2.3003  2.9151  1.8196
 6730TIP3   OH241604   2.793   2.634   5.991 -0.5828  0.3592 -0.2591
 6730TIP3    H141605   2.759   2.723   5.983 -1.1901  0.2861  1.2249
 6730TIP3    H241606   2.741   2.595   6.061  1.4072 -0.3075  0.9130
 6731TIP3   OH241607   4.346   0.617   5.436  0.0855  0.0904 -0.0121
 6731TIP3    H141608   4.275   0.566   5.397  0.1724 -0.7869  0.9224
 6731TIP3    H241609   4.381   0.561   5.506  0.2986  1.3636  0.9511
 6732TIP3   OH241610   6.485   5.994  14.871  0.2318  0.2621  0.2362
 6732TIP3    H141611   6.419   5.955  14.928  0.3886  0.5349  0.6068
 6732TIP3    H241612   6.486   6.087  14.896  1.2565  0.1294  0.7279
 6733TIP3   OH241613   1.274   6.026  11.923  0.8485 -1.2440 -0.1282
 6733TIP3    H141614   1.309   6.041  12.011  0.5748 -1.3435 -0.0023
 6733TIP3    H241615   1.222   6.103  11.904  0.3507 -1.5266  0.0728
 6734TIP3   OH241616   1.313   6.678   1.142 -0.3186 -0.2220  0.1273
 6734TIP3    H141617   1.339   6.702   1.231 -1.8413 -1.2828  0.9042
 6734TIP3    H241618   1.245   6.611   1.154 -1.5445  0.5775 -1.7853
 6735TIP3   OH241619   0.911   1.742   1.351  0.2365  0.2549 -0.2779
 6735TIP3    H141620   0.909   1.663   1.297  1.1850  1.4923 -2.2287
 6735TIP3    H241621   0.900   1.710   1.441 -0.5790 -1.9608 -1.1007
 6736TIP3   OH241622   5.600   3.848   6.172  0.2434  0.1896  0.1437
 6736TIP3    H141623   5.600   3.929   6.223  0.6026  0.3932 -0.1782
 6736TIP3    H241624   5.581   3.780   6.237  0.8334  0.4276  0.5792
 6737TIP3   OH241625   3.971   5.657  15.631 -0.4204  0.3283  0.0934
 6737TIP3    H141626   3.977   5.750  15.653  2.3389 -0.0303  1.2474
 6737TIP3    H241627   3.978   5.612  15.716  0.1029 -0.9363 -0.5915
 6738TIP3   OH241628   6.604   5.876   5.577  0.2197 -0.8581 -0.1614
 6738TIP3    H141629   6.693   5.911   5.578  0.1948 -0.8016  0.3683
 6738TIP3    H241630   6.549   5.948   5.547  0.5765 -1.4738 -2.5618
 6739TIP3   OH241631   4.611   0.686  13.448 -0.2596 -0.1912 -0.0673
 6739TIP3    H141632   4.596   0.693  13.354 -0.6294 -0.3090 -0.0184
 6739TIP3    H241633   4.543   0.627  13.479  0.7017 -1.2528  0.0706
 6740TIP3   OH241634   0.523   0.975  13.998  0.1100 -0.2038 -0.6985
 6740TIP3    H141635   0.529   1.031  14.076  0.1389  0.0735 -0.8983
 6740TIP3    H241636   0.512   1.037  13.925 -0.4185 -0.4834 -0.8610
 6741TIP3   OH241637   4.896   1.676  16.392  0.3198  0.0729  0.3055
 6741TIP3    H141638   4.848   1.682  16.309  0.2792 -0.7744  0.2597
 6741TIP3    H241639   4.969   1.737  16.382 -0.8988  1.6323  0.4935
 6742TIP3   OH241640   2.334   2.103   2.047  0.1725 -0.1092 -0.1091
 6742TIP3    H141641   2.400   2.082   1.982  0.4550 -0.1045  0.1776
 6742TIP3    H241642   2.269   2.155   1.999 -1.0517 -2.3841 -1.0865
 6743TIP3   OH241643   6.703   2.699  14.298  0.3435 -0.1066 -0.2448
 6743TIP3    H141644   6.688   2.607  14.319  0.5188  0.2498  1.6949
 6743TIP3    H241645   6.798   2.707  14.290  0.7010  0.4321  2.9626
 6744TIP3   OH241646   3.522   3.794  12.797  0.3368 -0.3690  0.2826
 6744TIP3    H141647   3.431   3.789  12.828 -0.2480 -0.3218 -1.3184
 6744TIP3    H241648   3.556   3.875  12.835  0.2846 -1.2370  2.2773
 6745TIP3   OH241649   1.012   6.375  17.113  0.1298 -0.1398  0.2431
 6745TIP3    H141650   1.092   6.427  17.124  0.7443 -0.9010 -0.5277
 6745TIP3    H241651   1.037   6.303  17.054 -0.7435 -1.1926  1.0947
 6746TIP3   OH241652   6.164   0.707  10.540 -0.1975 -0.4302 -0.2527
 6746TIP3    H141653   6.231   0.753  10.489  0.4709 -1.3831 -0.2667
 6746TIP3    H241654   6.115   0.777  10.584  2.2263  0.2606  1.5533
 6747TIP3   OH241655   0.707   4.191   1.365  0.5015 -0.3221  0.2322
 6747TIP3    H141656   0.620   4.230   1.363  1.4386  1.8690 -0.7904
 6747TIP3    H241657   0.744   4.219   1.449  1.6902  2.4004 -1.0791
 6748TIP3   OH241658   5.823   2.073   2.586 -0.1300 -0.2477  0.0581
 6748TIP3    H141659   5.750   2.030   2.542 -1.7899  0.1360  2.2504
 6748TIP3    H241660   5.810   2.166   2.570 -0.0512 -0.1834  0.3558
 6749TIP3   OH241661   0.424   4.988  12.426  0.3921 -0.4386  0.1927
 6749TIP3    H141662   0.419   5.004  12.331  0.2890  1.2228  0.4435
 6749TIP3    H241663   0.347   4.935  12.445  0.6833 -1.2244 -0.7263
 6750TIP3   OH241664   1.669   6.601   0.305  0.6338 -0.4757  0.6837
 6750TIP3    H141665   1.576   6.606   0.282  0.5368 -1.4713  0.7815
 6750TIP3    H241666   1.706   6.540   0.240  1.5054  0.8952 -0.1612
 6751TIP3   OH241667   6.594   0.905   3.203  0.0264  0.4727 -1.0292
 6751TIP3    H141668   6.633   0.968   3.142 -0.6025 -0.9304 -2.9826
 6751TIP3    H241669   6.507   0.888   3.168  0.3612 -1.8657 -0.9303
 6752TIP3   OH241670   6.483   3.694  11.414  0.0753  0.0102 -0.3929
 6752TIP3    H141671   6.450   3.618  11.463  0.3718 -0.0984 -0.3580
 6752TIP3    H241672   6.498   3.660  11.326  1.0467 -0.2057 -0.1585
 6753TIP3   OH241673   5.328   2.432   0.294  0.1887 -0.6280  0.3719
 6753TIP3    H141674   5.422   2.436   0.311  0.2878 -1.3258  0.0085
 6753TIP3    H241675   5.318   2.367   0.225 -0.7548 -2.2653  1.9669
 6754TIP3   OH241676   4.263   5.336   1.251  0.0209 -0.2700 -0.4531
 6754TIP3    H141677   4.247   5.280   1.176  1.6305  0.6270 -1.5028
 6754TIP3    H241678   4.215   5.294   1.323 -1.6323 -1.0866 -1.9660
 6755TIP3   OH241679   0.197   5.575   1.500 -0.5905  0.2057  0.1180
 6755TIP3    H141680   0.141   5.508   1.540  1.2273 -0.5593  1.5210
 6755TIP3    H241681   0.179   5.568   1.406 -3.2356  0.4227  0.5190
 6756TIP3   OH241682   2.882   2.963   3.832 -0.4393 -0.3900  0.5453
 6756TIP3    H141683   2.933   2.886   3.807 -0.2497 -0.4231  1.0264
 6756TIP3    H241684   2.802   2.957   3.780 -0.3677 -0.8445  0.4845
 6757TIP3   OH241685   3.658   0.178   5.194 -0.2158 -0.2472 -0.5014
 6757TIP3    H141686   3.712   0.211   5.266  0.2066  0.1103 -0.9818
 6757TIP3    H241687   3.582   0.139   5.238  1.0553 -2.0197  0.2727
 6758TIP3   OH241688   0.995   5.111  13.114  0.1014  0.1149 -0.1349
 6758TIP3    H141689   1.036   5.194  13.139 -0.8739  0.8791 -0.9973
 6758TIP3    H241690   1.068   5.052  13.096  0.8111  0.6268  0.9744
 6759TIP3   OH241691   1.537   0.047   3.848  0.4613 -0.4964  0.4820
 6759TIP3    H141692   1.492  -0.027   3.887 -0.5593  0.7929  1.8459
 6759TIP3    H241693   1.602   0.074   3.913  0.7232 -0.0935  0.0683
 6760TIP3   OH241694   5.206   2.012  14.946  1.0930  0.0549  0.3242
 6760TIP3    H141695   5.125   1.966  14.964  1.4981  0.1458  2.6408
 6760TIP3    H241696   5.263   1.946  14.907  0.0034 -0.0276 -1.2379
 6761TIP3   OH241697   2.472   4.768  11.668 -0.1529 -0.3113  0.0046
 6761TIP3    H141698   2.553   4.737  11.627 -0.3845 -0.6088 -0.2306
 6761TIP3    H241699   2.431   4.688  11.702  0.3563 -0.0060  1.4059
 6762TIP3   OH241700   4.497   2.256  13.552  0.0823  0.5503  0.2584
 6762TIP3    H141701   4.440   2.319  13.596 -0.3394  1.3378 -1.3294
 6762TIP3    H241702   4.566   2.309  13.513  0.4896 -0.1247  0.0470
 6763TIP3   OH241703   3.837   2.541   6.040  0.1688  0.4862 -0.0094
 6763TIP3    H141704   3.838   2.619   5.985  0.1782  0.3669 -0.1767
 6763TIP3    H241705   3.902   2.559   6.108 -0.5815  1.0830  0.5817
 6764TIP3   OH241706   6.033   2.026  13.540 -0.0121 -0.2852 -0.2262
 6764TIP3    H141707   5.990   2.106  13.572 -0.3049  0.1734 -1.6776
 6764TIP3    H241708   6.053   1.976  13.619 -0.1017  1.0848  0.6995
 6765TIP3   OH241709   0.070   3.284   2.055  0.0795  0.3871 -0.0202
 6765TIP3    H141710  -0.006   3.234   2.084  0.1605  0.8737  1.0560
 6765TIP3    H241711   0.108   3.320   2.135  3.5622 -2.6659 -0.0359
 6766TIP3   OH241712   5.242   0.867   2.194 -0.4289  0.5081 -0.2201
 6766TIP3    H141713   5.213   0.776   2.197  1.9669 -0.3124  1.6989
 6766TIP3    H241714   5.328   0.863   2.151  1.0450  1.3236  2.4196
 6767TIP3   OH241715   0.524   1.256  14.684  0.3231 -0.0597 -0.1575
 6767TIP3    H141716   0.602   1.265  14.738  1.5272  1.9988 -2.0392
 6767TIP3    H241717   0.458   1.310  14.728  0.2269 -1.0499  0.9456
 6768TIP3   OH241718   2.816   4.174  16.017 -0.0229  0.0509  0.5622
 6768TIP3    H141719   2.854   4.179  16.105 -2.5256 -0.6742  1.8026
 6768TIP3    H241720   2.890   4.184  15.958  1.7868  0.4360  2.7447
 6769TIP3   OH241721   2.983   4.492   2.130 -0.2702  0.6143  0.6375
 6769TIP3    H141722   3.050   4.526   2.189  1.3549  0.5788 -1.1055
 6769TIP3    H241723   3.023   4.417   2.088 -0.7568  1.5260 -1.6173
 6770TIP3   OH241724   4.426   3.939   5.225  0.0475  0.5383  0.1631
 6770TIP3    H141725   4.379   3.933   5.142  1.0766  0.8029 -0.4520
 6770TIP3    H241726   4.405   4.026   5.259  2.2715  1.8197 -1.4947
 6771TIP3   OH241727   4.087   0.087  16.103  0.4124  0.1036  0.0691
 6771TIP3    H141728   4.165   0.137  16.079  0.3635  0.6889  1.0616
 6771TIP3    H241729   4.087   0.088  16.199 -0.5966 -0.2414  0.0835
 6772TIP3   OH241730   2.538   3.166   3.524  0.1432 -0.1107 -0.4636
 6772TIP3    H141731   2.498   3.225   3.460  2.0920  1.2271 -0.5449
 6772TIP3    H241732   2.621   3.140   3.483  0.4558 -0.9271  0.6459
 6773TIP3   OH241733   5.890   3.695   2.381 -0.6960 -0.4553 -0.5040
 6773TIP3    H141734   5.943   3.622   2.349  1.1202 -0.2199  1.6878
 6773TIP3    H241735   5.939   3.773   2.354 -1.3095 -0.1325 -0.6930
 6774TIP3   OH241736   3.378   4.470   3.004  0.2068  0.1565 -0.4951
 6774TIP3    H141737   3.412   4.384   3.028  1.7716  1.2661  1.5632
 6774TIP3    H241738   3.284   4.455   2.990  0.2066 -1.6606  0.9905
 6775TIP3   OH241739   4.477   2.462  14.056 -0.9408  0.1514  0.8114
 6775TIP3    H141740   4.461   2.465  13.961 -4.8754  3.6564  1.3239
 6775TIP3    H241741   4.541   2.532  14.071  0.8219 -1.3544  0.7533
 6776TIP3   OH241742   3.292   1.944   5.653 -0.2401 -0.0082  0.0287
 6776TIP3    H141743   3.242   1.903   5.582  2.2143 -2.1845 -0.5894
 6776TIP3    H241744   3.282   1.884   5.727  0.2133  0.3213  0.3606
 6777TIP3   OH241745   0.646   1.239   4.733 -0.2478  0.0156 -0.0565
 6777TIP3    H141746   0.608   1.307   4.789 -2.7096  0.8632 -2.5385
 6777TIP3    H241747   0.725   1.280   4.697 -0.0595  0.4052  0.7707
 6778TIP3   OH241748   3.640   1.358  12.039 -0.6557 -0.2510  0.3476
 6778TIP3    H141749   3.566   1.316  12.083 -0.4624 -2.1989 -1.0490
 6778TIP3    H241750   3.671   1.292  11.976  2.0359  0.6192  0.6194
 6779TIP3   OH241751   6.717   2.538   4.140 -0.0572  0.0974  0.0327
 6779TIP3    H141752   6.674   2.599   4.200 -0.6513 -1.0985  0.8825
 6779TIP3    H241753   6.770   2.482   4.198  1.1320  0.3255 -0.8076
 6780TIP3   OH241754   0.391   5.470   5.443 -0.3567 -0.5404 -0.1977
 6780TIP3    H141755   0.374   5.395   5.385  0.6839 -0.5161 -0.5600
 6780TIP3    H241756   0.470   5.446   5.490  0.3572  0.5977 -0.7914
 6781TIP3   OH241757   3.838   5.119  14.788 -0.1108  0.0243  0.1242
 6781TIP3    H141758   3.871   5.118  14.698  0.5419 -1.7143  0.3513
 6781TIP3    H241759   3.915   5.098  14.842 -0.5554  0.7794  1.0805
 6782TIP3   OH241760   3.400   6.629  14.797  0.0439  0.0688 -0.3189
 6782TIP3    H141761   3.309   6.656  14.790  0.0248  0.1645  0.2787
 6782TIP3    H241762   3.444   6.673  14.724 -0.6220 -1.0231 -1.4059
 6783TIP3   OH241763   2.586   2.643   5.301  0.0543  0.2608  0.1448
 6783TIP3    H141764   2.660   2.630   5.359 -1.2164  1.3142  2.1277
 6783TIP3    H241765   2.624   2.646   5.213  1.9726 -2.1736  0.7751
 6784TIP3   OH241766   5.489   0.319  17.020  0.1564  0.2798  0.3140
 6784TIP3    H141767   5.538   0.239  17.037 -0.7070  0.0239  1.7694
 6784TIP3    H241768   5.500   0.335  16.926  4.0786  0.9785  0.7333
 6785TIP3   OH241769   2.945   4.720  15.744  0.7965 -0.1634  0.1241
 6785TIP3    H141770   2.996   4.797  15.768 -0.2332  1.0688 -1.4560
 6785TIP3    H241771   2.871   4.754  15.695  0.4896 -2.1944 -0.9498
 6786TIP3   OH241772   2.294   4.269  10.870 -0.1594  0.0378 -0.3266
 6786TIP3    H141773   2.222   4.332  10.881  0.1280  0.2192  0.5856
 6786TIP3    H241774   2.263   4.210  10.801 -1.3893 -0.1612  0.3587
 6787TIP3   OH241775   4.406   1.764  12.419 -0.1534  0.3042  0.4552
 6787TIP3    H141776   4.323   1.742  12.463  0.2823 -1.7694  0.3160
 6787TIP3    H241777   4.430   1.849  12.456 -2.5849  1.2293  0.1226
 6788TIP3   OH241778   2.316   5.506  15.544  0.0627  0.2485 -0.6888
 6788TIP3    H141779   2.293   5.429  15.596 -0.5047  0.1870 -1.0297
 6788TIP3    H241780   2.408   5.492  15.521 -0.1176 -0.4844 -1.0084
 6789TIP3   OH241781   4.642   5.892  14.361 -0.3425  0.4568  0.6213
 6789TIP3    H141782   4.656   5.942  14.442  1.8217  1.5173 -0.3304
 6789TIP3    H241783   4.724   5.846  14.346 -1.4322 -1.4571  0.1028
 6790TIP3   OH241784   1.904   5.365  13.462 -0.2599 -0.4001  0.4649
 6790TIP3    H141785   1.987   5.318  13.454 -0.7740 -1.6772  2.1942
 6790TIP3    H241786   1.849   5.310  13.517 -1.7829  1.0918  0.5475
 6791TIP3   OH241787   0.899   6.314   0.772  1.1686 -0.3308 -0.0912
 6791TIP3    H141788   0.877   6.247   0.836  1.6614 -1.6988 -1.2877
 6791TIP3    H241789   0.816   6.357   0.752  0.3015 -2.4129 -1.2624
 6792TIP3   OH241790   5.248   4.133   4.890  0.1752  0.0328  0.1261
 6792TIP3    H141791   5.284   4.118   4.803 -2.4362  2.1526 -1.4655
 6792TIP3    H241792   5.221   4.225   4.890 -3.8276 -0.9448  1.5413
 6793TIP3   OH241793   3.159   6.540  15.125  0.0491 -0.0141 -0.1080
 6793TIP3    H141794   3.230   6.605  15.126  0.2915 -0.2630  1.2606
 6793TIP3    H241795   3.111   6.556  15.206 -1.2732 -0.0727 -0.8582
 6794TIP3   OH241796   0.235   2.638   5.317 -0.3850  0.2493  0.5942
 6794TIP3    H141797   0.205   2.728   5.307  2.2727  1.1094 -0.5583
 6794TIP3    H241798   0.170   2.597   5.374 -2.3317  2.5324  0.1585
 6795TIP3   OH241799   4.235   6.307  11.481 -0.1445  0.4704  0.0431
 6795TIP3    H141800   4.264   6.222  11.515 -0.6343  0.9534  1.7066
 6795TIP3    H241801   4.309   6.338  11.429 -0.1970 -1.2443 -1.1484
 6796TIP3   OH241802   6.272   0.122   5.440  0.3100  0.7182  0.0877
 6796TIP3    H141803   6.212   0.144   5.368 -0.7525 -1.6763  0.1276
 6796TIP3    H241804   6.333   0.059   5.400  1.0669  1.0337  0.7475
 6797TIP3   OH241805   2.807   1.619  15.309 -0.1217  0.3520 -0.0055
 6797TIP3    H141806   2.887   1.567  15.319 -0.2165 -0.1926 -1.7559
 6797TIP3    H241807   2.819   1.668  15.228 -1.8764 -0.4132 -0.8050
 6798TIP3   OH241808   3.790   1.020  14.894  0.0724 -0.1805 -0.3817
 6798TIP3    H141809   3.814   0.966  14.969 -0.1534  0.7720  0.4144
 6798TIP3    H241810   3.702   1.051  14.915  0.3975  0.9107 -0.5376
 6799TIP3   OH241811   5.387   3.524  12.717 -0.2164 -0.2376 -0.8992
 6799TIP3    H141812   5.340   3.578  12.780 -0.2122 -0.1377 -0.9802
 6799TIP3    H241813   5.382   3.574  12.635  1.1964  0.4370 -0.6041
 6800TIP3   OH241814   2.239   1.546  14.090  0.3358  0.4540  0.2028
 6800TIP3    H141815   2.221   1.454  14.109 -2.5118  1.1450  1.2978
 6800TIP3    H241816   2.241   1.551  13.994 -1.6791 -0.4232  0.0747
 6801TIP3   OH241817   3.841   1.325   0.379 -0.1705 -0.3709  0.2115
 6801TIP3    H141818   3.839   1.414   0.414  1.3855  0.5893 -1.9291
 6801TIP3    H241819   3.756   1.315   0.336 -0.0147  0.4481 -0.3130
 6802TIP3   OH241820   5.843   2.806   6.071  0.0998  0.5842  0.1352
 6802TIP3    H141821   5.920   2.804   6.128  0.0030 -0.1621  0.2468
 6802TIP3    H241822   5.794   2.883   6.101  0.0932  0.2516  1.0153
 6803TIP3   OH241823   2.791   2.496  15.457 -0.2026  0.0051 -0.0113
 6803TIP3    H141824   2.785   2.403  15.437  1.3298 -0.4106  1.2799
 6803TIP3    H241825   2.704   2.519  15.490 -0.6599 -0.8946 -0.5500
 6804TIP3   OH241826   3.714   4.763  13.440  0.0043 -0.1848  0.4208
 6804TIP3    H141827   3.748   4.795  13.523  1.0382 -0.4154  0.0981
 6804TIP3    H241828   3.649   4.697  13.464  0.3488 -0.2993  1.0433
 6805TIP3   OH241829   0.578   1.065  16.588 -0.1126  0.3516  0.0399
 6805TIP3    H141830   0.628   1.036  16.512  0.0214 -1.2071  0.6877
 6805TIP3    H241831   0.619   1.147  16.614 -0.9085  1.5663 -2.2455
 6806TIP3   OH241832   3.632   6.477  15.334  1.0448  0.0721  0.2237
 6806TIP3    H141833   3.661   6.389  15.309  0.9709 -0.3808  1.6567
 6806TIP3    H241834   3.543   6.465  15.367  0.4294  0.9512 -1.0263
 6807TIP3   OH241835   4.145   4.255  11.048  0.3689 -0.3513 -0.5034
 6807TIP3    H141836   4.203   4.290  10.980  0.5236 -0.5099 -0.4541
 6807TIP3    H241837   4.079   4.205  10.999  1.2479 -1.5924 -0.4785
 6808TIP3   OH241838   4.771   5.418  13.087 -0.6519 -0.1679 -0.4237
 6808TIP3    H141839   4.743   5.340  13.135  0.8843 -1.6305 -1.7575
 6808TIP3    H241840   4.706   5.428  13.018 -0.2748 -0.9443 -0.9016
 6809TIP3   OH241841   5.432   0.864  16.539  0.0703 -0.1369 -0.0932
 6809TIP3    H141842   5.504   0.867  16.602 -0.6022  0.5241  0.6693
 6809TIP3    H241843   5.427   0.953  16.503 -1.0482  0.1279  0.6713
 6810TIP3   OH241844   6.043   6.694   1.066 -0.2179  0.3596  0.1902
 6810TIP3    H141845   6.133   6.725   1.056 -0.4850  1.2330  0.3609
 6810TIP3    H241846   6.020   6.718   1.156 -0.8639  0.8303 -0.0939
 6811TIP3   OH241847   3.101   2.067  11.173 -0.2291 -0.5251  0.5817
 6811TIP3    H141848   3.036   1.998  11.188 -1.5764  0.4265 -0.6581
 6811TIP3    H241849   3.119   2.102  11.260 -3.8856  1.3840  0.7482
 6812TIP3   OH241850   5.591   0.397  14.460  0.8427  0.0259  0.1869
 6812TIP3    H141851   5.656   0.457  14.495  0.7472 -0.2010  0.7601
 6812TIP3    H241852   5.586   0.326  14.524  0.4344 -0.2368 -0.1249
 6813TIP3   OH241853   2.175   0.266  16.460 -0.5260  0.4383 -0.9190
 6813TIP3    H141854   2.106   0.216  16.503  0.6225  0.1183  0.6175
 6813TIP3    H241855   2.215   0.204  16.399  0.8402 -0.5871  0.9168
 6814TIP3   OH241856   3.609   4.900   5.713  0.9193 -0.3428  0.1024
 6814TIP3    H141857   3.545   4.960   5.674  0.3910  0.1330  1.6271
 6814TIP3    H241858   3.560   4.855   5.783  1.7681 -1.3250  0.0941
 6815TIP3   OH241859   5.663   1.429  13.807 -0.0820  0.1161  0.2182
 6815TIP3    H141860   5.659   1.394  13.718 -0.3297 -0.8648  0.6070
 6815TIP3    H241861   5.756   1.445  13.823  0.2257 -1.7867  0.5582
 6816TIP3   OH241862   3.809   0.059   3.750 -0.3169 -0.7666 -0.0259
 6816TIP3    H141863   3.885   0.044   3.806  0.1129 -0.6762 -0.5803
 6816TIP3    H241864   3.831   0.136   3.698 -1.4748  0.2893  0.9791
 6817TIP3   OH241865   0.444   1.200   0.562  0.5776  0.2838 -0.2050
 6817TIP3    H141866   0.535   1.179   0.545  0.8990  1.8457 -0.6214
 6817TIP3    H241867   0.421   1.148   0.639  2.6528  1.8316  1.5973
 6818TIP3   OH241868   6.238   3.587   2.259 -0.0611 -0.0102 -0.4608
 6818TIP3    H141869   6.291   3.639   2.320  0.0656  1.1829 -1.5369
 6818TIP3    H241870   6.297   3.565   2.187 -0.6828  0.2339 -1.0634
 6819TIP3   OH241871   1.654   3.704   3.755  0.2798  0.0274 -0.1580
 6819TIP3    H141872   1.744   3.729   3.774 -0.0337  0.3034  1.0489
 6819TIP3    H241873   1.602   3.744   3.825 -0.8590  0.3532 -1.1454
 6820TIP3   OH241874   3.934   3.871   2.019  0.4460  0.1390  1.0725
 6820TIP3    H141875   4.022   3.909   2.017  0.7876 -0.5636  2.2028
 6820TIP3    H241876   3.876   3.947   2.024  1.0155  0.5905  1.0316
 6821TIP3   OH241877   0.292   6.130  15.198  0.3426 -0.7098  0.6105
 6821TIP3    H141878   0.248   6.145  15.281  1.5480 -0.9131  1.3032
 6821TIP3    H241879   0.245   6.057  15.158  0.5554 -1.4729  1.7111
 6822TIP3   OH241880   6.317   2.925   4.130  0.1012 -0.3440  0.0085
 6822TIP3    H141881   6.406   2.931   4.164 -0.3162 -0.5148  1.2128
 6822TIP3    H241882   6.320   2.855   4.065  1.0289  0.2616 -0.6076
 6823TIP3   OH241883   0.456   2.995  14.516 -0.2878  0.6191 -0.4040
 6823TIP3    H141884   0.408   2.968  14.595 -1.0003  0.2196 -0.9591
 6823TIP3    H241885   0.437   3.088  14.506 -0.3719  0.6211 -0.2208
 6824TIP3   OH241886   4.102   1.402   2.207  0.0191  0.5311  0.3019
 6824TIP3    H141887   4.007   1.410   2.207 -0.0851 -0.6165  0.1891
 6824TIP3    H241888   4.133   1.493   2.201 -1.0587  0.8428 -0.9468
 6825TIP3   OH241889   6.565   3.262  13.310 -0.4130 -0.0272 -0.4052
 6825TIP3    H141890   6.615   3.342  13.291  0.3096 -0.5920 -0.9263
 6825TIP3    H241891   6.631   3.199  13.339 -0.8498 -0.7370 -0.9304
 6826TIP3   OH241892   4.287   2.145   2.278  0.4293 -0.0564  0.7661
 6826TIP3    H141893   4.264   2.198   2.201  0.9763 -2.1179 -0.9176
 6826TIP3    H241894   4.370   2.181   2.308  1.2418 -0.4548 -0.8962
 6827TIP3   OH241895   6.350   1.815  15.440 -0.2894  0.2833  0.5114
 6827TIP3    H141896   6.255   1.803  15.431 -0.1876 -0.7993  0.7564
 6827TIP3    H241897   6.364   1.907  15.418 -0.9415 -0.3512 -3.2756
 6828TIP3   OH241898   0.182   2.354   1.640  0.0866  0.7100  0.0302
 6828TIP3    H141899   0.214   2.403   1.564  0.4086  0.6891  0.1544
 6828TIP3    H241900   0.260   2.334   1.691 -0.0654  0.2522  0.0883
 6829TIP3   OH241901   5.045   3.386   5.413 -0.0100 -0.4389  0.1181
 6829TIP3    H141902   5.104   3.311   5.404  0.3702 -0.3954  1.7593
 6829TIP3    H241903   4.964   3.348   5.448 -0.3650 -0.2719 -0.5087
 6830TIP3   OH241904   1.114   0.825   2.801 -0.3135  0.0348 -0.1768
 6830TIP3    H141905   1.052   0.879   2.850  2.1921  0.6326  2.6864
 6830TIP3    H241906   1.192   0.823   2.856  1.6693 -2.0042 -2.7814
 6831TIP3   OH241907   1.197   2.259   6.537  0.2661 -0.5658 -0.1463
 6831TIP3    H141908   1.128   2.198   6.561  0.7237 -0.3898  1.7737
 6831TIP3    H241909   1.155   2.345   6.541  0.0973 -0.5995 -1.0049
 6832TIP3   OH241910   5.560   0.798   4.335 -0.1791 -0.1305  0.8070
 6832TIP3    H141911   5.644   0.820   4.375 -1.5351  1.4398  3.0179
 6832TIP3    H241912   5.573   0.813   4.241  1.6808  1.1215  1.2217
 6833TIP3   OH241913   0.950   0.873  16.678 -0.8553 -0.2551 -0.1932
 6833TIP3    H141914   0.926   0.962  16.706 -1.5713 -0.5178  0.0367
 6833TIP3    H241915   0.888   0.816  16.723 -1.9926 -0.6982 -2.2016
 6834TIP3   OH241916   2.602   4.117   2.989 -0.5637 -0.2834 -0.4759
 6834TIP3    H141917   2.657   4.044   2.964  0.5788  1.2676 -2.8487
 6834TIP3    H241918   2.662   4.180   3.030 -0.7679  0.8418 -1.8354
 6835TIP3   OH241919   5.585   6.205  11.979  0.3383 -0.1180 -0.5147
 6835TIP3    H141920   5.596   6.257  11.899  0.7690  1.3508  0.4489
 6835TIP3    H241921   5.637   6.252  12.045 -0.0950 -1.2292  0.6480
 6836TIP3   OH241922   2.534   0.578  13.007  0.7007 -0.3896  0.1243
 6836TIP3    H141923   2.598   0.558  12.938  1.4785 -0.8314  0.9418
 6836TIP3    H241924   2.449   0.557  12.967  0.7001  2.9493 -1.9953
 6837TIP3   OH241925   1.251   5.286  10.919 -0.2398  0.4809 -0.8365
 6837TIP3    H141926   1.303   5.214  10.953  0.1210  0.3100 -1.7243
 6837TIP3    H241927   1.161   5.253  10.919 -0.0104 -0.1529 -1.7133
 6838TIP3   OH241928   3.436   3.195  15.705 -0.0780  0.5585 -0.1459
 6838TIP3    H141929   3.359   3.196  15.648  0.3932  0.3623 -0.8034
 6838TIP3    H241930   3.505   3.157  15.651  0.4386  0.5687  0.4926
 6839TIP3   OH241931   6.259   0.030   4.805  0.7409  0.5044  0.3492
 6839TIP3    H141932   6.344   0.011   4.765 -0.0623  0.3121 -1.3590
 6839TIP3    H241933   6.197  -0.023   4.755 -0.4442  0.9891  1.2626
 6840TIP3   OH241934   3.448   4.900   4.320 -0.4217 -0.1485  1.1205
 6840TIP3    H141935   3.357   4.894   4.350 -0.6145 -2.3359  0.3153
 6840TIP3    H241936   3.487   4.968   4.374 -2.0677 -0.4293  2.7601
 6841TIP3   OH241937   0.288   5.328   4.767 -0.0917 -0.3022 -0.0422
 6841TIP3    H141938   0.234   5.251   4.786  2.2050 -1.4813  2.3014
 6841TIP3    H241939   0.279   5.384   4.844  0.2881  0.5363 -0.5950
 6842TIP3   OH241940   2.055   6.087  11.658 -0.0939 -0.1912  0.1164
 6842TIP3    H141941   2.074   6.006  11.612 -2.0114 -0.3798 -0.4297
 6842TIP3    H241942   1.999   6.061  11.731  1.8939  0.2616  1.9242
 6843TIP3   OH241943   6.481   6.381   5.531 -0.9422  0.1195 -0.4655
 6843TIP3    H141944   6.566   6.388   5.486 -1.1615  0.5431 -0.8213
 6843TIP3    H241945   6.488   6.300   5.582  0.2487  0.9262  0.7192
 6844TIP3   OH241946   0.323   0.167  15.560  0.4717 -0.2632  0.0404
 6844TIP3    H141947   0.311   0.214  15.478  0.5496  1.2773  0.8764
 6844TIP3    H241948   0.347   0.234  15.623  1.6593 -1.5811  1.0716
 6845TIP3   OH241949   3.815   3.065   6.187  0.9132 -0.4254  0.1901
 6845TIP3    H141950   3.783   3.143   6.232  0.1052 -0.5011 -0.2339
 6845TIP3    H241951   3.891   3.037   6.239  2.7276  1.9767 -0.9828
 6846TIP3   OH241952   3.008   3.502  13.205  0.2692 -0.4641  0.0888
 6846TIP3    H141953   2.959   3.536  13.280 -1.0736 -0.5140 -0.7339
 6846TIP3    H241954   3.051   3.579  13.168  1.8435 -0.6070  1.5134
 6847TIP3   OH241955   1.509   3.223   4.711 -0.2608 -0.3448 -0.7411
 6847TIP3    H141956   1.572   3.272   4.764 -1.2263 -0.3949  0.4660
 6847TIP3    H241957   1.550   3.137   4.699 -0.5187 -0.7138  0.8833
 6848TIP3   OH241958   5.011   2.317  15.903  0.4985 -0.4772 -0.1983
 6848TIP3    H141959   5.089   2.263  15.920  0.4352  0.1846  2.7465
 6848TIP3    H241960   5.028   2.398  15.952 -0.2071  1.5104 -3.0212
 6849TIP3   OH241961   5.074   3.685  13.952 -0.2608 -0.6799  0.0370
 6849TIP3    H141962   5.097   3.713  13.863  0.7367 -1.6693 -0.0318
 6849TIP3    H241963   5.115   3.749  14.009  0.3385 -0.8682 -0.1775
 6850TIP3   OH241964   4.766   0.010  16.988 -0.1699  0.1313 -0.2049
 6850TIP3    H141965   4.860   0.004  16.971  0.3390 -0.1955  2.3855
 6850TIP3    H241966   4.738  -0.082  16.996  0.1928  0.1857  3.0130
 6851TIP3   OH241967   5.308   1.148   5.553 -0.0390  0.3650  0.1181
 6851TIP3    H141968   5.316   1.235   5.515 -0.3992  0.0093 -0.8032
 6851TIP3    H241969   5.300   1.163   5.647  3.1645  1.1487  0.3529
 6852TIP3   OH241970   3.795   2.439   0.261 -0.5199  0.1853  0.3326
 6852TIP3    H141971   3.801   2.358   0.312  0.0462 -0.1858 -0.3115
 6852TIP3    H241972   3.780   2.507   0.327  1.2295 -0.1449  1.1367
 6853TIP3   OH241973   3.367   0.197  12.249  0.8671  0.2012  0.1080
 6853TIP3    H141974   3.379   0.146  12.169  1.0887  3.3266 -2.0354
 6853TIP3    H241975   3.453   0.233  12.268  0.6475  0.1211  1.3197
 6854TIP3   OH241976   6.095   6.745   0.429 -0.6185  0.5987  0.6196
 6854TIP3    H141977   6.119   6.663   0.472  1.3916  1.2786  0.9291
 6854TIP3    H241978   6.080   6.721   0.338  0.2500 -0.1071  0.6425
 6855TIP3   OH241979   0.939   6.223   1.500  0.5667 -0.1389  0.8912
 6855TIP3    H141980   0.966   6.289   1.435 -2.1530 -0.3868 -0.6553
 6855TIP3    H241981   0.984   6.143   1.473  2.3271  0.5900  1.5720
 6856TIP3   OH241982   2.898   4.989   5.527  0.2605  0.5767  0.5532
 6856TIP3    H141983   2.970   4.948   5.480 -0.1656 -0.8467  1.1019
 6856TIP3    H241984   2.927   4.993   5.618  0.8960  2.9129  0.3216
 6857TIP3   OH241985   4.873   3.698   3.867 -0.0110 -0.1111 -0.0134
 6857TIP3    H141986   4.938   3.707   3.798  1.7895 -0.8744  1.4789
 6857TIP3    H241987   4.877   3.606   3.892 -0.8922  0.0690  0.8718
 6858TIP3   OH241988   4.642   3.885   2.919 -0.3369 -0.3541  0.0884
 6858TIP3    H141989   4.653   3.887   3.014  0.7508  0.8167 -0.0295
 6858TIP3    H241990   4.550   3.862   2.905 -0.4875 -0.6221  1.4110
 6859TIP3   OH241991   6.475   0.662  16.422  0.2510  0.5683  0.4010
 6859TIP3    H141992   6.412   0.721  16.463  0.1891 -0.0989  1.3209
 6859TIP3    H241993   6.560   0.704  16.435  0.0867  1.0341 -0.0329
 6860TIP3   OH241994   1.640   3.020   1.076 -0.1454 -0.3776 -0.2318
 6860TIP3    H141995   1.619   3.106   1.113  0.8081 -0.6239  0.9285
 6860TIP3    H241996   1.556   2.974   1.075 -0.7297  0.6368 -1.1388
 6861TIP3   OH241997   6.042   5.617  15.052 -0.1921  0.2924  0.4609
 6861TIP3    H141998   6.115   5.570  15.011 -0.7461 -0.2745  0.0930
 6861TIP3    H241999   6.061   5.709  15.039  1.3493  0.2180  1.9215
 6862TIP3   OH242000   5.866   3.662   5.516 -0.0773  0.1636  0.0074
 6862TIP3    H142001   5.847   3.574   5.482 -0.1026  0.1676  0.0114
 6862TIP3    H242002   5.788   3.686   5.565 -0.6766  0.8021 -1.2213
 6863TIP3   OH242003   3.959   3.443   4.088 -0.1867  0.6443  0.1378
 6863TIP3    H142004   3.970   3.375   4.155  3.5489 -1.0940 -1.9064
 6863TIP3    H242005   3.866   3.440   4.066 -0.5005 -2.7470  1.3000
 6864TIP3   OH242006   0.716   0.204  16.321 -0.2831 -0.0101 -0.0788
 6864TIP3    H142007   0.729   0.181  16.230 -0.3998 -0.5696  0.0449
 6864TIP3    H242008   0.800   0.240  16.350  0.7730 -2.6634  0.4375
 6865TIP3   OH242009   2.204   1.601   1.067  0.2221  0.1693 -0.5091
 6865TIP3    H142010   2.252   1.681   1.047 -1.1106  0.8255 -1.2828
 6865TIP3    H242011   2.179   1.610   1.159  1.2310 -0.0105 -0.2092
 6866TIP3   OH242012   3.413   3.767  11.711  0.0451  0.0203  0.0337
 6866TIP3    H142013   3.339   3.810  11.754  0.3362  0.0325  0.5212
 6866TIP3    H242014   3.383   3.676  11.699  1.0873 -0.8472  3.1140
 6867TIP3   OH242015   3.839   5.439  14.748 -0.4643  0.0129 -0.7730
 6867TIP3    H142016   3.895   5.464  14.821  1.3587 -0.3580 -1.9604
 6867TIP3    H242017   3.833   5.343  14.753 -1.3102  0.0781 -0.4439
 6868TIP3   OH242018   4.889   1.178   1.970 -0.4595 -0.1871 -0.1765
 6868TIP3    H142019   4.828   1.234   2.017 -2.1903 -0.1306 -2.2972
 6868TIP3    H242020   4.949   1.240   1.928 -0.9530 -0.0231 -0.6618
 6869TIP3   OH242021   5.108   2.215  14.369  0.0548 -0.0782 -0.2472
 6869TIP3    H142022   5.151   2.133  14.393  1.8713  0.7032 -0.5950
 6869TIP3    H242023   5.132   2.275  14.440  0.3074  0.6192 -0.9045
 6870TIP3   OH242024   4.307   3.702  16.589 -0.2156  0.2708  0.0602
 6870TIP3    H142025   4.278   3.733  16.503  0.2399  2.0785  0.5210
 6870TIP3    H242026   4.238   3.641  16.616 -0.8554  0.4084 -1.1643
 6871TIP3   OH242027   5.200   6.289   4.463 -0.5355  0.1902  0.1139
 6871TIP3    H142028   5.216   6.231   4.537 -2.0876  0.0231  0.3592
 6871TIP3    H242029   5.162   6.232   4.396 -0.5665  0.6184 -0.2370
 6872TIP3   OH242030   6.584   5.686   0.528 -0.4794  0.6026 -0.6254
 6872TIP3    H142031   6.572   5.598   0.565 -2.2650  1.7213  1.8054
 6872TIP3    H242032   6.654   5.724   0.581 -0.6844  1.0833 -0.6960
 6873TIP3   OH242033   1.185   2.214  12.383  0.2071  0.4702  0.0467
 6873TIP3    H142034   1.264   2.188  12.336 -1.2264 -2.1061 -1.1675
 6873TIP3    H242035   1.113   2.176  12.332 -1.6508  0.2338  2.6166
 6874TIP3   OH242036   0.999   0.284  16.806 -0.0240 -0.2853  0.7292
 6874TIP3    H142037   1.069   0.242  16.854 -0.6780 -2.5844 -0.1920
 6874TIP3    H242038   1.043   0.345  16.747  1.1393 -1.1181  0.7169
 6875TIP3   OH242039   5.057   5.577   4.963  0.2501  0.3800 -0.3369
 6875TIP3    H142040   4.972   5.594   4.923  1.0787  0.2653 -2.3144
 6875TIP3    H242041   5.074   5.654   5.017 -1.3101  0.1611  0.5221
 6876TIP3   OH242042   5.764   6.397  14.201  0.2745  0.0184  0.2202
 6876TIP3    H142043   5.689   6.350  14.164  0.2448  1.1079 -1.2030
 6876TIP3    H242044   5.838   6.373  14.145  0.5988  0.3877  0.4836
 6877TIP3   OH242045   5.603   1.984   4.723  0.7058  0.7817  0.5636
 6877TIP3    H142046   5.658   2.061   4.709 -0.1924  1.2982 -0.2120
 6877TIP3    H242047   5.614   1.964   4.816 -0.6298  3.1168  1.3060
 6878TIP3   OH242048   5.302   5.356  10.755 -0.1999 -0.3707  0.2337
 6878TIP3    H142049   5.362   5.287  10.785  1.6809  0.4502 -1.3928
 6878TIP3    H242050   5.340   5.386  10.672 -1.9924  1.3600 -0.0331
 6879TIP3   OH242051   5.939   4.546   1.441  0.4132 -0.4225  0.5535
 6879TIP3    H142052   5.947   4.642   1.439 -1.8421 -0.1140  1.8366
 6879TIP3    H242053   5.969   4.517   1.355  2.9868  1.2097  0.7993
 6880TIP3   OH242054   0.877   3.029  16.393 -0.7361  0.0024 -0.4355
 6880TIP3    H142055   0.971   3.024  16.380 -0.7197  2.3867 -1.9064
 6880TIP3    H242056   0.866   3.086  16.469 -0.8143  4.2969 -3.2806
 6881TIP3   OH242057   6.363   5.245  11.500 -0.8692  0.7244 -0.6035
 6881TIP3    H142058   6.390   5.331  11.532 -0.1366  0.1067  0.4939
 6881TIP3    H242059   6.271   5.238  11.524 -0.5305  0.5874  0.6907
 6882TIP3   OH242060   6.555   4.399   1.511  0.3448  0.1193 -0.1374
 6882TIP3    H142061   6.468   4.422   1.545  0.7862  0.9605  0.4652
 6882TIP3    H242062   6.566   4.457   1.435 -0.0536 -0.7493 -0.8705
 6883TIP3   OH242063   6.390   6.503  11.221  0.3692 -0.1439  0.2799
 6883TIP3    H142064   6.463   6.458  11.264  0.9071  0.3865 -0.0625
 6883TIP3    H242065   6.393   6.473  11.130  1.5615  1.5382 -0.2891
 6884TIP3   OH242066   0.933   0.157  12.336  0.5125  0.6180  0.1310
 6884TIP3    H142067   0.873   0.130  12.406  0.2911  2.4594  0.7118
 6884TIP3    H242068   0.915   0.096  12.265  0.6265 -1.2079  1.6035
 6885TIP3   OH242069   4.634   3.559   6.257  0.5787  0.0852 -0.0511
 6885TIP3    H142070   4.690   3.629   6.288  1.4229  0.0267 -1.3705
 6885TIP3    H242071   4.552   3.571   6.304  0.3696  2.5228 -0.9325
 6886TIP3   OH242072   3.472   6.243   0.803 -0.2209  0.0227  0.8450
 6886TIP3    H142073   3.498   6.268   0.892 -1.4313 -0.4065  1.3401
 6886TIP3    H242074   3.434   6.156   0.813 -0.7885  0.1605 -0.0175
 6887TIP3   OH242075   1.599   2.192  14.307  0.3675  0.6221 -0.1004
 6887TIP3    H142076   1.660   2.211  14.236  0.8916  0.4613  0.3032
 6887TIP3    H242077   1.633   2.113  14.348  0.1235  0.7714  0.3949
 6888TIP3   OH242078   1.954   5.134   0.055  0.6668 -0.1214  0.1961
 6888TIP3    H142079   1.920   5.184  -0.018  0.9608  1.1021  0.8681
 6888TIP3    H242080   1.877   5.109   0.106  0.4013 -1.5481 -0.8451
 6889TIP3   OH242081   1.677   3.826  10.891 -0.4371 -0.0781  0.0320
 6889TIP3    H142082   1.647   3.735  10.894 -1.5068  0.2710  2.5876
 6889TIP3    H242083   1.607   3.873  10.846 -0.7638 -0.2252  0.3882
 6890TIP3   OH242084   2.950   0.157  14.936  0.0583 -0.0521 -0.1580
 6890TIP3    H142085   2.933   0.124  14.848 -0.6577 -0.5256  0.1421
 6890TIP3    H242086   3.034   0.118  14.961  1.3654  1.8073 -1.4286
 6891TIP3   OH242087   1.356   5.394   1.259  0.2803  0.0758  0.0324
 6891TIP3    H142088   1.262   5.387   1.272  0.3673  1.5765  2.0534
 6891TIP3    H242089   1.378   5.484   1.287  1.9792  0.6530 -2.7813
 6892TIP3   OH242090   6.281   4.981   1.330  0.6938 -0.0776  0.2673
 6892TIP3    H142091   6.297   4.993   1.423  1.3911  0.4627  0.0873
 6892TIP3    H242092   6.367   4.990   1.289  0.1947  1.2396 -0.5705
 6893TIP3   OH242093   1.387   3.940  13.049  0.9588 -0.1770  0.1455
 6893TIP3    H142094   1.350   3.861  13.009  0.6480 -0.4392  0.9178
 6893TIP3    H242095   1.311   3.987  13.084  1.0491  0.9091 -1.0442
 6894TIP3   OH242096   0.257   4.506  12.122 -0.1155 -0.1895  0.3066
 6894TIP3    H142097   0.185   4.567  12.108  0.0814 -0.0767 -0.2291
 6894TIP3    H242098   0.244   4.437  12.057 -0.2029 -0.5968  0.7517
 6895TIP3   OH242099   3.725   6.748   5.789  0.4005  0.0259 -0.1835
 6895TIP3    H142100   3.692   6.792   5.867  2.1015  1.3959 -0.1785
 6895TIP3    H242101   3.821   6.754   5.797  0.7972 -3.8081 -0.1452
 6896TIP3   OH242102   6.249   2.106   4.393 -0.3698  0.0902 -0.6206
 6896TIP3    H142103   6.230   2.073   4.305 -1.0929  0.6603 -0.6854
 6896TIP3    H242104   6.216   2.037   4.452  2.3996 -1.5172 -0.7744
 6897TIP3   OH242105   5.122   3.213  16.995 -0.3841 -0.1795 -0.1205
 6897TIP3    H142106   5.114   3.236  16.903 -2.3248 -1.8874 -0.4723
 6897TIP3    H242107   5.040   3.242  17.034  1.2555  2.4961  1.6410
 6898TIP3   OH242108   3.149   4.983   4.397 -0.3205  0.5026 -0.2194
 6898TIP3    H142109   3.146   5.050   4.329  0.1893  0.3763 -0.3718
 6898TIP3    H242110   3.122   4.903   4.352 -0.5454  0.5297 -0.1328
 6899TIP3   OH242111   6.130   3.019  13.456 -0.6544 -0.1178  0.3439
 6899TIP3    H142112   6.207   3.047  13.408 -1.6634  0.1455 -1.1937
 6899TIP3    H242113   6.058   3.067  13.416 -1.4941  0.6044  2.5657
 6900TIP3   OH242114   6.770   0.967  12.378 -0.3165  0.1351  0.3849
 6900TIP3    H142115   6.735   0.920  12.454 -0.1176 -0.0360  0.3718
 6900TIP3    H242116   6.732   0.923  12.303 -1.7670  1.2738  0.3922
 6901TIP3   OH242117   3.877   4.080   5.576  0.6794  0.7257 -0.0853
 6901TIP3    H142118   3.871   4.128   5.658  1.9721  0.5803  0.1205
 6901TIP3    H242119   3.797   4.028   5.572  1.3322 -0.5562  1.9383
 6902TIP3   OH242120   5.791   2.259  15.121  0.0540  0.3290 -0.1219
 6902TIP3    H142121   5.706   2.298  15.100  0.2890  0.0922 -1.6566
 6902TIP3    H242122   5.855   2.319  15.083  0.4351 -1.2689 -2.1892
 6903TIP3   OH242123   6.710   3.569   3.101  0.6284  0.0941  0.9495
 6903TIP3    H142124   6.778   3.529   3.048  0.1730  0.2637  0.2172
 6903TIP3    H242125   6.746   3.654   3.128  0.0885  0.9600 -0.8852
 6904TIP3   OH242126   6.753   2.439  12.162 -0.4643  0.3677 -0.5895
 6904TIP3    H142127   6.747   2.413  12.071 -0.1712  1.5709 -0.9763
 6904TIP3    H242128   6.847   2.449  12.178 -0.5802  2.1291 -0.7750
 6905TIP3   OH242129   4.752   0.094  12.685 -0.1625 -0.1789 -0.3442
 6905TIP3    H142130   4.743   0.165  12.748 -0.2234 -0.1302 -0.4075
 6905TIP3    H242131   4.787   0.021  12.736  0.3900  0.0523 -0.3875
 6906TIP3   OH242132   0.279   0.865  15.557  0.3595 -0.2976 -0.0377
 6906TIP3    H142133   0.263   0.904  15.643  1.0428  1.0385 -0.5040
 6906TIP3    H242134   0.223   0.914  15.497 -0.0158 -1.1351 -0.3936
 6907TIP3   OH242135   6.684   2.691   1.183  0.1326  0.3911  0.0149
 6907TIP3    H142136   6.637   2.771   1.203  0.8052  1.1523 -1.2846
 6907TIP3    H242137   6.776   2.719   1.177  0.4175 -0.5486 -0.1018
 6908TIP3   OH242138   2.627   6.574  15.334  0.4630 -0.4469 -0.7436
 6908TIP3    H142139   2.669   6.575  15.420  0.3257  1.3405 -0.6443
 6908TIP3    H242140   2.570   6.497  15.335  0.8001 -0.7034  0.5892
 6909TIP3   OH242141   1.020   2.752  14.596  1.0390  0.3358 -0.1799
 6909TIP3    H142142   1.025   2.729  14.503 -0.0403 -1.8868  0.2613
 6909TIP3    H242143   1.077   2.690  14.640 -1.3173 -1.1551  0.9737
 6910TIP3   OH242144   0.654   2.230  13.803  0.5056  0.7086  0.2860
 6910TIP3    H142145   0.714   2.281  13.749  2.2603 -1.3833  0.1563
 6910TIP3    H242146   0.625   2.292  13.870  2.2344  1.9991 -0.0726
 6911TIP3   OH242147   5.399   5.320  16.525 -0.1822  0.0473  0.5229
 6911TIP3    H142148   5.307   5.302  16.544 -0.1302 -1.8063 -0.7296
 6911TIP3    H242149   5.437   5.341  16.610 -1.3763 -0.9921  1.3562
 6912TIP3   OH242150   1.682   6.421  11.889  0.0973  0.8216  0.1127
 6912TIP3    H142151   1.621   6.477  11.937  0.2076 -0.3297  1.6592
 6912TIP3    H242152   1.767   6.463  11.901  0.3706 -0.2319  2.2740
 6913TIP3   OH242153   1.955   3.663  16.706 -0.2600  0.4208 -0.2045
 6913TIP3    H142154   1.892   3.621  16.765  0.7681 -1.7401 -0.5697
 6913TIP3    H242155   1.944   3.616  16.623  1.3342  0.4742 -0.4665
 6914TIP3   OH242156   0.863   3.174  14.652 -0.1254 -0.1464  1.1064
 6914TIP3    H142157   0.822   3.088  14.647 -0.7544  0.2277 -1.4615
 6914TIP3    H242158   0.957   3.156  14.648 -0.2758 -0.6968 -0.5438
 6915TIP3   OH242159   0.907   3.295   2.481 -0.4400 -0.5373  0.1792
 6915TIP3    H142160   0.992   3.259   2.456 -1.0352 -1.8904 -0.0209
 6915TIP3    H242161   0.883   3.354   2.409  0.0159 -0.6879 -0.0974
 6916TIP3   OH242162   0.974   2.199   1.076  0.0114  0.4175 -0.0879
 6916TIP3    H142163   1.068   2.200   1.093 -0.1505  0.2864  0.8732
 6916TIP3    H242164   0.948   2.108   1.094 -0.2744  0.4172 -0.4901
 6917TIP3   OH242165   1.391   0.172  13.527 -0.5017  0.1835 -0.3792
 6917TIP3    H142166   1.358   0.261  13.526 -0.2018  0.2936 -0.5370
 6917TIP3    H242167   1.395   0.147  13.434 -2.0816 -0.5506 -0.2745
 6918TIP3   OH242168   4.862   1.849   2.869 -0.2414  0.2447  0.6056
 6918TIP3    H142169   4.836   1.932   2.909 -2.0883  1.5019 -2.7810
 6918TIP3    H242170   4.944   1.868   2.825 -0.3874  0.1238  0.2798
 6919TIP3   OH242171   5.786   4.844  13.268 -0.3332  0.0695  0.3035
 6919TIP3    H142172   5.814   4.789  13.341  0.7041 -0.2765 -0.3335
 6919TIP3    H242173   5.779   4.932  13.305 -1.1924 -0.3300  1.1328
 6920TIP3   OH242174   3.532   0.737   2.618 -0.0104 -0.1650 -0.3669
 6920TIP3    H142175   3.450   0.783   2.601 -0.3431 -0.6063 -0.0034
 6920TIP3    H242176   3.590   0.803   2.656 -0.8302 -0.2594  1.1406
 6921TIP3   OH242177   0.801   6.339  14.087  0.5363  0.3044 -0.2201
 6921TIP3    H142178   0.790   6.306  13.998  1.7355 -0.5305 -0.0882
 6921TIP3    H242179   0.768   6.428  14.084 -1.2146 -0.3104 -1.0312
 6922TIP3   OH242180   5.143   6.518  11.923  0.3594 -0.1376  0.3066
 6922TIP3    H142181   5.183   6.569  11.852 -1.7331  1.5469  0.1936
 6922TIP3    H242182   5.179   6.430  11.914  1.6514  0.5273 -1.5975
 6923TIP3   OH242183   3.545   2.093  13.500  0.5601  0.5504  0.5507
 6923TIP3    H142184   3.472   2.033  13.514  0.3034  0.0866 -2.2206
 6923TIP3    H242185   3.504   2.179  13.495  0.3217  0.4173  0.1223
 6924TIP3   OH242186   1.491   4.856   1.667 -0.6296 -0.5183  0.0215
 6924TIP3    H142187   1.525   4.901   1.590 -1.1657  0.8993  0.5800
 6924TIP3    H242188   1.411   4.814   1.637 -0.3210 -0.8024 -0.4193
 6925TIP3   OH242189   2.412   4.779  14.266  0.5868  0.0315 -0.0321
 6925TIP3    H142190   2.502   4.748  14.253 -0.2777 -1.8817 -2.0251
 6925TIP3    H242191   2.383   4.734  14.345  0.6944 -1.0936 -0.6165
 6926TIP3   OH242192   0.224   6.646   1.986 -0.5176  0.1212 -0.1316
 6926TIP3    H142193   0.295   6.586   1.963 -0.3449  0.0040  0.6959
 6926TIP3    H242194   0.148   6.590   1.997 -0.8341  0.2793 -1.3333
 6927TIP3   OH242195   5.873   2.333  11.999 -0.2061 -0.0416 -0.1713
 6927TIP3    H142196   5.919   2.272  12.056  0.8826  0.4500 -0.4970
 6927TIP3    H242197   5.781   2.308  12.007  0.1482 -1.3394  0.1578
 6928TIP3   OH242198   0.273   5.812   5.107  0.0200  0.0542 -0.4999
 6928TIP3    H142199   0.288   5.888   5.051  0.5128 -1.2774 -2.2701
 6928TIP3    H242200   0.303   5.737   5.055 -1.7503 -1.5166  0.5777
 6929TIP3   OH242201   5.934   1.670   1.262  0.3237  0.6795 -0.2076
 6929TIP3    H142202   5.961   1.679   1.354  1.3099  0.2478 -0.4393
 6929TIP3    H242203   5.854   1.617   1.266 -0.3306  1.6738  0.4779
 6930TIP3   OH242204   1.630   3.954  16.315  0.0564  0.1782 -0.1545
 6930TIP3    H142205   1.692   3.960  16.243 -0.4600  0.2891 -0.5954
 6930TIP3    H242206   1.680   3.980  16.392  0.4393  0.7001 -0.5724
 6931TIP3   OH242207   3.168   0.390   3.776  0.0133  0.2517 -0.0228
 6931TIP3    H142208   3.166   0.359   3.686 -1.2438  1.4055 -0.4249
 6931TIP3    H242209   3.234   0.460   3.775  0.4494 -0.1528  0.1090
 6932TIP3   OH242210   2.698   5.096   4.842 -0.1588  1.2759 -0.1512
 6932TIP3    H142211   2.786   5.062   4.822 -0.9673 -0.0815 -1.6126
 6932TIP3    H242212   2.688   5.171   4.783  0.5857  2.4642  1.1596
 6933TIP3   OH242213   4.873   4.692   0.709 -0.2492  0.4831  0.0945
 6933TIP3    H142214   4.967   4.701   0.727  0.0050 -0.0869 -0.8549
 6933TIP3    H242215   4.861   4.733   0.623 -0.8049  0.2571  0.0605
 6934TIP3   OH242216   5.182   1.388  11.008 -0.8169  0.1414 -0.0997
 6934TIP3    H142217   5.249   1.406  10.942 -1.6366 -0.2330 -1.0674
 6934TIP3    H242218   5.212   1.308  11.052 -0.6253 -0.0248 -0.5270
 6935TIP3   OH242219   0.392   3.313   1.866 -0.7200  0.5575  0.1898
 6935TIP3    H142220   0.417   3.396   1.826 -1.3781  0.8233  0.3267
 6935TIP3    H242221   0.298   3.320   1.880 -1.4328 -1.3694 -2.6118
 6936TIP3   OH242222   1.222   1.794  11.616 -0.1635  0.4696  0.6761
 6936TIP3    H142223   1.202   1.872  11.667 -1.2555  1.2150 -0.8195
 6936TIP3    H242224   1.137   1.758  11.593  0.3227 -1.4475  1.7062
 6937TIP3   OH242225   2.958   1.893   3.680 -0.2855 -0.6032  0.2440
 6937TIP3    H142226   2.991   1.890   3.769 -0.5197 -0.8906  0.3189
 6937TIP3    H242227   2.937   1.803   3.658 -1.4417 -0.3734  0.3514
 6938TIP3   OH242228   0.935   2.773   5.639  1.1036  0.5823  0.3405
 6938TIP3    H142229   1.022   2.802   5.610  1.1746  1.3817  1.2532
 6938TIP3    H242230   0.953   2.698   5.696  0.9840 -0.8078 -1.3825
 6939TIP3   OH242231   0.708   3.739  13.948  0.5596  0.1109 -0.5057
 6939TIP3    H142232   0.689   3.650  13.920 -1.3635  0.0430  0.8074
 6939TIP3    H242233   0.674   3.795  13.879 -1.2900 -0.1292  0.1674
 6940TIP3   OH242234   5.422   6.604   6.496  0.0310  0.2031 -0.0886
 6940TIP3    H142235   5.424   6.578   6.588  1.4748  0.1059 -0.1233
 6940TIP3    H242236   5.502   6.565   6.458  0.3427  1.6323 -0.9810
 6941TIP3   OH242237   5.008   0.806  10.784  0.2296  0.1456 -0.2142
 6941TIP3    H142238   5.100   0.789  10.766 -0.3248 -1.5669 -1.6952
 6941TIP3    H242239   5.009   0.871  10.854  2.5460  0.3330 -0.3466
 6942TIP3   OH242240   6.013   5.543   0.225  0.3851  0.3740 -0.0010
 6942TIP3    H142241   5.967   5.523   0.306  0.9912 -0.2428  0.2039
 6942TIP3    H242242   6.101   5.569   0.254  1.0638 -1.2397 -0.5107
 6943TIP3   OH242243   2.675   0.588  16.210  0.5571  0.1897 -0.3337
 6943TIP3    H142244   2.645   0.652  16.275  2.8888 -1.4249  2.5983
 6943TIP3    H242245   2.767   0.611  16.194  0.7481 -1.0026 -1.0829
 6944TIP3   OH242246   3.751   2.874   3.080 -0.0073  0.4919  0.4764
 6944TIP3    H142247   3.716   2.955   3.042 -0.7181 -0.0259  0.0003
 6944TIP3    H242248   3.675   2.830   3.118  0.6345  0.8273  2.2385
 6945TIP3   OH242249   6.277   3.643  16.581  0.4662  0.1965  0.9960
 6945TIP3    H142250   6.232   3.560  16.598  2.0524 -0.7494  0.7902
 6945TIP3    H242251   6.212   3.710  16.599 -1.2893 -1.1252 -0.1772
 6946TIP3   OH242252   2.430   0.276  16.278 -0.4134 -0.1850 -0.1138
 6946TIP3    H142253   2.453   0.332  16.352 -1.2705 -0.1626  0.1390
 6946TIP3    H242254   2.503   0.288  16.216 -0.2050  0.6066  0.2685
 6947TIP3   OH242255   6.482   6.105  14.151 -0.2993 -0.2683 -0.3186
 6947TIP3    H142256   6.464   6.188  14.194  1.0522  0.0324 -0.2895
 6947TIP3    H242257   6.431   6.108  14.070 -0.4385  0.4974 -0.2062
 6948TIP3   OH242258   2.507   4.962  12.865  0.3650 -0.0282  0.0194
 6948TIP3    H142259   2.598   4.993  12.862  0.3113  0.1278 -0.0063
 6948TIP3    H242260   2.459   5.025  12.812  0.5432 -1.1670 -1.5863
 6949TIP3   OH242261   3.732   3.459   5.443 -0.4661  0.4403  0.1873
 6949TIP3    H142262   3.780   3.379   5.422  0.2257  1.1212 -0.9167
 6949TIP3    H242263   3.701   3.445   5.532 -0.5788 -1.1553 -0.0662
 6950TIP3   OH242264   5.813   1.926  12.001 -0.1148  0.7605  0.6415
 6950TIP3    H142265   5.885   1.938  12.063 -0.1679  3.2950  0.3256
 6950TIP3    H242266   5.848   1.867  11.934  0.2321 -1.3494  2.5539
 6951TIP3   OH242267   1.025   3.129   1.439  0.0271 -0.0074  0.1291
 6951TIP3    H142268   0.955   3.113   1.502 -1.6488 -1.1461 -1.9015
 6951TIP3    H242269   1.094   3.172   1.490 -2.2405  1.4571  2.1496
 6952TIP3   OH242270   5.175   5.406  11.645 -0.0479 -0.4754  0.1428
 6952TIP3    H142271   5.244   5.346  11.671  0.3833  0.0797  0.2950
 6952TIP3    H242272   5.189   5.484  11.699 -1.7356 -0.9316  1.3046
 6953TIP3   OH242273   6.098   3.160  12.279  0.1205  0.0736 -0.6553
 6953TIP3    H142274   6.090   3.242  12.329  0.3054 -0.6730  0.6482
 6953TIP3    H242275   6.120   3.094  12.345  0.8041 -0.8819 -1.8039
 6954TIP3   OH242276   3.625   5.490  16.233 -0.6709 -0.2698 -0.1170
 6954TIP3    H142277   3.653   5.428  16.165  0.6720 -1.2577  1.2639
 6954TIP3    H242278   3.683   5.566  16.222 -1.0815 -0.0326 -0.6536
 6955TIP3   OH242279   6.113   5.866  15.035 -0.0252 -0.4444 -0.2031
 6955TIP3    H142280   6.078   5.936  15.091  2.1094 -0.7800  1.7335
 6955TIP3    H242281   6.113   5.904  14.947 -1.3650  0.9970  0.3616
 6956TIP3   OH242282   2.498   5.460   0.742  0.2404  0.5373 -0.0194
 6956TIP3    H142283   2.562   5.407   0.789  0.7401  0.4819 -0.7487
 6956TIP3    H242284   2.414   5.438   0.783  0.3700 -1.1259 -0.5638
 6957TIP3   OH242285   1.812   0.400  15.410 -0.1013 -0.5181  0.7012
 6957TIP3    H142286   1.809   0.483  15.458 -0.3247 -0.5200  0.6952
 6957TIP3    H242287   1.791   0.334  15.477 -0.5939 -0.5035  0.5661
 6958TIP3   OH242288   3.853   2.152  13.987 -0.0616 -0.6732  0.3123
 6958TIP3    H142289   3.915   2.087  13.955 -0.3155 -1.1582  0.7918
 6958TIP3    H242290   3.799   2.173  13.911  0.6883 -0.2402 -0.1131
 6959TIP3   OH242291   1.525   3.375  15.769 -0.6075 -0.3477 -0.0217
 6959TIP3    H142292   1.597   3.428  15.804  0.3133 -1.3956 -0.2913
 6959TIP3    H242293   1.478   3.435  15.710  1.2859 -0.1922 -1.4749
 6960TIP3   OH242294   3.372   6.232  15.126  0.5900 -0.2618  0.2317
 6960TIP3    H142295   3.375   6.142  15.159  0.1687  0.2727  1.7961
 6960TIP3    H242296   3.447   6.275  15.165 -0.5042  0.6580  1.4122
 6961TIP3   OH242297   4.721   4.445  14.376 -0.2772  0.1451  0.3307
 6961TIP3    H142298   4.639   4.494  14.368 -1.0219 -1.1620 -0.3440
 6961TIP3    H242299   4.753   4.468  14.463 -2.3140 -0.6994  1.3817
 6962TIP3   OH242300   2.263   5.749   1.720  0.1011 -0.5988  0.0574
 6962TIP3    H142301   2.300   5.684   1.779  0.5768 -2.4364 -2.1716
 6962TIP3    H242302   2.185   5.781   1.767  0.1735 -2.3311  1.4723
 6963TIP3   OH242303   5.668   1.705  14.272  0.0580 -0.2279 -0.2965
 6963TIP3    H142304   5.723   1.753  14.211 -0.4725  1.2082  0.3010
 6963TIP3    H242305   5.599   1.668  14.218  0.6477 -0.5766 -0.8139
 6964TIP3   OH242306   1.519   3.137   1.534 -0.2699 -0.3105 -0.1476
 6964TIP3    H142307   1.567   3.065   1.493  0.6991  0.7366 -0.8980
 6964TIP3    H242308   1.581   3.176   1.595 -0.9127 -0.3271  0.5391
 6965TIP3   OH242309   4.583   6.512  14.128 -0.1068 -0.0871 -0.3417
 6965TIP3    H142310   4.558   6.474  14.212  0.4496 -1.0082 -0.5723
 6965TIP3    H242311   4.505   6.503  14.073 -0.7141  1.1865  0.2767
 6966TIP3   OH242312   3.865   1.857  13.280 -0.5787 -0.2177  0.6340
 6966TIP3    H142313   3.870   1.851  13.375  0.9896 -1.5002  0.5180
 6966TIP3    H242314   3.940   1.911  13.255  0.1299 -1.4248  0.0501
 6967TIP3   OH242315   6.625   6.461  12.293 -1.1824  0.3572  0.5102
 6967TIP3    H142316   6.706   6.410  12.291 -2.2562 -1.5015 -2.3582
 6967TIP3    H242317   6.573   6.420  12.362 -2.3876 -3.4222 -2.2755
 6968TIP3   OH242318   3.476   2.843  14.480 -0.0018  0.4093 -0.3871
 6968TIP3    H142319   3.564   2.825  14.447 -0.5697 -0.6965 -1.3692
 6968TIP3    H242320   3.473   2.802  14.567  0.1290 -0.4661 -0.7883
 6969TIP3   OH242321   2.887   6.234  16.729  0.2398  0.0644  0.4708
 6969TIP3    H142322   2.960   6.187  16.688  0.8758  0.5922  0.9716
 6969TIP3    H242323   2.885   6.202  16.819 -0.3765 -0.2044  0.3656
 6970TIP3   OH242324   2.842   4.576  17.018  0.1961  0.3866  0.2850
 6970TIP3    H142325   2.799   4.614  17.094  0.3080 -1.2063  1.1714
 6970TIP3    H242326   2.928   4.619  17.016 -0.2844  1.3764  0.2741
 6971TIP3   OH242327   2.162   3.872  12.148 -0.0755 -0.2828 -0.3574
 6971TIP3    H142328   2.147   3.908  12.061  1.9226  1.4807 -0.0424
 6971TIP3    H242329   2.143   3.778  12.139  0.6845 -0.2550 -2.8462
 6972TIP3   OH242330   0.038   4.056   3.077  0.2773  0.1570 -0.1333
 6972TIP3    H142331   0.014   3.979   3.128  1.6545 -1.5360 -1.9141
 6972TIP3    H242332  -0.031   4.120   3.096 -1.0110 -1.5612  1.2344
 6973TIP3   OH242333   2.789   4.150   5.582  0.0666 -0.0513 -0.2940
 6973TIP3    H142334   2.867   4.115   5.625  0.9250  1.1906 -0.7640
 6973TIP3    H242335   2.800   4.128   5.490 -0.2478 -0.0613 -0.3289
 6974TIP3   OH242336   3.013   3.187  14.155 -0.5614  0.1873 -0.3556
 6974TIP3    H142337   2.970   3.271  14.170 -2.7073 -0.7683 -0.7923
 6974TIP3    H242338   2.988   3.133  14.230  0.5514 -0.1699 -0.2269
 6975TIP3   OH242339   3.066   1.151  12.924  0.1868  0.1818 -0.5984
 6975TIP3    H142340   3.011   1.154  13.003 -0.3251 -1.6023 -0.8390
 6975TIP3    H242341   3.007   1.117  12.856  1.4242 -1.2161 -1.0070
 6976TIP3   OH242342   1.568   5.641   4.905 -0.0161  0.1906 -0.3193
 6976TIP3    H142343   1.532   5.583   4.838  2.2923 -0.1744 -1.3640
 6976TIP3    H242344   1.497   5.702   4.925 -1.0437 -0.1416 -2.5974
 6977TIP3   OH242345   0.142   4.694  16.500  0.0434  0.6348 -0.3832
 6977TIP3    H142346   0.235   4.676  16.488 -0.0503  0.2822 -0.6063
 6977TIP3    H242347   0.100   4.659  16.421 -0.3022  0.5878 -0.1817
 6978TIP3   OH242348   0.966   2.015   3.753 -0.1321  0.5777  0.1407
 6978TIP3    H142349   0.969   1.922   3.729  0.3760  0.8406 -0.8517
 6978TIP3    H242350   1.027   2.022   3.826  0.4038  0.2636 -0.2697
 6979TIP3   OH242351   2.261   5.461  15.182  0.0689 -0.1650 -0.3121
 6979TIP3    H142352   2.249   5.526  15.251  0.7667  0.8647 -1.1300
 6979TIP3    H242353   2.236   5.507  15.102  0.1715 -1.0467 -0.8581
 6980TIP3   OH242354   4.838   1.004  16.978 -0.0425  0.0252  0.4257
 6980TIP3    H142355   4.756   0.957  16.968 -0.9688  1.6302  0.2526
 6980TIP3    H242356   4.817   1.095  16.958  1.8802  0.4019 -0.0884
 6981TIP3   OH242357   4.478   5.002   1.055 -0.1189  0.1428  0.0772
 6981TIP3    H142358   4.436   5.059   0.990 -0.9737 -0.5462 -0.0060
 6981TIP3    H242359   4.537   5.060   1.103  0.0971  0.7893 -0.9317
 6982TIP3   OH242360   0.644   3.564   4.912 -0.0006  0.3669  0.3061
 6982TIP3    H142361   0.575   3.520   4.962  0.5122 -1.1833 -0.2594
 6982TIP3    H242362   0.608   3.573   4.824  1.0245 -1.9611 -0.4368
 6983TIP3   OH242363   3.631   5.818  15.763  0.0956  0.4500 -0.2685
 6983TIP3    H142364   3.711   5.798  15.812 -1.2461 -1.0302  1.4326
 6983TIP3    H242365   3.561   5.810  15.827 -1.6072 -0.1336 -2.1204
 6984TIP3   OH242366   2.110   5.208  10.499  0.2659  0.1690 -0.5579
 6984TIP3    H142367   2.062   5.156  10.563  0.8927  0.5481  0.2440
 6984TIP3    H242368   2.163   5.268  10.552  0.2669  0.9779 -1.4415
 6985TIP3   OH242369   6.402   4.849  15.790  0.2564 -0.3110  0.1245
 6985TIP3    H142370   6.384   4.906  15.715  0.3211 -0.5092 -0.0423
 6985TIP3    H242371   6.449   4.905  15.851  0.3028 -0.1788 -0.0307
 6986TIP3   OH242372   4.871   0.713  13.653  0.5711  0.3436  0.0733
 6986TIP3    H142373   4.837   0.624  13.650 -0.0136  0.5880 -1.2432
 6986TIP3    H242374   4.833   0.756  13.577  2.4272  1.1565 -0.4606
 6987TIP3   OH242375   1.797   5.399  13.202 -0.1334  0.1124  0.1346
 6987TIP3    H142376   1.837   5.394  13.288 -1.2465  0.7527  0.7109
 6987TIP3    H242377   1.718   5.344  13.208 -0.8881  1.1427 -0.0715
 6988TIP3   OH242378   2.385   6.367  15.385  0.1621  0.0847  0.0618
 6988TIP3    H142379   2.371   6.276  15.356  3.3016 -0.0999 -1.3360
 6988TIP3    H242380   2.307   6.414  15.354 -1.3612 -1.9954  0.4670
 6989TIP3   OH242381   3.693   2.499   2.351 -0.1802  0.6283 -0.2883
 6989TIP3    H142382   3.652   2.569   2.302  1.0511  1.3838 -0.2961
 6989TIP3    H242383   3.682   2.421   2.297  0.1371  1.2191 -1.2235
 6990TIP3   OH242384   1.289   2.967  14.917 -0.4276  0.1963  0.1602
 6990TIP3    H142385   1.351   3.030  14.880  0.9598  0.1865  2.3117
 6990TIP3    H242386   1.342   2.911  14.974 -2.4289  0.5162  2.5123
 6991TIP3   OH242387   4.879   4.014  16.043 -0.2474  0.5111  0.1953
 6991TIP3    H142388   4.837   3.977  15.966  0.0871 -1.6929  0.9965
 6991TIP3    H242389   4.961   4.052  16.010 -0.0780 -0.4525 -0.5451
 6992TIP3   OH242390   0.669   4.318  12.838 -0.0488  0.0213 -0.2118
 6992TIP3    H142391   0.747   4.370  12.817  0.1447  0.3460  1.1830
 6992TIP3    H242392   0.697   4.227  12.824  0.7888  0.0966  0.8285
 6993TIP3   OH242393   3.228   0.155   5.052 -0.0468 -0.1117  0.3847
 6993TIP3    H142394   3.171   0.231   5.066  0.2534  0.4969 -1.4738
 6993TIP3    H242395   3.298   0.165   5.116 -0.3231  0.8846  0.5474
 6994TIP3   OH242396   4.360   4.094   0.225 -0.0233  0.0940  0.5281
 6994TIP3    H142397   4.333   4.080   0.134  0.2181 -0.9996  0.6051
 6994TIP3    H242398   4.377   4.188   0.231 -3.1392  0.7770  0.3002
 6995TIP3   OH242399   0.788   1.240  13.356  0.1839  0.3215  0.5098
 6995TIP3    H142400   0.787   1.307  13.288  0.5488 -0.8454 -0.6908
 6995TIP3    H242401   0.706   1.192  13.345 -0.4042  0.9829  1.8153
 6996TIP3   OH242402   2.787   6.422  11.238 -1.0155 -0.3014 -0.2227
 6996TIP3    H142403   2.841   6.479  11.294 -1.5438  0.1753 -0.1928
 6996TIP3    H242404   2.849   6.387  11.173 -0.8170  0.9346 -0.7364
 6997TIP3   OH242405   6.366   0.898  16.988  0.1332 -1.3231  0.4885
 6997TIP3    H142406   6.433   0.911  17.055 -0.5987 -0.3381  1.0470
 6997TIP3    H242407   6.402   0.939  16.909 -0.3742  0.4591  1.1455
 6998TIP3   OH242408   4.304   1.067  11.639  0.1691  0.3967 -0.0520
 6998TIP3    H142409   4.258   1.141  11.598 -1.6575 -0.9623 -0.6030
 6998TIP3    H242410   4.269   0.990  11.594  0.6177 -0.9413  1.7764
 6999TIP3   OH242411   3.010   1.037  10.518 -0.3801  0.3843 -0.0326
 6999TIP3    H142412   2.965   0.962  10.554 -1.4981  0.6583 -0.8118
 6999TIP3    H242413   3.059   1.002  10.443  0.7406  0.0897  0.8059
 7000TIP3   OH242414   0.185   2.343  11.145  0.7398 -0.5050  0.0593
 7000TIP3    H142415   0.202   2.309  11.057  1.5744 -1.2296  0.4871
 7000TIP3    H242416   0.223   2.278  11.204  1.1710  0.5018  0.9335
 7001TIP3   OH242417   0.251   0.544   5.169 -0.4515 -0.5334 -0.2094
 7001TIP3    H142418   0.251   0.543   5.073  0.3948  1.5100 -0.2940
 7001TIP3    H242419   0.315   0.477   5.194  0.9915  0.4106 -1.1930
 7002TIP3   OH242420   1.725   6.029  15.525 -0.2218  0.0845  0.0229
 7002TIP3    H142421   1.765   6.115  15.519  2.5913 -1.0651  0.6505
 7002TIP3    H242422   1.682   6.016  15.441  2.1791  0.8172 -1.4058
 7003TIP3   OH242423   2.880   3.858  12.254 -0.0064  0.4168  0.2589
 7003TIP3    H142424   2.822   3.931  12.274  1.2966  1.3197  0.8892
 7003TIP3    H242425   2.963   3.881  12.297  0.8090 -0.8358 -0.5895
 7004TIP3   OH242426   2.299   6.169  15.197  0.1365 -0.1220  0.0391
 7004TIP3    H142427   2.217   6.140  15.236 -0.9212 -0.2837 -2.1269
 7004TIP3    H242428   2.315   6.107  15.125  2.4030 -0.3507  0.6517
 7005TIP3   OH242429   4.014   0.578   5.642 -0.1687  0.2476 -0.2563
 7005TIP3    H142430   4.047   0.490   5.661  0.4275  0.8863  1.8850
 7005TIP3    H242431   3.974   0.570   5.555  1.5080 -1.6826 -0.9222
 7006TIP3   OH242432   3.177   3.583  13.627  0.4923  0.2782  0.1384
 7006TIP3    H142433   3.240   3.519  13.659  1.3604  1.4815  0.9306
 7006TIP3    H242434   3.131   3.538  13.556  3.6230 -0.0238 -1.9128
 7007TIP3   OH242435   2.500   3.065   5.961 -0.2105 -0.6976 -0.1847
 7007TIP3    H142436   2.514   3.113   5.879  0.1419  0.7105  0.6568
 7007TIP3    H242437   2.408   3.040   5.959 -0.8688  1.4627  0.0279
 7008TIP3   OH242438   6.577   3.898   3.001 -0.7114 -0.1236  0.0101
 7008TIP3    H142439   6.604   3.819   2.955  0.5688  0.3281 -0.0254
 7008TIP3    H242440   6.574   3.966   2.934 -0.3503  0.1874  0.3036
 7009TIP3   OH242441   1.358   1.641  12.957  0.5947 -0.8138  0.2272
 7009TIP3    H142442   1.431   1.630  13.019  0.6335  0.9813  0.5468
 7009TIP3    H242443   1.392   1.609  12.874  1.2924 -1.2312  0.6642
 7010TIP3   OH242444   1.976   6.687   2.995 -0.3074  0.3214 -0.3920
 7010TIP3    H142445   1.935   6.774   2.998  0.7880  0.8251  1.7706
 7010TIP3    H242446   1.983   6.661   3.087 -0.4833 -2.0304 -0.9910
 7011TIP3   OH242447   2.668   4.054   4.946  0.4147 -0.0012  0.3651
 7011TIP3    H142448   2.612   4.025   4.874 -0.7227  0.6288  0.9731
 7011TIP3    H242449   2.740   4.100   4.903  0.5478 -0.9144 -0.4336
 7012TIP3   OH242450   3.082   0.855  14.535  0.1648  0.0193  0.7638
 7012TIP3    H142451   3.098   0.949  14.526  1.4204 -0.3245 -1.0302
 7012TIP3    H242452   3.167   0.814  14.522 -0.2948 -1.3902  1.8698
 7013TIP3   OH242453   2.531   6.034   2.149 -0.0008  0.2373 -0.1411
 7013TIP3    H142454   2.543   5.994   2.062 -2.2037  0.3085 -0.5438
 7013TIP3    H242455   2.558   5.966   2.210  0.9590 -0.0615 -0.8721
 7014TIP3   OH242456   2.474   3.228  17.108 -0.0885  0.3719 -0.1550
 7014TIP3    H142457   2.404   3.274  17.155 -0.5950 -0.4889 -0.0539
 7014TIP3    H242458   2.519   3.177  17.175  2.0472  2.5293  0.1966
 7015TIP3   OH242459   6.496   2.778   1.791 -0.5064 -0.0320 -0.0855
 7015TIP3    H142460   6.563   2.732   1.740 -0.7774 -2.4979  1.6375
 7015TIP3    H242461   6.415   2.767   1.741 -0.1792  0.4156 -0.7216
 7016TIP3   OH242462   4.547   4.031  11.446 -0.4018  0.6721 -0.2653
 7016TIP3    H142463   4.453   4.011  11.448 -0.3515  0.4819  0.3203
 7016TIP3    H242464   4.590   3.947  11.461 -0.1593  0.9215  0.4961
 7017TIP3   OH242465   6.141   0.559   5.288  0.3894  0.5345  0.0016
 7017TIP3    H142466   6.183   0.518   5.364  0.0474  1.0496  0.4770
 7017TIP3    H242467   6.214   0.585   5.232  0.6154 -0.6025 -0.2511
 7018TIP3   OH242468   3.665   0.655  13.081  0.5301  0.1659  0.8025
 7018TIP3    H142469   3.694   0.690  12.996 -1.3941 -1.0135 -0.4104
 7018TIP3    H242470   3.598   0.717  13.111  0.7992  0.2758  1.1801
 7019TIP3   OH242471   4.826   6.307  12.964  0.0306  0.2853 -0.1012
 7019TIP3    H142472   4.851   6.387  13.011 -2.4291  0.3119  1.2893
 7019TIP3    H242473   4.792   6.339  12.880  1.3314  0.4724 -0.5861
 7020TIP3   OH242474   4.926   3.310  15.322 -0.2323 -0.6308  0.4636
 7020TIP3    H142475   4.891   3.334  15.408  0.6302  1.7716  0.2250
 7020TIP3    H242476   4.900   3.219  15.309 -2.4332 -0.3188  2.2315
 7021TIP3   OH242477   4.164   3.494   1.623 -0.0130 -0.4352  0.0598
 7021TIP3    H142478   4.099   3.551   1.664  1.1621  0.5480  0.5896
 7021TIP3    H242479   4.132   3.482   1.534 -0.2166  1.1723 -0.1143
 7022TIP3   OH242480   1.841   4.063  12.327 -0.0367  0.2674 -0.1362
 7022TIP3    H142481   1.935   4.070  12.339 -0.2297  1.2356  0.9323
 7022TIP3    H242482   1.828   4.073  12.232  0.7002  3.4618  0.0161
 7023TIP3   OH242483   2.001   4.215   5.152  0.0212  0.0799  0.0609
 7023TIP3    H142484   2.027   4.140   5.205 -1.2373 -0.9096 -0.6684
 7023TIP3    H242485   2.062   4.214   5.078 -0.7557 -0.9855 -0.5849
 7024TIP3   OH242486   2.090   6.357  16.543  0.4277 -0.3110 -0.4794
 7024TIP3    H142487   2.099   6.426  16.608 -0.9257 -1.2204  0.7467
 7024TIP3    H242488   1.996   6.354  16.525  0.4481 -1.8518 -0.4636
 7025TIP3   OH242489   1.178   4.104   5.656  0.4250 -0.1916  0.3218
 7025TIP3    H142490   1.097   4.082   5.702 -0.4359  0.8956 -0.5958
 7025TIP3    H242491   1.223   4.165   5.715 -1.6280  2.8235 -0.9409
 7026TIP3   OH242492   6.703   3.441  14.064 -0.4078 -0.4042  0.0258
 7026TIP3    H142493   6.650   3.495  14.122  0.1525 -1.9152  2.1081
 7026TIP3    H242494   6.684   3.472  13.976 -1.9283  1.4858  0.9610
 7027TIP3   OH242495   5.379   0.583  15.074  0.6782 -0.1168 -0.1255
 7027TIP3    H142496   5.374   0.638  14.996  1.5553 -0.9555 -0.8037
 7027TIP3    H242497   5.466   0.598  15.108  0.2420  0.3635  0.8048
 7028TIP3   OH242498   2.714   6.409   3.593  0.0767  0.3702  0.3798
 7028TIP3    H142499   2.777   6.357   3.544 -0.2568  0.8004 -0.5191
 7028TIP3    H242500   2.638   6.417   3.536 -0.8307 -0.1653  1.4661
 7029TIP3   OH242501   1.473   5.440  11.175 -0.0873 -0.7621 -0.6239
 7029TIP3    H142502   1.425   5.357  11.173 -0.9900 -0.2617 -0.0027
 7029TIP3    H242503   1.426   5.497  11.114 -0.0319 -0.4094 -0.3420
 7030TIP3   OH242504   1.121   5.743   1.167 -0.1263  0.4168 -0.0483
 7030TIP3    H142505   1.207   5.785   1.161 -0.6499  1.3272 -1.7637
 7030TIP3    H242506   1.062   5.801   1.119 -1.3590 -1.0767 -0.4316
 7031TIP3   OH242507   1.964   0.857   1.624  0.6005 -0.0296  0.1606
 7031TIP3    H142508   1.907   0.842   1.699 -1.0175  0.7458 -0.8623
 7031TIP3    H242509   1.983   0.951   1.627  2.0487 -0.3190  0.6174
 7032TIP3   OH242510   5.679   0.789   3.015  0.0183  0.1650  0.0021
 7032TIP3    H142511   5.711   0.732   2.945 -2.1960 -1.7337  0.3886
 7032TIP3    H242512   5.606   0.837   2.975  0.6045  1.2809  0.2366
 7033TIP3   OH242513   2.939   1.629   1.494 -0.2983  0.2141 -0.8365
 7033TIP3    H142514   2.937   1.630   1.399  1.6011 -0.3486 -0.9149
 7033TIP3    H242515   3.025   1.664   1.517 -1.2020  1.5418  0.7304
 7034TIP3   OH242516   5.470   5.709   3.915 -0.1209  0.0283  0.6114
 7034TIP3    H142517   5.395   5.654   3.895  0.8355 -0.8250 -0.8335
 7034TIP3    H242518   5.443   5.797   3.889 -0.5399 -0.3097 -0.1293
 7035TIP3   OH242519   3.877   4.063  15.039 -0.0812  0.0029  0.3461
 7035TIP3    H142520   3.935   4.082  14.965  1.0297 -2.2029  0.5727
 7035TIP3    H242521   3.872   3.968  15.043 -3.7720  0.0599  0.3989
 7036TIP3   OH242522   1.631   3.828  11.698 -0.3776 -0.7061  0.1405
 7036TIP3    H142523   1.547   3.802  11.659 -0.3446 -1.2685  0.4228
 7036TIP3    H242524   1.697   3.781  11.647 -0.2198 -0.1762 -0.1527
 7037TIP3   OH242525   4.461   0.631   0.330 -0.1412 -0.3894 -0.1466
 7037TIP3    H142526   4.494   0.550   0.369 -1.7147 -1.0149 -0.0543
 7037TIP3    H242527   4.429   0.682   0.404 -1.3184 -0.7284 -0.3987
 7038TIP3   OH242528   1.623   4.473  16.148 -0.0341  0.3278  0.4492
 7038TIP3    H142529   1.673   4.530  16.089 -1.9858  0.7061 -0.9353
 7038TIP3    H242530   1.686   4.408  16.178  1.7952  2.0301  0.4916
 7039TIP3   OH242531   6.566   0.544   1.358 -0.0326 -0.0243  0.1035
 7039TIP3    H142532   6.534   0.454   1.365  0.8313 -0.4013 -0.5754
 7039TIP3    H242533   6.559   0.564   1.264 -1.6217  1.1711  0.4272
 7040TIP3   OH242534   2.722   1.443  16.471 -0.2920 -0.5422 -0.0466
 7040TIP3    H142535   2.628   1.438  16.455 -0.2686 -0.1535 -0.3419
 7040TIP3    H242536   2.735   1.530  16.510  0.3419  0.8294 -3.0645
 7041TIP3   OH242537   1.400   6.717  12.834 -0.4530  0.3179  0.5639
 7041TIP3    H142538   1.373   6.655  12.902  0.0529  1.0293  1.4283
 7041TIP3    H242539   1.423   6.797  12.882  1.9955  0.1584 -0.2202
 7042TIP3   OH242540   0.198   4.174   5.867 -0.0327 -0.7867 -0.1972
 7042TIP3    H142541   0.266   4.219   5.916  0.6123 -1.5514 -0.3709
 7042TIP3    H242542   0.150   4.244   5.822 -0.4641 -0.1008  1.2667
 7043TIP3   OH242543   2.756   1.316   4.942 -0.1770  0.1160 -0.0492
 7043TIP3    H142544   2.682   1.279   4.991 -0.9147  1.0718 -0.4341
 7043TIP3    H242545   2.832   1.271   4.978 -0.9729 -1.2311  0.0338
 7044TIP3   OH242546   1.792   5.514   3.649  0.1400 -0.4560 -0.2893
 7044TIP3    H142547   1.759   5.520   3.738  0.5451 -0.9372 -0.1045
 7044TIP3    H242548   1.882   5.486   3.658  0.6818  1.0015 -0.7810
 7045TIP3   OH242549   5.250   2.383  16.820 -0.0309  0.6673 -0.7262
 7045TIP3    H142550   5.305   2.320  16.773  0.7486  1.3402 -0.7362
 7045TIP3    H242551   5.281   2.469  16.791 -1.2790  1.0699 -0.9473
 7046TIP3   OH242552   6.554   4.796   5.365 -0.4272  0.9240 -0.5419
 7046TIP3    H142553   6.490   4.738   5.322  0.7967 -0.4174 -0.6579
 7046TIP3    H242554   6.540   4.782   5.458 -2.1004  2.7272 -0.4621
 7047TIP3   OH242555   2.285   4.255  16.734 -0.4985 -0.1711 -0.2099
 7047TIP3    H142556   2.219   4.202  16.779 -1.7321  0.5103 -1.1559
 7047TIP3    H242557   2.358   4.194  16.719 -0.2450 -0.5542  2.1753
 7048TIP3   OH242558   5.051   2.554   3.665  0.4883 -0.1993 -0.1779
 7048TIP3    H142559   4.960   2.557   3.637  0.6303 -1.5198 -0.8666
 7048TIP3    H242560   5.096   2.615   3.606  0.2703 -0.6274 -0.8021
 7049TIP3   OH242561   0.153   3.330   0.716  0.3004  0.0874  0.4909
 7049TIP3    H142562   0.083   3.279   0.676  0.0243 -0.0934  1.1758
 7049TIP3    H242563   0.169   3.286   0.800  1.0708  0.2643  0.4451
 7050TIP3   OH242564   4.261   6.316   2.566 -0.1691 -0.3434  0.4796
 7050TIP3    H142565   4.322   6.389   2.579  0.6330 -1.2143  1.8258
 7050TIP3    H242566   4.302   6.261   2.500  0.6386 -1.0383  1.5384
 7051TIP3   OH242567   3.350   3.544   5.703  0.3861  0.3236 -0.0676
 7051TIP3    H142568   3.341   3.493   5.784 -1.2832  0.6984  0.0171
 7051TIP3    H242569   3.374   3.479   5.637  2.5814  0.1351  0.8407
 7052TIP3   OH242570   6.476   2.269   1.909 -0.5380  0.5095 -0.1012
 7052TIP3    H142571   6.552   2.271   1.968  0.6091  2.1056 -1.5462
 7052TIP3    H242572   6.503   2.319   1.833 -2.3929 -0.5257 -1.5249
 7053TIP3   OH242573   1.772   2.679  14.035  0.3896 -0.0038 -0.2434
 7053TIP3    H142574   1.757   2.703  13.944 -1.8848 -0.4339 -0.0340
 7053TIP3    H242575   1.757   2.585  14.038  0.8919 -0.0689  0.5096
 7054TIP3   OH242576   4.701   4.429   6.015 -0.3561 -0.1840  0.5151
 7054TIP3    H142577   4.611   4.410   6.039  0.0714 -0.6984  1.7743
 7054TIP3    H242578   4.751   4.352   6.043  0.4134 -0.0951 -0.5584
 7055TIP3   OH242579   4.226   2.943  12.172  0.1973  0.5442 -0.2128
 7055TIP3    H142580   4.273   2.926  12.253 -0.1939  1.4102  0.2100
 7055TIP3    H242581   4.167   2.868  12.162  0.8044  0.0493 -0.1159
 7056TIP3   OH242582   0.839   4.152   1.954 -0.3208 -0.0996  0.0554
 7056TIP3    H142583   0.827   4.069   1.909  0.0806 -0.6879  1.0049
 7056TIP3    H242584   0.768   4.208   1.921 -0.4641 -0.7438 -0.7431
 7057TIP3   OH242585   1.775   4.043  16.533 -0.0126  0.3414 -0.0414
 7057TIP3    H142586   1.777   4.128  16.577  1.5705 -0.1496  0.9572
 7057TIP3    H242587   1.834   3.988  16.586  0.0041 -1.0022 -1.3904
 7058TIP3   OH242588   5.936   3.691   3.037  0.0072  0.1041 -0.4325
 7058TIP3    H142589   5.921   3.785   3.033  1.4612  0.3411 -0.8890
 7058TIP3    H242590   5.988   3.679   3.117 -2.3889 -0.6859  1.1354
 7059TIP3   OH242591   2.922   5.887  10.935  0.1314 -0.0739 -0.3833
 7059TIP3    H142592   2.909   5.926  11.022 -0.5275  2.5416 -1.5845
 7059TIP3    H242593   2.836   5.894  10.893  0.7830 -0.0535 -1.7291
 7060TIP3   OH242594   2.903   0.890  12.607  0.0455 -0.1036 -0.2420
 7060TIP3    H142595   2.889   0.960  12.543 -0.4120  0.0681  0.0435
 7060TIP3    H242596   2.866   0.924  12.688 -0.2249 -0.6990 -0.1121
 7061TIP3   OH242597   0.939   5.699  14.174 -0.1174  0.2035  0.1344
 7061TIP3    H142598   0.900   5.621  14.133 -0.9809  0.7832 -0.1820
 7061TIP3    H242599   1.019   5.667  14.215 -0.2933 -0.7917 -0.2655
 7062TIP3   OH242600   5.550   0.552  13.400  0.3356 -0.3817  0.2600
 7062TIP3    H142601   5.459   0.534  13.374  0.1138 -0.9224  1.3190
 7062TIP3    H242602   5.556   0.516  13.489  1.6685 -0.6021  0.0983
 7063TIP3   OH242603   3.581   3.888  11.516 -0.2064 -0.1002 -0.0759
 7063TIP3    H142604   3.662   3.839  11.504  0.3172  0.5836  0.6315
 7063TIP3    H242605   3.537   3.843  11.588  0.5408  0.7939  0.9563
 7064TIP3   OH242606   3.004   1.843  12.474  0.5380 -0.5338  0.6997
 7064TIP3    H142607   3.067   1.806  12.536  2.0756 -1.3518 -1.2284
 7064TIP3    H242608   3.052   1.914  12.431 -0.9635  0.9624  1.3447
 7065TIP3   OH242609   3.490   5.132   2.704 -0.1778 -0.0621  0.1701
 7065TIP3    H142610   3.565   5.097   2.656 -1.0121 -0.5351 -0.8477
 7065TIP3    H242611   3.525   5.206   2.754  0.7019  0.6034 -1.3536
 7066TIP3   OH242612   3.572   0.035  12.838 -0.7431  0.4037 -0.0070
 7066TIP3    H142613   3.484   0.047  12.874 -0.6656  2.3372 -0.3476
 7066TIP3    H242614   3.584   0.109  12.778  1.4904  0.8211  0.8247
 7067TIP3   OH242615   6.342   2.995   4.641 -0.1629 -0.2797  0.2446
 7067TIP3    H142616   6.253   2.995   4.675 -0.4174 -2.4940 -0.2518
 7067TIP3    H242617   6.337   3.043   4.559 -0.4471  1.3131  1.1542
 7068TIP3   OH242618   4.146   4.726   4.667  0.6607  0.1069  0.1437
 7068TIP3    H142619   4.231   4.736   4.711  0.5576 -0.5593  0.5109
 7068TIP3    H242620   4.082   4.738   4.737  0.4939 -0.9762  0.2043
 7069TIP3   OH242621   4.577   4.570  15.309 -0.1193 -0.2863 -0.1694
 7069TIP3    H142622   4.616   4.508  15.248  0.5401 -0.4518  0.4061
 7069TIP3    H242623   4.526   4.516  15.369 -0.6311 -0.1396 -0.4658
 7070TIP3   OH242624   0.052   2.859   1.906 -0.5912 -0.3968 -0.2160
 7070TIP3    H142625   0.111   2.908   1.849 -0.5497  0.0208  0.1835
 7070TIP3    H242626   0.036   2.777   1.858  0.1897 -0.4567 -0.3934
 7071TIP3   OH242627   4.132   4.778   3.266 -0.1824 -0.6176 -0.3467
 7071TIP3    H142628   4.170   4.850   3.315 -0.2173 -0.1089 -1.0432
 7071TIP3    H242629   4.049   4.813   3.233 -0.8283 -1.4128  0.3965
 7072TIP3   OH242630   0.121   4.526  15.463 -0.7533  0.3162 -0.0462
 7072TIP3    H142631   0.081   4.567  15.539  1.3456  0.1407  1.2450
 7072TIP3    H242632   0.113   4.432  15.480  3.6756  0.0858  2.5029
 7073TIP3   OH242633   5.625   3.111   2.254  0.1097  0.1853  0.3704
 7073TIP3    H142634   5.574   3.067   2.185 -0.7705 -0.5505  1.4420
 7073TIP3    H242635   5.595   3.202   2.251 -1.1255 -0.1860  0.8281
 7074TIP3   OH242636   6.483   1.048  15.221 -0.1315  0.1854  0.0543
 7074TIP3    H142637   6.492   0.960  15.184  0.3096  0.2215  0.0693
 7074TIP3    H242638   6.400   1.081  15.186 -0.1781 -0.1418 -0.1463
 7075TIP3   OH242639   4.155   2.663   4.860  0.9512  0.3366  0.9600
 7075TIP3    H142640   4.123   2.720   4.929 -4.0942 -0.4892 -0.3299
 7075TIP3    H242641   4.151   2.575   4.897 -0.4377  0.0220  0.1146
 7076TIP3   OH242642   3.703   2.617   5.628 -0.6831 -0.3354 -0.0781
 7076TIP3    H142643   3.730   2.532   5.594 -0.6385  0.2525 -1.5884
 7076TIP3    H242644   3.779   2.673   5.614 -0.5264 -0.1446  1.3804
 7077TIP3   OH242645   0.681   0.977   1.773  0.0539  0.1756  0.4684
 7077TIP3    H142646   0.627   0.971   1.852  0.3753 -0.0251  0.6777
 7077TIP3    H242647   0.762   1.018   1.803 -0.9000  2.8001 -0.3329
 7078TIP3   OH242648   3.565   1.017  14.499  0.0597  0.1100 -0.0526
 7078TIP3    H142649   3.611   1.029  14.417 -0.6407 -1.5134 -0.7342
 7078TIP3    H242650   3.634   0.993  14.562  0.3693 -0.5218 -0.6242
 7079TIP3   OH242651   2.199   4.660   3.140  0.1221  0.3621  0.3766
 7079TIP3    H142652   2.153   4.668   3.057 -0.2971  0.6005  0.6254
 7079TIP3    H242653   2.286   4.695   3.123  0.2178 -0.0955 -0.1001
 7080TIP3   OH242654   5.995   1.144  12.576  0.0301 -0.5807 -0.3580
 7080TIP3    H142655   6.048   1.210  12.619  0.2233 -0.6478 -0.4908
 7080TIP3    H242656   6.044   1.062  12.588 -0.1607 -0.6844 -0.2725
 7081TIP3   OH242657   1.569   0.546  13.982  0.2841 -0.7845  0.4313
 7081TIP3    H142658   1.641   0.604  13.955  1.6664 -2.1237  1.0700
 7081TIP3    H242659   1.490   0.597  13.964  1.4050  1.1503  0.6143
 7082TIP3   OH242660   6.259   0.214  16.387  0.2472 -0.5967  0.0333
 7082TIP3    H142661   6.219   0.200  16.472 -2.2913  3.1467 -0.2717
 7082TIP3    H242662   6.189   0.196  16.324  1.2869 -0.8183 -1.0972
 7083TIP3   OH242663   6.345   5.436  10.929  0.0705  0.4151 -0.6223
 7083TIP3    H142664   6.440   5.427  10.920 -0.0445  0.7879 -2.4781
 7083TIP3    H242665   6.308   5.364  10.879 -0.6474  0.7536 -0.5980
 7084TIP3   OH242666   5.443   4.295   1.215 -0.2234 -0.0000 -0.1347
 7084TIP3    H142667   5.525   4.259   1.251  0.0956  0.6952 -0.1457
 7084TIP3    H242668   5.389   4.218   1.197  0.6979 -0.5152 -0.7916
 7085TIP3   OH242669   5.968   5.619   4.637  0.3121 -0.5486 -0.3459
 7085TIP3    H142670   5.952   5.688   4.701  1.1237  0.2187 -0.9488
 7085TIP3    H242671   5.950   5.538   4.684 -3.3415  0.0769 -0.3844
 7086TIP3   OH242672   0.096   1.274  17.243 -0.3178  0.0269 -0.1300
 7086TIP3    H142673   0.073   1.318  17.325  1.4955  3.7878 -1.3510
 7086TIP3    H242674   0.022   1.291  17.185  0.1640  1.1461 -0.4464
 7087TIP3   OH242675   5.521   5.089  12.246  0.5175 -0.4537  0.0819
 7087TIP3    H142676   5.601   5.053  12.207  0.9201  0.6471 -0.1259
 7087TIP3    H242677   5.551   5.160  12.303 -0.4378  2.2561 -2.5355
 7088TIP3   OH242678   5.831   3.210   3.241  0.2713 -0.1429  0.2767
 7088TIP3    H142679   5.901   3.148   3.262  0.6778  0.8706  2.2783
 7088TIP3    H242680   5.810   3.194   3.150  1.7630 -1.8210  0.1792
 7089TIP3   OH242681   5.015   0.340  16.605  0.1656  0.4173 -0.2380
 7089TIP3    H142682   5.067   0.277  16.655  0.6295 -0.1561 -1.4125
 7089TIP3    H242683   4.964   0.386  16.671 -0.4797 -1.4377  0.6360
 7090TIP3   OH242684   5.889   2.387   5.262  0.4502 -0.6037 -0.5865
 7090TIP3    H142685   5.984   2.377   5.257  0.4860 -0.1654 -0.8151
 7090TIP3    H242686   5.874   2.430   5.346  0.5569  0.4737 -1.1001
 7091TIP3   OH242687   6.350   2.339   3.974  0.1024  0.1441 -0.1648
 7091TIP3    H142688   6.306   2.421   3.998 -2.0624  0.5179 -4.3857
 7091TIP3    H242689   6.433   2.367   3.935 -0.5657  0.4189 -1.4592
 7092TIP3   OH242690   3.798   1.813  16.063 -0.4820  0.2528  0.6186
 7092TIP3    H142691   3.766   1.826  15.974 -0.2885  0.6098  0.5958
 7092TIP3    H242692   3.892   1.798  16.053 -0.4914  0.0971  0.7472
 7093TIP3   OH242693   2.419   2.805   0.488 -0.0900  0.1742 -0.5972
 7093TIP3    H142694   2.435   2.712   0.506  2.0437  1.1065  3.2731
 7093TIP3    H242695   2.504   2.839   0.461 -0.0036  1.5741  1.2832
 7094TIP3   OH242696   3.299   0.879   0.389 -0.4001  0.1341 -0.1784
 7094TIP3    H142697   3.386   0.918   0.398 -0.2743 -0.3867  1.2194
 7094TIP3    H242698   3.308   0.793   0.430 -1.7059  0.3110  0.5257
 7095TIP3   OH242699   2.698   6.120   5.395  0.3604  0.1412 -0.0790
 7095TIP3    H142700   2.735   6.047   5.444  0.8817  0.2305 -0.3237
 7095TIP3    H242701   2.687   6.085   5.306 -0.4544  0.0194  0.0574
 7096TIP3   OH242702   6.121   4.473  13.349 -1.5273 -0.5684 -0.1684
 7096TIP3    H142703   6.180   4.451  13.276  0.3747 -0.0266  1.1273
 7096TIP3    H242704   6.150   4.560  13.377 -1.7385 -1.0528  1.6721
 7097TIP3   OH242705   1.490   5.108   5.208 -0.6552  0.0660  0.3844
 7097TIP3    H142706   1.447   5.022   5.211 -0.2309 -0.1199  2.4186
 7097TIP3    H242707   1.420   5.169   5.186 -0.7695 -0.8562 -2.2016
 7098TIP3   OH242708   3.863   0.343  13.840  0.2214 -0.6370  0.3485
 7098TIP3    H142709   3.956   0.326  13.855  0.1334 -2.0501 -0.5309
 7098TIP3    H242710   3.845   0.304  13.755 -1.1366 -0.1789  0.4028
 7099TIP3   OH242711   6.180   4.514   4.031 -0.7697 -0.9040 -0.8124
 7099TIP3    H142712   6.161   4.601   3.996 -1.6432 -0.7992 -0.1286
 7099TIP3    H242713   6.188   4.527   4.126 -1.4939 -1.6501 -0.6322
 7100TIP3   OH242714   0.803   4.085   3.456 -0.3459  0.4900  0.3432
 7100TIP3    H142715   0.711   4.058   3.461 -0.0938 -0.4568  0.0337
 7100TIP3    H242716   0.809   4.133   3.374 -0.5789  0.6209  0.4008
 7101TIP3   OH242717   3.666   2.743   2.713 -0.4798 -0.0135 -0.4314
 7101TIP3    H142718   3.632   2.662   2.675  0.3566  0.1394 -1.5764
 7101TIP3    H242719   3.753   2.719   2.746 -0.0071  0.5070 -1.2459
 7102TIP3   OH242720   2.665   4.589   1.552  0.8861  0.2056 -0.0955
 7102TIP3    H142721   2.611   4.577   1.475  1.7547 -0.8213 -0.5618
 7102TIP3    H242722   2.608   4.635   1.614  0.5080  2.0330 -1.6962
 7103TIP3   OH242723   4.036   5.497  16.257 -0.2550  0.1330  0.5239
 7103TIP3    H142724   4.109   5.484  16.317 -0.6771  2.0493  1.5414
 7103TIP3    H242725   4.014   5.590  16.266 -0.2711  0.5363 -2.7177
 7104TIP3   OH242726   1.833   4.382   4.800 -0.1703  0.4886 -0.0355
 7104TIP3    H142727   1.760   4.444   4.806 -0.7214 -0.1406 -0.1578
 7104TIP3    H242728   1.806   4.308   4.853 -0.2276 -0.3383 -1.1773
 7105TIP3   OH242729   1.962   2.588   0.861  0.2209  0.2579 -0.5088
 7105TIP3    H142730   1.968   2.495   0.885 -0.0690  0.6797  1.3610
 7105TIP3    H242731   1.934   2.587   0.769 -1.2948 -1.5060 -0.0977
 7106TIP3   OH242732   4.883   6.494  14.463 -0.1931 -0.0343  0.2125
 7106TIP3    H142733   4.936   6.418  14.487 -0.2283 -0.5481 -1.2338
 7106TIP3    H242734   4.850   6.528  14.546  1.5500 -0.3203  1.0580
 7107TIP3   OH242735   1.523   1.632  15.242 -0.1466 -0.0056 -0.1559
 7107TIP3    H142736   1.538   1.547  15.201  1.1236  0.1395 -0.0451
 7107TIP3    H242737   1.606   1.679  15.231 -0.7344  1.1174  0.0305
 7108TIP3   OH242738   0.035   3.938   3.624  0.5104 -0.1739  0.1523
 7108TIP3    H142739   0.111   3.880   3.617  1.4362  1.1074 -1.1768
 7108TIP3    H242740   0.065   4.009   3.682 -0.0727 -0.2271  0.5265
 7109TIP3   OH242741   1.483   1.324   4.473 -0.8711 -0.2300 -0.3376
 7109TIP3    H142742   1.458   1.410   4.507 -2.6517 -0.5384 -0.7622
 7109TIP3    H242743   1.505   1.273   4.551 -0.3370  0.4358 -0.0440
 7110TIP3   OH242744   5.091   0.722  11.653  0.4881  0.8747 -1.0172
 7110TIP3    H142745   5.062   0.810  11.674  0.9629  0.7106  0.4415
 7110TIP3    H242746   5.042   0.698  11.574 -2.2712  1.1359  0.5149
 7111TIP3   OH242747   3.447   3.572  13.458 -0.2880 -0.0681  0.2502
 7111TIP3    H142748   3.436   3.516  13.535  1.0975  1.6922  1.8105
 7111TIP3    H242749   3.536   3.553  13.427  0.4419  1.6911  1.1918
 7112TIP3   OH242750   1.727   2.891  12.812 -0.3318  0.3062 -0.2925
 7112TIP3    H142751   1.677   2.960  12.856  0.0592  0.7496 -0.5197
 7112TIP3    H242752   1.699   2.898  12.720  0.4684  0.8682 -0.5070
 7113TIP3   OH242753   0.959   1.804  15.262  0.8997 -0.6795 -0.0830
 7113TIP3    H142754   0.974   1.774  15.172  0.1986  0.4626 -0.6064
 7113TIP3    H242755   0.865   1.822  15.266  1.3227  2.0698 -0.0795
 7114TIP3   OH242756   4.391   5.149  11.197 -0.3314  1.4568 -0.2770
 7114TIP3    H142757   4.439   5.230  11.212  0.3131  0.8193  1.3602
 7114TIP3    H242758   4.409   5.127  11.106  1.7954  1.7247  0.0235
 7115TIP3   OH242759   5.291   3.530  14.762  0.3912 -0.0515  0.8074
 7115TIP3    H142760   5.325   3.448  14.797  2.2688  0.4529  0.2856
 7115TIP3    H242761   5.197   3.514  14.750  1.0405 -2.9387 -1.5440
 7116TIP3   OH242762   2.789   2.641   5.495  0.4550  0.0294 -0.1508
 7116TIP3    H142763   2.849   2.674   5.428  0.3267 -0.1991 -0.3796
 7116TIP3    H242764   2.839   2.645   5.576  0.8517 -0.3592 -0.3710
 7117TIP3   OH242765   0.786   4.571   1.741 -0.0801 -0.0224  0.5135
 7117TIP3    H142766   0.770   4.478   1.729  0.9081  0.0756 -2.6768
 7117TIP3    H242767   0.854   4.576   1.808  0.5256 -1.6687  0.0537
 7118TIP3   OH242768   4.594   5.201  14.799  0.1014 -0.2607 -0.1345
 7118TIP3    H142769   4.635   5.281  14.834  0.2562  0.3067 -1.5529
 7118TIP3    H242770   4.505   5.228  14.776 -0.5962 -1.0827  1.4215
 7119TIP3   OH242771   4.411   6.136   2.744 -0.1940 -0.2895  0.5748
 7119TIP3    H142772   4.428   6.183   2.825 -1.0616  1.0733  0.0089
 7119TIP3    H242773   4.338   6.184   2.704  2.4148  1.3547 -2.7268
 7120TIP3   OH242774   1.813   4.344  11.549  1.1724 -0.2307 -0.4375
 7120TIP3    H142775   1.850   4.322  11.634  0.3932 -1.6225 -0.4255
 7120TIP3    H242776   1.735   4.289  11.541 -0.7410  2.2786 -0.6101
 7121TIP3   OH242777   3.654   2.484  11.291 -0.4671  0.1350  0.1123
 7121TIP3    H142778   3.639   2.504  11.199  0.7676  4.4387  0.6440
 7121TIP3    H242779   3.616   2.557  11.338  1.0245 -0.7319  2.8693
 7122TIP3   OH242780   6.277   6.150   0.963  0.4145  0.2210  0.2345
 7122TIP3    H142781   6.223   6.219   0.924  0.9306  1.1016  1.0407
 7122TIP3    H242782   6.230   6.126   1.043  0.0228 -0.6684 -0.2560
 7123TIP3   OH242783   6.023   4.428   4.318  0.0909 -0.1304 -0.1950
 7123TIP3    H142784   6.033   4.333   4.315 -1.4703 -0.3175 -0.6290
 7123TIP3    H242785   5.928   4.441   4.320  0.2886  1.4250 -0.0970
 7124TIP3   OH242786   5.161   3.352   1.146  0.2727 -0.0750  0.6123
 7124TIP3    H142787   5.135   3.385   1.233 -0.4148 -1.2537  0.8888
 7124TIP3    H242788   5.103   3.277   1.132  0.7730 -0.2430 -0.6311
 7125TIP3   OH242789   1.404   3.201  11.766 -0.2113 -0.2288 -0.1293
 7125TIP3    H142790   1.438   3.112  11.776  1.6356  0.7107  3.1364
 7125TIP3    H242791   1.338   3.210  11.834 -0.7162  0.7868 -0.7247
 7126TIP3   OH242792   3.462   3.734  15.740 -0.1232 -0.2923  0.0291
 7126TIP3    H142793   3.444   3.817  15.785  0.3847 -0.4398  0.5222
 7126TIP3    H242794   3.529   3.692  15.794  2.5593  0.7051 -2.2588
 7127TIP3   OH242795   3.118   5.535   5.541  0.2622 -0.4137  0.6915
 7127TIP3    H142796   3.126   5.482   5.620 -0.8966 -1.3753  0.2017
 7127TIP3    H242797   3.127   5.472   5.469  0.1984  0.2643  0.0737
 7128TIP3   OH242798   3.907   1.267   1.891 -0.2892 -0.0426  0.1188
 7128TIP3    H142799   3.910   1.269   1.987  2.1917 -2.2252  0.1837
 7128TIP3    H242800   3.902   1.174   1.869 -3.4051  0.4541 -1.9437
 7129TIP3   OH242801   4.818   2.086   4.849 -0.4716 -0.3850  0.0053
 7129TIP3    H142802   4.867   2.071   4.929 -2.5301 -1.4729  1.1271
 7129TIP3    H242803   4.876   2.056   4.779  1.3956  0.6925  1.0125
 7130TIP3   OH242804   1.111   3.011   0.118  0.0649 -0.2860 -0.1624
 7130TIP3    H142805   1.110   3.020   0.213  1.8064  0.3876 -0.1763
 7130TIP3    H242806   1.025   3.042   0.090  0.5411  2.3224  0.9850
 7131TIP3   OH242807   5.552   5.237  11.830  0.9473  0.0594  0.2849
 7131TIP3    H142808   5.480   5.257  11.890  1.1117  0.2281  0.4260
 7131TIP3    H242809   5.526   5.277  11.747 -1.1240 -3.3205 -0.9432
 7132TIP3   OH242810   1.827   0.713   3.953 -0.3351  0.2756  0.1225
 7132TIP3    H142811   1.779   0.796   3.953  0.7229  0.9154 -0.2177
 7132TIP3    H242812   1.891   0.723   4.024 -1.3900 -0.9949  1.2971
 7133TIP3   OH242813   4.026   6.095  12.424  0.8084 -0.5933  0.1515
 7133TIP3    H142814   4.095   6.150  12.460  1.4927 -1.1044 -0.3520
 7133TIP3    H242815   4.071   6.017  12.392  0.2070 -0.3252 -1.4965
 7134TIP3   OH242816   1.534   5.940   3.843  0.0075  0.0485 -0.1260
 7134TIP3    H142817   1.524   5.982   3.928  0.3805 -0.5148  0.2016
 7134TIP3    H242818   1.543   5.847   3.863 -0.3470 -0.1398 -0.8103
 7135TIP3   OH242819   0.316   4.849   4.253  0.5343 -0.3539  0.6474
 7135TIP3    H142820   0.261   4.871   4.178 -0.2566 -0.8670  1.0536
 7135TIP3    H242821   0.406   4.863   4.223  0.1986  0.1119 -0.1619
 7136TIP3   OH242822   1.140   2.300  11.807  0.4553 -0.5003 -0.2020
 7136TIP3    H142823   1.071   2.347  11.855 -0.6821 -1.1554 -1.1620
 7136TIP3    H242824   1.211   2.364  11.801 -0.2265  0.3528  0.4230
 7137TIP3   OH242825   4.350   4.649  16.493 -0.3792 -0.4496  0.8682
 7137TIP3    H142826   4.331   4.589  16.421 -0.9050 -0.6804  1.1883
 7137TIP3    H242827   4.367   4.733  16.451  1.8375 -1.1137  0.2936
 7138TIP3   OH242828   3.030   6.625   2.165  0.1656  0.0262 -0.1285
 7138TIP3    H142829   3.117   6.603   2.132  0.6572  0.3382  0.9154
 7138TIP3    H242830   3.019   6.569   2.241 -0.1259  0.7184  0.3434
 7139TIP3   OH242831   1.716   3.337   4.881  0.1207  0.5341  0.4000
 7139TIP3    H142832   1.722   3.243   4.863  0.0413  0.5159  0.4755
 7139TIP3    H242833   1.790   3.375   4.832 -0.0548  0.4741  0.0812
 7140TIP3   OH242834   5.223   4.801   6.231  0.4395 -0.5416  0.6035
 7140TIP3    H142835   5.311   4.783   6.197  0.6391  3.1115 -1.4213
 7140TIP3    H242836   5.237   4.856   6.308 -0.0674 -0.8431  0.9179
 7141TIP3   OH242837   3.417   6.551  16.863  0.6147  0.5216 -0.0392
 7141TIP3    H142838   3.498   6.509  16.836  0.6104  0.6785 -0.3016
 7141TIP3    H242839   3.427   6.565  16.957 -0.5039 -2.5432  0.6368
 7142TIP3   OH242840   5.016   3.360  12.009  0.1622  0.5127 -0.3150
 7142TIP3    H142841   5.018   3.345  11.914 -1.3955  0.3447 -0.3473
 7142TIP3    H242842   5.002   3.273  12.046  0.7467  0.5821  0.0855
 7143TIP3   OH242843   5.895   0.553  15.071  0.4390  0.2475  0.5950
 7143TIP3    H142844   5.865   0.491  15.005  1.5722 -0.4574  0.7137
 7143TIP3    H242845   5.985   0.526  15.090  1.1498  2.2641  0.2723
 7144TIP3   OH242846   2.552   6.255   4.192 -0.0511 -0.5394 -0.9169
 7144TIP3    H142847   2.629   6.285   4.143  0.8095  0.0110  0.6859
 7144TIP3    H242848   2.588   6.223   4.275 -1.6623  1.1172  0.4912
 7145TIP3   OH242849   1.175   2.027  11.782  0.2089 -0.0307  0.1965
 7145TIP3    H142850   1.226   2.104  11.756  0.6084 -1.5310 -4.4035
 7145TIP3    H242851   1.085   2.060  11.789  0.6346  1.1755  0.2562
 7146TIP3   OH242852   5.312   5.364  10.469 -0.3594 -0.3885 -0.6833
 7146TIP3    H142853   5.338   5.456  10.458  0.6108 -0.5682  0.0166
 7146TIP3    H242854   5.394   5.315  10.460 -0.7749 -1.1389 -0.4478
 7147TIP3   OH242855   3.262   1.297   4.259 -0.2412  0.2650  0.0940
 7147TIP3    H142856   3.199   1.341   4.202  0.9205  0.7666 -0.8561
 7147TIP3    H242857   3.330   1.265   4.200 -0.3233 -1.5751  0.9314
 7148TIP3   OH242858   6.598   6.626   3.957 -0.0158 -0.1860  0.1790
 7148TIP3    H142859   6.554   6.705   3.986 -0.2735 -0.3521  0.2460
 7148TIP3    H242860   6.528   6.573   3.919 -0.0558 -0.8490  1.1205
 7149TIP3   OH242861   1.414   5.142  12.418  0.0444  0.6932 -0.0839
 7149TIP3    H142862   1.438   5.115  12.507  1.4082  1.6780 -0.1202
 7149TIP3    H242863   1.457   5.078  12.361 -0.4519  0.3317 -0.0612
 7150TIP3   OH242864   5.500   0.946  10.046  0.1634 -0.7062 -0.1900
 7150TIP3    H142865   5.450   0.896   9.981  1.8783 -0.4453 -1.8115
 7150TIP3    H242866   5.528   0.880  10.110  1.1671 -1.6188 -1.5109
 7151TIP3   OH242867   2.169   3.024   5.020 -0.4220  0.0983  0.3183
 7151TIP3    H142868   2.206   3.099   5.065 -0.2613 -0.2947  0.8500
 7151TIP3    H242869   2.098   3.060   4.966 -1.5785  0.4190  1.9668
 7152TIP3   OH242870   1.136   0.724  13.081  1.0100  0.5313  0.1026
 7152TIP3    H142871   1.067   0.702  13.144  2.1641 -1.3659  0.8011
 7152TIP3    H242872   1.130   0.818  13.070 -0.4019  0.6645  1.6776
 7153TIP3   OH242873   0.363   1.021  12.927  0.6653  0.5139  0.0860
 7153TIP3    H142874   0.334   1.070  13.004 -0.2499 -0.7837  0.5944
 7153TIP3    H242875   0.458   1.013  12.939  0.3420 -1.1879  2.0300
 7154TIP3   OH242876   3.776   1.793   3.475  0.1546 -0.4738  0.1495
 7154TIP3    H142877   3.682   1.811   3.478  0.0713 -0.9589  0.7326
 7154TIP3    H242878   3.806   1.802   3.565  1.0686  1.6008 -0.3012
 7155TIP3   OH242879   1.167   6.253  14.453 -0.1838  0.3083  0.7474
 7155TIP3    H142880   1.234   6.317  14.477 -0.1068  0.0947  1.1097
 7155TIP3    H242881   1.152   6.203  14.533  2.1155 -2.2809 -0.2642
 7156TIP3   OH242882   0.839   4.005   4.367  0.2326  0.3376  0.5604
 7156TIP3    H142883   0.923   3.976   4.402 -0.8501  0.0827  3.1745
 7156TIP3    H242884   0.779   3.933   4.386 -1.4831  2.2189  2.8289
 7157TIP3   OH242885   4.672   4.410   2.807  0.4703 -0.2891 -0.0993
 7157TIP3    H142886   4.587   4.426   2.848  0.4008 -0.0035 -0.3544
 7157TIP3    H242887   4.706   4.332   2.852  0.0214 -0.4788 -0.0897
 7158TIP3   OH242888   2.788   1.731  12.666  0.2871  0.0893 -0.2919
 7158TIP3    H142889   2.880   1.743  12.689  0.0127  1.8096  0.0980
 7158TIP3    H242890   2.750   1.684  12.741  0.3794  1.5211  0.7003
 7159TIP3   OH242891   1.959   3.761  12.441  0.0553 -0.3434 -0.6437
 7159TIP3    H142892   1.987   3.840  12.395  0.6892  0.7046  1.3805
 7159TIP3    H242893   1.893   3.722  12.385 -0.4194  1.7397 -1.6487
 7160TIP3   OH242894   4.151   2.274   2.090 -0.4780 -0.0085  0.2885
 7160TIP3    H142895   4.197   2.346   2.047  0.5442 -1.1505 -0.6016
 7160TIP3    H242896   4.062   2.307   2.103  0.3519  1.9879  1.3729
 7161TIP3   OH242897   4.617   2.888  15.240 -0.3288  0.5506 -0.0957
 7161TIP3    H142898   4.542   2.886  15.180  0.0696  0.0078 -0.5887
 7161TIP3    H242899   4.592   2.831  15.312 -0.2233  0.0067 -0.4779
 7162TIP3   OH242900   0.409   0.561   5.874  0.0880  0.6420  0.7782
 7162TIP3    H142901   0.480   0.499   5.890  2.0472  2.1811 -1.1811
 7162TIP3    H242902   0.350   0.552   5.949  2.2642 -0.8495  2.4130
 7163TIP3   OH242903   5.810   3.628   7.039 -0.0793 -0.1845 -0.0123
 7163TIP3    H142904   5.838   3.539   7.017 -0.5990 -0.2222 -0.5364
 7163TIP3    H242905   5.803   3.672   6.954 -1.1406 -0.0395  0.1363
 7164TIP3   OH242906   2.087   4.707   2.582 -0.0780 -0.0630 -0.3322
 7164TIP3    H142907   2.078   4.639   2.648 -1.0934 -0.1462 -0.5312
 7164TIP3    H242908   2.071   4.789   2.629  0.7545  0.0109 -0.1703
 7165TIP3   OH242909   0.854   5.052  11.688 -0.0197 -0.1165  0.0219
 7165TIP3    H142910   0.820   5.015  11.770  1.9450  0.2269  1.0647
 7165TIP3    H242911   0.834   5.145  11.693  0.0020 -0.1148  0.0758
 7166TIP3   OH242912   5.783   1.725   4.934  0.3909  0.0775  0.7598
 7166TIP3    H142913   5.690   1.705   4.937  0.1295  1.0197 -0.4183
 7166TIP3    H242914   5.797   1.785   5.008 -0.1238  0.6427  0.4034
 7167TIP3   OH242915   3.982   4.243  15.230 -0.3187 -0.0013  0.4786
 7167TIP3    H142916   4.065   4.196  15.224 -0.4510 -0.1747 -0.0532
 7167TIP3    H242917   3.916   4.175  15.218 -0.5663  0.0101  1.6575
 7168TIP3   OH242918   1.730   1.450   4.953 -0.5044 -0.1281 -0.1207
 7168TIP3    H142919   1.806   1.508   4.950 -0.7577  0.2239  0.1318
 7168TIP3    H242920   1.718   1.421   4.863 -0.2546  0.0554 -0.2152
 7169TIP3   OH242921   0.014   3.224  14.894 -0.4494  0.0887 -0.3582
 7169TIP3    H142922  -0.053   3.291  14.881 -0.0238  0.9422  1.4823
 7169TIP3    H242923   0.075   3.236  14.822  0.1059  2.3408  0.4052
 7170TIP3   OH242924   1.041   2.467   2.222 -0.1739  0.0208 -0.0285
 7170TIP3    H142925   1.090   2.527   2.278 -0.1699 -0.8137  0.8791
 7170TIP3    H242926   1.095   2.458   2.144  0.2613  0.4843  0.2109
 7171TIP3   OH242927   3.213   4.273   6.397 -0.1767  0.0389 -0.0723
 7171TIP3    H142928   3.127   4.236   6.418  0.0574  0.4692  1.8441
 7171TIP3    H242929   3.194   4.361   6.367 -0.3864  0.4924  1.3118
 7172TIP3   OH242930   2.280   6.204   4.281  0.0344  0.7327  0.1280
 7172TIP3    H142931   2.364   6.201   4.236  0.2133  4.4136 -0.0899
 7172TIP3    H242932   2.215   6.195   4.211  0.2235 -0.2928  0.0684
 7173TIP3   OH242933   0.812   0.835  13.016 -0.4410 -0.4677  0.0993
 7173TIP3    H142934   0.859   0.761  13.056  1.1424  1.3009  1.7077
 7173TIP3    H242935   0.872   0.867  12.949 -0.7297 -0.1171  0.0077
 7174TIP3   OH242936   5.355   6.709  13.065  0.0644  0.0600 -0.0972
 7174TIP3    H142937   5.392   6.637  13.115  0.2840 -0.4306 -0.9547
 7174TIP3    H242938   5.406   6.786  13.092  0.2012 -0.1998  0.3983
 7175TIP3   OH242939   3.184   5.603  14.120  0.2187  0.0297  0.3055
 7175TIP3    H142940   3.115   5.565  14.173 -1.0341  0.8686 -0.6652
 7175TIP3    H242941   3.147   5.685  14.086  0.9204 -0.4672 -1.8678
 7176TIP3   OH242942   3.444   1.360   1.036 -0.3110  0.5257  0.1400
 7176TIP3    H142943   3.444   1.456   1.035 -0.9192  0.5414  0.6714
 7176TIP3    H242944   3.358   1.337   1.072  0.1695 -0.2071  0.8467
 7177TIP3   OH242945   6.442   4.093   0.634  0.3226  0.1719 -0.1523
 7177TIP3    H142946   6.497   4.144   0.574  2.0143 -2.0606 -0.6149
 7177TIP3    H242947   6.363   4.073   0.584 -0.2933  2.0919 -0.0261
 7178TIP3   OH242948   3.660   4.622  13.812  0.0050  0.2765 -0.3588
 7178TIP3    H142949   3.620   4.639  13.727  0.1117 -1.5080 -0.8171
 7178TIP3    H242950   3.754   4.623  13.794  0.0088 -1.6727 -0.6488
 7179TIP3   OH242951   4.484   6.280   2.337  0.0314  0.1281  0.2101
 7179TIP3    H142952   4.461   6.333   2.260 -0.6504 -0.5996 -0.0998
 7179TIP3    H242953   4.474   6.190   2.308  1.5799 -0.2063  0.6172
 7180TIP3   OH242954   2.930   6.211   5.148 -0.8073 -0.0127 -0.1688
 7180TIP3    H142955   2.997   6.150   5.178 -0.4873 -0.0951 -1.0176
 7180TIP3    H242956   2.909   6.263   5.226  1.9229  1.5710 -0.3363
 7181TIP3   OH242957   2.398   1.234   2.449  0.9112 -0.7631 -0.4859
 7181TIP3    H142958   2.307   1.259   2.433  1.3717 -0.5049 -3.2839
 7181TIP3    H242959   2.439   1.313   2.482  0.1242 -0.9325  0.9805
 7182TIP3   OH242960   5.443   3.741   1.135  0.4517 -0.3805  0.5286
 7182TIP3    H142961   5.498   3.700   1.202  1.0395 -1.0052 -0.3077
 7182TIP3    H242962   5.497   3.738   1.056 -0.2612  0.2741  0.0145
 7183TIP3   OH242963   4.522   0.038  10.025 -0.4593  0.1486  0.0892
 7183TIP3    H142964   4.604   0.084  10.041 -0.4109  0.3493 -0.7172
 7183TIP3    H242965   4.466   0.063  10.099 -0.9551  2.7212 -1.0666
 7184TIP3   OH242966   2.490   0.262   5.189 -0.2213  0.1110 -0.4153
 7184TIP3    H142967   2.491   0.212   5.271  0.1311  1.0682  0.1842
 7184TIP3    H242968   2.567   0.319   5.196 -0.5532  0.6527 -1.1346
 7185TIP3   OH242969   0.322   2.197   1.975  0.0803 -0.4222  0.3972
 7185TIP3    H142970   0.294   2.124   1.920 -0.6024  1.0890 -1.3526
 7185TIP3    H242971   0.417   2.197   1.967 -0.0190 -0.0815 -1.0126
 7186TIP3   OH242972   0.714   4.957   1.868  0.2448 -0.0254  0.0676
 7186TIP3    H142973   0.691   4.914   1.951 -1.7694 -0.0168 -0.4316
 7186TIP3    H242974   0.641   5.016   1.851  0.2668 -0.5419 -2.0502
 7187TIP3   OH242975   4.552   4.736   2.178  0.0854 -0.4454  0.0849
 7187TIP3    H142976   4.551   4.731   2.274 -0.2299  3.5323  0.4423
 7187TIP3    H242977   4.466   4.704   2.151 -0.6677  0.4330  1.3457
 7188TIP3   OH242978   3.707   5.591   2.995 -0.1924  0.3913 -0.2756
 7188TIP3    H142979   3.706   5.527   3.067 -0.6075 -2.4042 -2.5775
 7188TIP3    H242980   3.800   5.608   2.980  0.1644 -2.1827 -1.5472
 7189TIP3   OH242981   5.915   3.620  12.341  0.3058  0.1493 -0.0839
 7189TIP3    H142982   6.008   3.636  12.328 -0.0070  1.2421 -1.1375
 7189TIP3    H242983   5.911   3.535  12.387  1.7318 -0.8368 -1.6792
 7190TIP3   OH242984   6.707   0.436  15.288  0.6245  0.5069  0.5053
 7190TIP3    H142985   6.707   0.341  15.285  1.4897  0.3205  3.3122
 7190TIP3    H242986   6.618   0.461  15.262  0.7508 -0.9285 -1.4883
 7191TIP3   OH242987   2.664   1.626   6.141 -0.5415 -0.5591 -0.1789
 7191TIP3    H142988   2.623   1.647   6.225 -0.3068  0.9880 -0.4144
 7191TIP3    H242989   2.752   1.663   6.148  1.0815 -4.1034  0.4633
 7192TIP3   OH242990   2.163   2.725  13.133  0.3352  0.0170 -0.0512
 7192TIP3    H142991   2.077   2.685  13.117  0.8865 -1.5894  0.7609
 7192TIP3    H242992   2.154   2.814  13.101 -0.9709 -0.7423 -2.0188
 7193TIP3   OH242993   5.739   4.472   4.346  0.1570 -0.2547  0.1789
 7193TIP3    H142994   5.747   4.531   4.421 -1.3523 -0.6883  0.7110
 7193TIP3    H242995   5.669   4.510   4.293  2.2109  0.9239 -1.8973
 7194TIP3   OH242996   4.013   3.080   2.325  0.4690  0.2207  0.5919
 7194TIP3    H142997   3.937   3.092   2.268  0.1847 -0.3084  0.8491
 7194TIP3    H242998   3.986   3.011   2.386  1.6718 -0.9941 -0.2063
 7195TIP3   OH242999   2.192   6.041   2.448 -0.6929  0.2294 -0.2183
 7195TIP3    H143000   2.232   6.066   2.531 -1.7078 -0.2977  0.4512
 7195TIP3    H243001   2.225   6.104   2.385  0.7378  0.1406  0.4167
 7196TIP3   OH243002   4.469   4.545   1.746 -0.0112  0.5789  0.3613
 7196TIP3    H143003   4.425   4.549   1.661  0.6383  0.6851  0.0271
 7196TIP3    H243004   4.434   4.620   1.794 -0.3673  0.5317  0.1821
 7197TIP3   OH243005   1.765   4.837   2.066  0.3442  0.0355  0.2279
 7197TIP3    H143006   1.739   4.746   2.065  0.7646 -0.0852 -0.1787
 7197TIP3    H243007   1.850   4.837   2.111 -0.3173  0.4196  1.5327
 7198TIP3   OH243008   1.895   2.244  16.181  0.3321 -0.1262 -0.2816
 7198TIP3    H143009   1.812   2.289  16.195  0.7106  0.7237 -0.6871
 7198TIP3    H243010   1.913   2.199  16.264  0.1992  0.9048  0.3148
 7199TIP3   OH243011   1.717   2.568  13.565 -0.2953  0.1991 -0.2414
 7199TIP3    H143012   1.804   2.606  13.557  0.1835 -0.9112 -0.5419
 7199TIP3    H243013   1.705   2.553  13.659  0.8637 -1.8525 -0.3545
 7200TIP3   OH243014   0.321   1.694   0.060 -0.2148  0.1105  0.0164
 7200TIP3    H143015   0.324   1.727  -0.030 -1.6794 -1.0368 -0.4970
 7200TIP3    H243016   0.340   1.601   0.053  0.6046  0.1761  1.0369
 7201TIP3   OH243017   0.402   4.500   2.942 -0.8930  0.4086 -0.4446
 7201TIP3    H143018   0.449   4.528   3.022  1.3370  0.3651 -1.6562
 7201TIP3    H243019   0.437   4.413   2.924 -1.4267  0.3965 -1.4311
 7202TIP3   OH243020   3.100   5.078  15.435 -0.3021 -0.2878 -0.0424
 7202TIP3    H143021   3.046   5.003  15.459 -0.7052  0.0640  0.1869
 7202TIP3    H243022   3.132   5.058  15.347 -0.6072 -0.6147 -0.0825
 7203TIP3   OH243023   2.149   0.057   4.494 -0.0130 -0.0391 -0.1226
 7203TIP3    H143024   2.059   0.084   4.514  0.4786  0.0268  2.3480
 7203TIP3    H243025   2.203   0.127   4.530  1.0908 -1.5576  1.3354
 7204TIP3   OH243026   5.830   3.002   5.825  0.0494 -0.1704 -0.0465
 7204TIP3    H143027   5.839   3.093   5.795  0.0839  0.2844  1.2949
 7204TIP3    H243028   5.919   2.973   5.843 -0.0195 -0.2244  0.2124
 7205TIP3   OH243029   6.384   0.522   0.552 -0.2429 -0.0621 -0.4290
 7205TIP3    H143030   6.428   0.441   0.578  1.4093  0.2599 -2.0337
 7205TIP3    H243031   6.290   0.503   0.563  0.1782 -1.6198  0.7615
 7206TIP3   OH243032   0.813   4.738  10.876 -0.1105  0.4384  0.5458
 7206TIP3    H143033   0.726   4.778  10.870 -0.5255 -0.4299  0.5796
 7206TIP3    H243034   0.867   4.790  10.817 -1.0394  0.0243 -0.7099
 7207TIP3   OH243035   2.609   2.427  13.137 -0.0056 -0.5591 -0.5396
 7207TIP3    H143036   2.571   2.492  13.077 -0.1573 -2.1133 -2.2143
 7207TIP3    H243037   2.553   2.431  13.215 -0.1178  1.1561 -0.6670
 7208TIP3   OH243038   0.715   0.693   1.774 -0.4082 -0.1984 -0.3430
 7208TIP3    H143039   0.724   0.788   1.772 -2.6652  0.0475 -0.9585
 7208TIP3    H243040   0.643   0.677   1.835  0.5372 -1.5966  0.4582
 7209TIP3   OH243041   1.501   6.673   3.287 -0.1945  0.5750 -0.0137
 7209TIP3    H143042   1.432   6.727   3.326  0.3621  0.9010  0.5260
 7209TIP3    H243043   1.510   6.599   3.346 -0.3228  0.3545 -0.2694
 7210TIP3   OH243044   1.946   6.249   6.518 -0.1319  0.7978  0.1251
 7210TIP3    H143045   1.976   6.181   6.458  1.5291  1.9156 -0.3869
 7210TIP3    H243046   1.851   6.235   6.524 -0.0350 -0.6641 -1.0675
 7211TIP3   OH243047   2.179   5.718   2.279 -0.1169  0.5384  0.3079
 7211TIP3    H143048   2.161   5.635   2.323  3.5195  0.4348  2.0569
 7211TIP3    H243049   2.211   5.693   2.192 -0.9835  0.2733  0.0585
 7212TIP3   OH243050   5.905   0.163  16.417  0.5639 -0.0103  0.1823
 7212TIP3    H143051   5.972   0.097  16.433 -2.1306 -2.7272  1.1772
 7212TIP3    H243052   5.893   0.164  16.322  0.6679 -0.9304  0.1586
 7213TIP3   OH243053   6.406   4.959   3.040  0.2471  0.0189  0.2981
 7213TIP3    H143054   6.478   4.971   2.979 -0.5866 -0.4072 -0.7934
 7213TIP3    H243055   6.339   5.022   3.012 -0.0299  0.0395  0.9697
 7214TIP3   OH243056   4.959   6.038   5.581 -0.6155  0.6794  0.2812
 7214TIP3    H143057   5.038   6.035   5.527  0.8412 -1.2359  2.3527
 7214TIP3    H243058   4.934   5.946   5.592 -2.3589  1.1749  0.8218
 7215TIP3   OH243059   1.269   0.837   0.261  0.8338  0.6636 -0.4182
 7215TIP3    H143060   1.345   0.824   0.205  1.3163 -0.6473  0.4853
 7215TIP3    H243061   1.232   0.921   0.233  3.4819  2.1102  0.1079
 7216TIP3   OH243062   3.767   2.267   0.654 -0.0405  0.2278 -0.2097
 7216TIP3    H143063   3.761   2.205   0.581 -2.3393  0.1275 -0.0355
 7216TIP3    H243064   3.742   2.215   0.731  4.0302 -0.1354  1.0712
 7217TIP3   OH243065   6.256   0.656   1.811  0.1724 -0.1997 -0.2557
 7217TIP3    H143066   6.200   0.578   1.813 -1.2362  0.7592 -1.0645
 7217TIP3    H243067   6.320   0.638   1.743  1.2577 -1.5436  1.0553
 7218TIP3   OH243068   6.090   6.611  12.331  0.1394 -0.4247 -0.0191
 7218TIP3    H143069   6.076   6.645  12.419  0.6775  1.3894 -0.5840
 7218TIP3    H243070   6.173   6.650  12.303 -0.7923  0.3241 -1.9024
 7219TIP3   OH243071   2.728   4.696  14.365 -0.1127 -0.2577 -0.2936
 7219TIP3    H143072   2.814   4.658  14.351 -0.6449 -1.3635 -0.6700
 7219TIP3    H243073   2.720   4.763  14.297  0.9249  0.7526  0.5250
 7220TIP3   OH243074   1.566   4.647  14.960 -0.1270  0.3909  0.0029
 7220TIP3    H143075   1.518   4.655  14.877 -0.7609  0.5905  0.3869
 7220TIP3    H243076   1.544   4.560  14.992  0.5779  0.0879 -0.3177
 7221TIP3   OH243077   6.256   6.690   0.093  0.0427 -0.0092  0.1687
 7221TIP3    H143078   6.162   6.668   0.090 -0.0686  0.3532  0.7531
 7221TIP3    H243079   6.276   6.722   0.005 -0.3995 -0.0285  0.0583
 7222TIP3   OH243080   2.943   5.842  12.412 -0.2322 -0.0795 -0.9323
 7222TIP3    H143081   2.990   5.769  12.372  1.4042  0.5662 -0.3068
 7222TIP3    H243082   2.965   5.836  12.505 -0.3832  0.9668 -0.8132
 7223TIP3   OH243083   0.935   2.047  16.145  0.2680  0.2020  0.1496
 7223TIP3    H143084   0.877   2.053  16.221 -2.9520  1.3202 -2.1770
 7223TIP3    H243085   0.915   1.962  16.106  1.1018  0.0899 -0.0680
 7224TIP3   OH243086   0.324   0.623  10.711  0.6053 -1.0912 -0.0917
 7224TIP3    H143087   0.416   0.647  10.723  0.9285 -0.6258 -2.8733
 7224TIP3    H243088   0.326   0.550  10.649 -0.8923 -1.7313  0.5590
 7225TIP3   OH243089   0.583   4.856   5.091 -0.5841  0.0882  0.4949
 7225TIP3    H143090   0.590   4.797   5.166 -1.7540  2.0726  2.2837
 7225TIP3    H243091   0.517   4.816   5.034  1.1911 -2.0632 -0.1716
 7226TIP3   OH243092   1.478   2.966   5.867 -0.0897  0.2446  0.0384
 7226TIP3    H143093   1.445   3.048   5.902 -0.1391 -0.4898  1.8271
 7226TIP3    H243094   1.415   2.940   5.800 -0.4656  1.2791 -0.0151
 7227TIP3   OH243095   2.753   4.354  14.805  0.0000  0.2478 -0.4567
 7227TIP3    H143096   2.766   4.443  14.771 -1.2710  1.0954  1.1177
 7227TIP3    H243097   2.841   4.321  14.821  0.4802  2.2342  1.3571
 7228TIP3   OH243098   3.427   3.248  15.089 -0.2123 -0.0215  0.1265
 7228TIP3    H143099   3.509   3.208  15.117  0.3804 -0.0687 -1.5895
 7228TIP3    H243100   3.381   3.178  15.043 -1.2354  0.0098  1.0471
 7229TIP3   OH243101   4.673   3.758   1.933 -0.2257 -0.3777 -0.2801
 7229TIP3    H143102   4.736   3.817   1.892 -1.6340 -0.0971 -2.1543
 7229TIP3    H243103   4.724   3.714   2.002  1.1760  2.1086  0.4211
 7230TIP3   OH243104   5.022   5.591  16.760  0.3403 -0.7919 -0.3379
 7230TIP3    H143105   5.035   5.532  16.686  0.6414 -1.3351  0.1397
 7230TIP3    H243106   5.064   5.673  16.734  0.8588 -1.1322 -0.5780
 7231TIP3   OH243107   2.694   0.782   3.023  0.3434 -0.6672  0.5742
 7231TIP3    H143108   2.722   0.760   2.934  3.0273 -0.2694  1.2489
 7231TIP3    H243109   2.718   0.705   3.075 -2.3842 -1.4499  0.8390
 7232TIP3   OH243110   4.924   4.631   3.741 -0.5093 -1.4230  0.6650
 7232TIP3    H143111   4.944   4.588   3.658 -1.8110 -1.2909  0.2487
 7232TIP3    H243112   4.923   4.560   3.806 -0.5223 -1.6921  0.3702
 7233TIP3   OH243113   1.665   6.169   3.554 -0.4591  0.4208 -0.3998
 7233TIP3    H143114   1.621   6.197   3.634  1.0326  1.2545  0.1597
 7233TIP3    H243115   1.630   6.226   3.486 -0.7401  0.6170 -0.0936
 7234TIP3   OH243116   3.116   0.644  12.992  0.2265 -0.1925  0.2371
 7234TIP3    H143117   3.156   0.671  13.075  0.0226  1.3428 -0.1189
 7234TIP3    H243118   3.174   0.680  12.925  0.4175 -1.4669 -0.3108
 7235TIP3   OH243119   0.243   2.795   4.483 -0.2558  0.1693 -0.1749
 7235TIP3    H143120   0.319   2.774   4.428  0.4470  0.1756  0.7695
 7235TIP3    H243121   0.206   2.709   4.505  0.6837  0.0400  1.0051
 7236TIP3   OH243122   5.085   3.945   6.371 -0.5059  0.1953  0.1653
 7236TIP3    H143123   5.074   4.029   6.416 -0.5502  0.3275 -0.0902
 7236TIP3    H243124   5.046   3.880   6.430 -1.5934  0.5090 -0.1846
 7237TIP3   OH243125   2.690   6.119   0.071  0.3444 -0.1384 -0.4370
 7237TIP3    H143126   2.645   6.111  -0.013  0.1027 -0.5909 -0.2673
 7237TIP3    H243127   2.781   6.096   0.050  0.8474  2.1786 -1.0723
 7238TIP3   OH243128   3.910   5.027  14.363 -0.0413  0.6443 -0.1272
 7238TIP3    H143129   3.965   5.008  14.287 -0.6330 -0.5269 -0.2823
 7238TIP3    H243130   3.821   5.012  14.333 -0.3368  0.9329  0.5812
 7239TIP3   OH243131   3.541   1.164  13.066  0.6405 -0.1584 -0.2756
 7239TIP3    H143132   3.452   1.130  13.055  0.1983  0.4108  1.2801
 7239TIP3    H243133   3.566   1.195  12.979 -0.7342 -0.2348 -0.7140
 7240TIP3   OH243134   3.018   1.198   5.577 -0.0521 -0.7706 -0.5098
 7240TIP3    H143135   3.046   1.279   5.620  1.0374 -0.9002 -0.9503
 7240TIP3    H243136   2.998   1.138   5.649  0.8704 -0.6876 -0.1703
 7241TIP3   OH243137   6.792   5.739  11.961 -0.2486 -0.2070 -1.0160
 7241TIP3    H143138   6.731   5.670  11.987  0.9368 -1.4522 -1.3628
 7241TIP3    H243139   6.799   5.731  11.866  1.4970 -1.0679 -0.8623
 7242TIP3   OH243140   2.540   3.194  15.407  0.4047  0.4526  0.0149
 7242TIP3    H143141   2.630   3.225  15.417  0.8433 -1.1106  1.2675
 7242TIP3    H243142   2.504   3.248  15.337  1.7503  2.3173  0.6821
 7243TIP3   OH243143   4.827   3.885  14.011 -0.0631 -0.1469  0.2708
 7243TIP3    H143144   4.847   3.873  14.104 -1.0416 -1.0813  0.3733
 7243TIP3    H243145   4.886   3.824  13.966  0.6484  0.5451  0.2365
 7244TIP3   OH243146   6.012   1.359   5.583  0.0970  0.1982  0.0229
 7244TIP3    H143147   6.032   1.396   5.669  0.4888 -0.5973  0.2811
 7244TIP3    H243148   6.032   1.430   5.522  0.7575  0.4497  0.5115
 7245TIP3   OH243149   6.148   2.684   5.086  0.2073  0.1756  0.1579
 7245TIP3    H143150   6.190   2.673   5.000 -0.0780  1.6717 -0.2080
 7245TIP3    H243151   6.220   2.678   5.148  0.3890 -1.1352 -0.1598
 7246TIP3   OH243152   5.941   0.778  13.503 -0.5246 -0.3255  0.2934
 7246TIP3    H143153   5.942   0.698  13.555 -0.4800 -0.3848  0.2000
 7246TIP3    H243154   5.879   0.835  13.549  0.9919  0.3964  1.5598
 7247TIP3   OH243155   5.807   0.248   0.566 -0.0233  0.1535 -0.3064
 7247TIP3    H143156   5.849   0.247   0.480  0.7088  0.1178  0.0420
 7247TIP3    H243157   5.724   0.203   0.552  0.6921 -1.1180 -0.7021
 7248TIP3   OH243158   0.743   5.323  15.093  0.1568 -0.3609  0.3894
 7248TIP3    H143159   0.695   5.331  15.176  0.5575 -1.8559  0.8015
 7248TIP3    H243160   0.818   5.382  15.103 -1.2737  1.6785 -0.0946
 7249TIP3   OH243161   2.635   0.825   2.726 -0.2894 -0.0734  0.0213
 7249TIP3    H143162   2.549   0.796   2.755 -1.0170  0.3019 -1.6670
 7249TIP3    H243163   2.663   0.758   2.664  0.6318 -0.1640  0.5176
 7250TIP3   OH243164   2.908   2.602  13.426  0.4158 -1.1543  0.3610
 7250TIP3    H143165   2.898   2.579  13.333  1.5222 -0.0196 -0.0584
 7250TIP3    H243166   2.828   2.649  13.448  0.6135 -0.4721 -0.3319
 7251TIP3   OH243167   4.570   0.660  12.786 -0.1427 -0.1777  0.2110
 7251TIP3    H143168   4.611   0.581  12.751 -1.6839 -0.5493 -0.8724
 7251TIP3    H243169   4.490   0.629  12.828  0.0653  0.6415  1.2579
 7252TIP3   OH243170   1.328   1.243  14.212  0.0875  0.2465 -0.0340
 7252TIP3    H143171   1.377   1.160  14.215  0.9667  0.6728 -1.5489
 7252TIP3    H243172   1.374   1.300  14.273 -1.2593 -0.7065  1.9775
 7253TIP3   OH243173   2.770   1.428  11.108  0.4826 -0.4127 -0.7622
 7253TIP3    H143174   2.798   1.392  11.193 -0.5277  0.7202  0.0940
 7253TIP3    H243175   2.852   1.456  11.066  1.1579 -2.3690 -0.8726
 7254TIP3   OH243176   3.673   1.910   1.899 -0.0521  0.1899  0.1919
 7254TIP3    H143177   3.622   1.944   1.973  0.4036  2.0137 -0.2896
 7254TIP3    H243178   3.611   1.856   1.850 -0.9884  0.7788  0.6891
 7255TIP3   OH243179   1.346   2.580   2.770 -0.0199 -0.1849  0.0333
 7255TIP3    H143180   1.283   2.644   2.805 -0.3622 -0.4599 -0.0752
 7255TIP3    H243181   1.429   2.604   2.810 -0.0514  0.6109 -0.3508
 7256TIP3   OH243182   0.737   3.770   3.529  0.0102 -0.1998 -0.1481
 7256TIP3    H143183   0.759   3.745   3.439  3.6997 -0.4086  0.6593
 7256TIP3    H243184   0.803   3.835   3.552 -0.6488 -0.3721  2.5165
 7257TIP3   OH243185   5.847   5.518  11.411  0.0538  0.9985  0.9487
 7257TIP3    H143186   5.767   5.555  11.450 -1.0352  0.1199 -0.3408
 7257TIP3    H243187   5.843   5.425  11.433  1.0397  1.0451  1.3567
 7258TIP3   OH243188   5.723   1.602  15.060  0.3007  0.6040  0.4734
 7258TIP3    H143189   5.716   1.676  14.998 -2.2842  3.0686  3.3665
 7258TIP3    H243190   5.790   1.629  15.122 -0.7077  0.6112  1.5917
 7259TIP3   OH243191   4.800   2.618   1.710  0.7937  0.5066  0.0981
 7259TIP3    H143192   4.871   2.576   1.757 -1.5881 -0.7147  2.9474
 7259TIP3    H243193   4.798   2.575   1.625  2.3402 -0.6564  0.6161
 7260TIP3   OH243194   5.838   5.496   1.619  0.2615 -0.0996 -0.3535
 7260TIP3    H143195   5.765   5.502   1.557 -0.3584 -1.6524  0.1818
 7260TIP3    H243196   5.809   5.432   1.684  0.5361  2.0872  2.0677
 7261TIP3   OH243197   0.352   6.721   0.087  0.1009  0.9985 -0.1486
 7261TIP3    H143198   0.302   6.698   0.009 -0.3231  1.3991 -0.0016
 7261TIP3    H243199   0.421   6.656   0.091  1.8947  2.5985 -2.4644
 7262TIP3   OH243200   3.017   5.783  16.468 -0.0985 -0.1161  0.3457
 7262TIP3    H143201   3.040   5.756  16.557 -0.4110 -0.3723  0.3505
 7262TIP3    H243202   3.012   5.702  16.418  0.5189  0.0615 -0.0163
 7263TIP3   OH243203   0.889   3.424   2.247 -0.9346  0.1247  0.1003
 7263TIP3    H143204   0.800   3.393   2.231 -1.2274  1.2215 -0.5147
 7263TIP3    H243205   0.938   3.399   2.169 -0.2754 -1.8853  1.0971
 7264TIP3   OH243206   1.475   1.495   5.548 -0.0468  0.1288 -0.2080
 7264TIP3    H143207   1.507   1.577   5.509  1.0875 -0.4480 -0.5333
 7264TIP3    H243208   1.516   1.426   5.496  1.9702 -0.6954  2.2531
 7265TIP3   OH243209   6.305   6.140  14.689  0.1032  0.0232 -0.0624
 7265TIP3    H143210   6.323   6.159  14.597 -0.6065 -1.5460 -0.5739
 7265TIP3    H243211   6.367   6.071  14.711 -2.5296 -2.8263 -0.7727
 7266TIP3   OH243212   4.686   2.289   4.201 -0.2585  0.1593 -0.4897
 7266TIP3    H143213   4.749   2.360   4.189 -2.2439  2.0518 -0.4205
 7266TIP3    H243214   4.686   2.243   4.118 -0.7025  1.8273 -1.4606
 7267TIP3   OH243215   3.657   2.978  11.958 -0.2607 -0.1621  0.3573
 7267TIP3    H143216   3.633   2.886  11.958 -1.3288  0.0956  0.5018
 7267TIP3    H243217   3.703   2.991  12.041 -1.8471 -0.1669  1.2893
 7268TIP3   OH243218   2.336   0.767  10.840 -0.3652 -0.8052 -0.3796
 7268TIP3    H143219   2.274   0.830  10.803 -0.4496  0.8888  2.3591
 7268TIP3    H243220   2.416   0.778  10.788 -0.6331  1.0784 -0.4650
 7269TIP3   OH243221   1.507   6.648   2.789  0.0094  0.0208 -0.0363
 7269TIP3    H143222   1.555   6.729   2.808  2.4173 -1.5107  0.8181
 7269TIP3    H243223   1.514   6.637   2.694  0.0079  0.5888 -0.1067
 7270TIP3   OH243224   3.138   5.120   3.628  0.3163  0.5623 -0.6229
 7270TIP3    H143225   3.073   5.134   3.559  1.0886  1.1671 -1.2438
 7270TIP3    H243226   3.086   5.111   3.708 -0.5217  1.2985 -1.0658
 7271TIP3   OH243227   5.573   4.291   5.862 -0.1671 -0.4296 -0.1674
 7271TIP3    H143228   5.560   4.222   5.797  1.4201 -0.7175 -0.2219
 7271TIP3    H243229   5.493   4.343   5.858 -0.1084 -0.4151 -2.3899
 7272TIP3   OH243230   5.917   2.520  12.279  0.8051 -0.2497  0.3613
 7272TIP3    H143231   5.826   2.522  12.309  0.4679  1.2158 -0.6541
 7272TIP3    H243232   5.934   2.428  12.261 -0.5954 -0.5136  0.2434
 7273TIP3   OH243233   2.809   0.745  11.414  0.2164 -0.3009 -0.1458
 7273TIP3    H143234   2.761   0.712  11.490 -0.8648  1.1248 -0.1721
 7273TIP3    H243235   2.882   0.795  11.451  0.8427 -1.2344 -0.0894
 7274TIP3   OH243236   4.510   1.146  10.287 -0.1822 -0.2932  1.1531
 7274TIP3    H143237   4.444   1.094  10.241  0.9622 -0.6478 -0.1626
 7274TIP3    H243238   4.543   1.087  10.356 -1.7880  0.1832  2.3719
 7275TIP3   OH243239   4.435   4.809  15.757 -0.6860  0.2028 -0.7483
 7275TIP3    H143240   4.372   4.775  15.820  1.6542 -1.2691  0.9738
 7275TIP3    H243241   4.475   4.884  15.800  0.7669 -0.6649 -0.5313
 7276TIP3   OH243242   4.352   0.157   0.923 -0.6878  0.5011  0.2864
 7276TIP3    H143243   4.392   0.244   0.930  1.7199 -0.5306  0.3426
 7276TIP3    H243244   4.347   0.139   0.829  2.2541 -0.6835  0.2630
 7277TIP3   OH243245   6.574   4.404   1.927  0.0791  0.1616  0.5937
 7277TIP3    H143246   6.481   4.387   1.914  0.3787 -0.3836 -1.0593
 7277TIP3    H243247   6.602   4.337   1.990 -0.3687 -0.5627  0.0315
 7278TIP3   OH243248   2.963   0.970   1.488 -0.5420 -0.4115 -0.1531
 7278TIP3    H143249   2.960   0.990   1.395  0.0971 -0.5367 -0.2041
 7278TIP3    H243250   2.894   1.023   1.526 -1.5868 -1.2310 -0.8561
 7279TIP3   OH243251   0.229   3.152  15.412 -0.5348 -0.0975  0.0796
 7279TIP3    H143252   0.214   3.079  15.353 -1.5042 -0.7974  1.1509
 7279TIP3    H243253   0.251   3.111  15.496  0.9887  0.8729  0.1944
 7280TIP3   OH243254   1.475   2.886   2.224  0.3759 -0.0646 -0.3013
 7280TIP3    H143255   1.436   2.888   2.311 -1.4364 -0.0769 -1.0759
 7280TIP3    H243256   1.487   2.793   2.204 -1.2202 -0.1664 -0.8950
 7281TIP3   OH243257   3.256   3.737   3.945  0.4721  0.0334  0.1705
 7281TIP3    H143258   3.185   3.672   3.956  0.9822 -0.9771 -1.9667
 7281TIP3    H243259   3.226   3.813   3.994 -1.7217 -0.6615  0.0412
 7282TIP3   OH243260   5.560   0.473   3.387 -0.4253  0.0837  0.0998
 7282TIP3    H143261   5.492   0.517   3.437  0.1992 -0.7308  1.7491
 7282TIP3    H243262   5.515   0.437   3.311 -1.4912  0.9897  0.2779
 7283TIP3   OH243263   3.459   5.258   0.870 -0.0595 -0.3331 -0.0763
 7283TIP3    H143264   3.547   5.258   0.834  0.6962 -0.9327  1.6347
 7283TIP3    H243265   3.454   5.339   0.921 -1.0712  0.4617 -1.3680
 7284TIP3   OH243266   6.169   1.158   2.154 -0.3202  0.2145  0.4675
 7284TIP3    H143267   6.075   1.166   2.170 -0.2263  1.0226  0.6609
 7284TIP3    H243268   6.195   1.078   2.200 -1.3803 -1.5166 -1.7667
 7285TIP3   OH243269   0.891   3.541   2.898  0.4719 -0.2088 -0.1356
 7285TIP3    H143270   0.910   3.615   2.956  2.3413 -0.2670 -0.6071
 7285TIP3    H243271   0.923   3.465   2.946 -1.2124 -0.7296  0.2351
 7286TIP3   OH243272   0.252   3.040  11.972  1.0002 -0.4473  0.7193
 7286TIP3    H143273   0.282   3.055  11.883  1.0217  1.0499  0.9481
 7286TIP3    H243274   0.215   2.952  11.971 -0.5001  0.1363 -1.1994
 7287TIP3   OH243275   0.542   0.803   4.707 -0.3295 -0.0917 -0.1518
 7287TIP3    H143276   0.458   0.842   4.732  0.4743  1.9221 -0.4237
 7287TIP3    H243277   0.585   0.783   4.790 -1.0259 -1.0762 -0.0109
 7288TIP3   OH243278   3.533   2.065  12.186  0.3310 -0.5679  0.2067
 7288TIP3    H143279   3.539   2.121  12.108 -0.7735 -0.6156  0.0693
 7288TIP3    H243280   3.573   2.118  12.256 -0.7841  0.4609  0.1038
 7289TIP3   OH243281   3.651   1.327   0.115  0.0475  0.0312 -0.2009
 7289TIP3    H143282   3.710   1.392   0.155  0.7052 -1.3579  1.1685
 7289TIP3    H243283   3.708   1.254   0.092 -0.8495 -0.5161 -0.7349
 7290TIP3   OH243284   3.763   1.583   3.998 -0.4772  0.7457 -0.2240
 7290TIP3    H143285   3.726   1.576   4.086  0.5172  0.9456  0.2159
 7290TIP3    H243286   3.768   1.492   3.968 -1.2110  0.7041 -0.2545
 7291TIP3   OH243287   1.633   3.458   1.696 -0.4090  0.8854 -0.7803
 7291TIP3    H143288   1.656   3.380   1.746  1.8487  1.8675 -0.1316
 7291TIP3    H243289   1.614   3.524   1.762 -0.8738  1.2877 -1.3025
 7292TIP3   OH243290   4.772   2.249  14.670 -0.4091 -0.0051  0.1521
 7292TIP3    H143291   4.798   2.230  14.580 -0.6026  0.1012  0.0750
 7292TIP3    H243292   4.689   2.295  14.662 -0.6960 -0.4794  0.4141
 7293TIP3   OH243293   2.785   6.745  11.232 -0.1252  0.3474 -0.2071
 7293TIP3    H143294   2.833   6.805  11.289 -0.2793  1.2633 -1.0044
 7293TIP3    H243295   2.714   6.712  11.287  0.3821  0.3322  0.4589
 7294TIP3   OH243296   1.104   2.056  15.250 -0.2373  0.8029  0.0452
 7294TIP3    H143297   1.109   1.960  15.254  1.2365  0.8990  2.0599
 7294TIP3    H243298   1.181   2.086  15.298 -1.2618  3.0215  0.4398
 7295TIP3   OH243299   2.101   6.351  15.134  0.1395 -0.0786  0.3489
 7295TIP3    H143300   2.072   6.273  15.087 -2.1398  1.4745 -1.0434
 7295TIP3    H243301   2.143   6.405  15.066  1.1152  0.1871  1.1451
 7296TIP3   OH243302   3.971   4.084  11.505 -0.1249  0.1139  0.4093
 7296TIP3    H143303   3.986   4.073  11.411 -1.0699  1.0112  0.1326
 7296TIP3    H243304   3.935   4.172  11.513  2.2950  1.0573  1.9071
 7297TIP3   OH243305   6.417   2.303   3.174 -0.2133  0.7026  0.5830
 7297TIP3    H143306   6.367   2.296   3.093 -0.2260 -1.1402  0.7040
 7297TIP3    H243307   6.378   2.238   3.232  1.3816  0.2188  1.1772
 7298TIP3   OH243308   0.128   5.918  11.512  0.4200  0.5349  0.9975
 7298TIP3    H143309   0.197   5.962  11.562  2.7661 -2.4147  0.6311
 7298TIP3    H243310   0.144   5.943  11.421  0.2790  0.7761  1.0399
 7299TIP3   OH243311   0.863   0.860  15.635 -0.1767 -0.0600 -0.6315
 7299TIP3    H143312   0.848   0.774  15.596 -1.0874 -2.0144  3.4694
 7299TIP3    H243313   0.776   0.887  15.666  0.8293 -0.7072  3.4001
 7300TIP3   OH243314   6.724   1.289   1.335 -0.0818 -0.0216  0.2023
 7300TIP3    H143315   6.770   1.367   1.366  0.5150 -0.4150  0.3153
 7300TIP3    H243316   6.739   1.288   1.240  0.3260 -0.2632  0.2667
 7301TIP3   OH243317   1.275   1.456  11.340 -0.2809 -0.0166 -0.0956
 7301TIP3    H143318   1.214   1.417  11.403 -1.9600  0.2117 -1.4846
 7301TIP3    H243319   1.234   1.540  11.317  1.5943  1.0750  0.3817
 7302TIP3   OH243320   2.275   5.092  13.058 -0.0352  0.0858  0.0921
 7302TIP3    H143321   2.261   5.001  13.030 -0.4108 -0.4919  2.0133
 7302TIP3    H243322   2.232   5.144  12.990  0.2842 -1.1415 -1.1219
 7303TIP3   OH243323   1.013   2.825  11.174  0.2618 -0.1603 -0.2352
 7303TIP3    H143324   0.931   2.871  11.192 -0.3581 -0.5204 -1.9544
 7303TIP3    H243325   1.058   2.881  11.111  0.2678 -1.0520 -1.0510
 7304TIP3   OH243326   6.058   0.422  12.898  0.0714 -0.4071  0.0152
 7304TIP3    H143327   5.980   0.372  12.874 -1.2219  1.6683 -0.3715
 7304TIP3    H243328   6.077   0.475  12.820  1.0600  0.0715  0.5707
 7305TIP3   OH243329   2.332   1.628  14.965  0.7173 -0.0246 -0.0231
 7305TIP3    H143330   2.250   1.578  14.967  0.7601 -0.1027  1.8773
 7305TIP3    H243331   2.350   1.642  14.872 -1.0989 -0.5844 -0.4960
 7306TIP3   OH243332   1.922   5.747   4.115 -0.2754 -0.0795 -0.2737
 7306TIP3    H143333   1.919   5.699   4.198 -0.6985  3.7069  2.1575
 7306TIP3    H243334   2.008   5.727   4.079  0.0789 -1.5596  1.2387
 7307TIP3   OH243335   6.581   5.464   4.538  0.2433  0.7274  0.4733
 7307TIP3    H143336   6.559   5.377   4.504 -0.4253  1.3331 -0.6963
 7307TIP3    H243337   6.670   5.480   4.508  0.1609  0.6801  0.1998
 7308TIP3   OH243338   4.346   4.720  13.841 -0.5401  0.0298 -0.1327
 7308TIP3    H143339   4.380   4.806  13.817  1.3188 -0.3405  1.0083
 7308TIP3    H243340   4.301   4.733  13.924  2.4855 -0.5620  1.7356
 7309TIP3   OH243341   6.793   1.215  12.025  0.4707  0.5908  0.0695
 7309TIP3    H143342   6.809   1.135  11.976  0.6699  0.4449  0.3776
 7309TIP3    H243343   6.705   1.204  12.062  2.0669 -1.3381  3.6803
 7310TIP3   OH243344   3.947   3.829   3.487  0.4656  0.1938 -0.6894
 7310TIP3    H143345   3.933   3.881   3.408  0.5295 -3.1103 -3.0852
 7310TIP3    H243346   3.874   3.767   3.488  0.8426 -0.2841  1.5004
 7311TIP3   OH243347   6.565   2.419  11.603 -0.4595  0.2330 -0.1367
 7311TIP3    H143348   6.634   2.403  11.538 -2.2067  0.7414 -2.2282
 7311TIP3    H243349   6.545   2.333  11.639  0.0706 -0.1842 -0.8030
 7312TIP3   OH243350   4.089   3.751   4.602  0.3306  0.1605 -0.9362
 7312TIP3    H143351   4.071   3.755   4.508  1.7241 -0.9874 -1.2720
 7312TIP3    H243352   4.184   3.753   4.609  0.2867 -0.8649  0.3827
 7313TIP3   OH243353   1.873   3.028   0.927  0.1747 -0.1389 -0.1147
 7313TIP3    H143354   1.794   3.057   0.972  0.0795  0.7131 -0.8028
 7313TIP3    H243355   1.841   2.983   0.849  0.3533 -0.8599  0.2233
 7314TIP3   OH243356   5.962   0.715   1.751  0.0852  0.2231  0.2483
 7314TIP3    H143357   5.943   0.636   1.700  0.1647  0.2334  0.2026
 7314TIP3    H243358   6.057   0.710   1.768  0.2245  0.6804 -0.3713
 7315TIP3   OH243359   2.532   4.537  12.311  0.1799  0.4483  0.5064
 7315TIP3    H143360   2.453   4.485  12.297 -0.3566  1.4199 -0.2289
 7315TIP3    H243361   2.501   4.628  12.315  1.1395  0.7667  1.3059
 7316TIP3   OH243362   2.909   6.630  13.845  0.2207 -0.1849 -0.1585
 7316TIP3    H143363   2.867   6.596  13.766 -1.6254  0.0399  0.6677
 7316TIP3    H243364   2.999   6.647  13.819  0.5043 -3.0155 -1.3658
 7317TIP3   OH243365   3.868   2.991  11.219  0.3455  0.2113  0.0320
 7317TIP3    H143366   3.803   2.995  11.149  0.6278 -1.8898 -0.3996
 7317TIP3    H243367   3.949   2.965  11.175  0.6172 -0.7890  1.0705
 7318TIP3   OH243368   4.878   0.484  11.310 -0.2449  0.1009  0.6597
 7318TIP3    H143369   4.847   0.538  11.383 -0.9991 -0.1951  0.5736
 7318TIP3    H243370   4.967   0.460  11.333  0.5101  2.2570  0.2058
 7319TIP3   OH243371   2.602   1.295   3.553  0.4321  0.0064  0.2490
 7319TIP3    H143372   2.536   1.273   3.488 -0.8672 -2.5381  2.2489
 7319TIP3    H243373   2.685   1.293   3.505 -0.6608  0.5580 -1.7553
 7320TIP3   OH243374   5.302   0.067  14.600 -0.3000 -0.4247  0.6222
 7320TIP3    H143375   5.359  -0.001  14.636 -0.5966  0.2096  2.4073
 7320TIP3    H243376   5.271   0.031  14.517 -0.8135 -2.6609  1.7109
 7321TIP3   OH243377   2.212   1.010  14.237  0.2441 -0.2418 -0.1461
 7321TIP3    H143378   2.133   0.972  14.275  0.8790  1.0144  2.6823
 7321TIP3    H243379   2.260   0.934  14.202 -0.5143 -1.5105  1.4339
 7322TIP3   OH243380   1.579   6.413  16.345  0.2983 -0.9067  0.4606
 7322TIP3    H143381   1.557   6.383  16.433 -0.6440 -0.2664  0.4525
 7322TIP3    H243382   1.503   6.390  16.292  0.8895 -1.3503 -0.2128
 7323TIP3   OH243383   5.793   5.923   4.953  0.0649  0.2454 -0.1609
 7323TIP3    H143384   5.708   5.954   4.921 -0.1397  2.2637  2.1051
 7323TIP3    H243385   5.825   5.865   4.883 -1.2904  2.6515 -3.0083
 7324TIP3   OH243386   3.445   6.230   2.923 -0.1156  0.4728  0.0640
 7324TIP3    H143387   3.516   6.167   2.930 -0.0828  0.4947 -0.0661
 7324TIP3    H243388   3.474   6.305   2.976 -0.8879 -0.2790  1.6255
 7325TIP3   OH243389   5.224   3.731   4.807 -0.2642 -0.2525  0.5886
 7325TIP3    H143390   5.259   3.691   4.887  0.1305  0.7496  0.9303
 7325TIP3    H243391   5.214   3.823   4.829  0.4663  0.1577 -0.7145
 7326TIP3   OH243392   2.892   0.958  13.976  0.3597  0.1277 -0.2452
 7326TIP3    H143393   2.901   1.016  14.052  1.8366 -0.1038 -0.2248
 7326TIP3    H243394   2.912   1.014  13.901 -0.8345  0.2871 -0.4654
 7327TIP3   OH243395   0.443   5.871  17.127 -0.1337  0.1147  0.4110
 7327TIP3    H143396   0.391   5.951  17.136 -0.4423 -0.1044  0.5963
 7327TIP3    H243397   0.442   5.852  17.033 -1.4673 -0.5929  0.5513
 7328TIP3   OH243398   1.947   2.779   4.041  0.7230  0.2488 -0.6012
 7328TIP3    H143399   1.916   2.830   3.966 -1.1416 -1.8025 -1.3206
 7328TIP3    H243400   2.040   2.767   4.025  0.6149  0.9471 -1.9012
 7329TIP3   OH243401   2.323   3.679   0.798  0.0395 -0.3269  0.0708
 7329TIP3    H143402   2.331   3.766   0.836  3.4290 -0.3330 -0.2662
 7329TIP3    H243403   2.288   3.693   0.711 -0.9837  0.4897  0.5973
 7330TIP3   OH243404   1.117   1.363   2.499  0.6355 -0.3455  0.2094
 7330TIP3    H143405   1.070   1.322   2.572 -2.2470 -1.2367 -1.9384
 7330TIP3    H243406   1.050   1.375   2.432  3.2706 -0.3562 -2.6337
 7331TIP3   OH243407   3.105   0.864   6.120  0.3218 -0.2531  0.5208
 7331TIP3    H143408   3.183   0.896   6.164  0.8356 -0.2824 -0.3593
 7331TIP3    H243409   3.048   0.834   6.191  0.3044  1.4931  1.3107
 7332TIP3   OH243410   4.391   6.384   1.920 -0.0842 -0.2425 -0.1791
 7332TIP3    H143411   4.342   6.423   1.848  0.9961 -0.0176 -0.8150
 7332TIP3    H243412   4.483   6.398   1.897  0.3050 -1.5628  0.4729
 7333TIP3   OH243413   4.789   2.169   0.178  0.2617  0.3108 -0.6783
 7333TIP3    H143414   4.825   2.257   0.186  0.7014 -0.0161  1.4962
 7333TIP3    H243415   4.694   2.183   0.175  0.3605  0.9176 -2.1821
 7334TIP3   OH243416   3.341   2.288   4.761  0.1204 -0.0713 -0.0237
 7334TIP3    H143417   3.411   2.268   4.699 -0.1818 -1.3021 -0.0007
 7334TIP3    H243418   3.319   2.203   4.800 -0.3443  0.5359  1.0760
 7335TIP3   OH243419   1.925   3.349   2.799 -0.2218  0.0503 -0.4044
 7335TIP3    H143420   1.952   3.257   2.801 -0.4686 -0.0695 -1.5439
 7335TIP3    H243421   1.997   3.397   2.840  1.0258 -0.4091 -1.9757
 7336TIP3   OH243422   5.547   2.551  13.314  0.4702 -0.5686 -0.3538
 7336TIP3    H143423   5.600   2.474  13.336  2.8757  1.3070  0.8674
 7336TIP3    H243424   5.545   2.552  13.218  0.3503 -2.1178 -0.4032
 7337TIP3   OH243425   2.589   1.116   0.147  0.1161  0.0160 -0.1881
 7337TIP3    H143426   2.579   1.044   0.085  0.9075 -0.4084  0.1565
 7337TIP3    H243427   2.651   1.175   0.105  0.8263 -0.3804  0.2682
 7338TIP3   OH243428   4.098   1.911  16.825 -0.0661  0.9774 -0.1457
 7338TIP3    H143429   4.175   1.931  16.878  0.1806 -1.7809  0.6965
 7338TIP3    H243430   4.025   1.950  16.872  0.7247  3.7506 -1.0212
 7339TIP3   OH243431   5.191   1.220   3.187 -0.1514  0.3847 -0.1321
 7339TIP3    H143432   5.280   1.253   3.204  0.6975 -2.1470  0.7505
 7339TIP3    H243433   5.142   1.243   3.265 -0.6400  2.6740 -1.0192
 7340TIP3   OH243434   1.663   4.699   0.080 -0.0512 -0.0822 -0.1910
 7340TIP3    H143435   1.650   4.610   0.115  0.6213  0.7500  2.3696
 7340TIP3    H243436   1.688   4.751   0.156 -0.4664  2.3432 -1.6267
 7341TIP3   OH243437   1.817   6.088   5.040  0.0842  0.2410 -0.4746
 7341TIP3    H143438   1.768   6.008   5.020 -1.9629  1.3207 -0.0106
 7341TIP3    H243439   1.850   6.075   5.128 -0.3804 -0.0496 -0.3389
 7342TIP3   OH243440   4.594   1.110   6.099  0.1738  0.2734 -0.3433
 7342TIP3    H143441   4.529   1.052   6.137 -0.3400  0.8365 -0.3550
 7342TIP3    H243442   4.616   1.070   6.014  0.7303 -0.5502  0.1709
 7343TIP3   OH243443   6.235   4.654   2.437 -0.5888 -0.3563  0.4575
 7343TIP3    H143444   6.222   4.726   2.499  1.1526 -0.7777  1.3982
 7343TIP3    H243445   6.148   4.617   2.424 -1.1825  0.5520  1.6775
 7344TIP3   OH243446   1.451   2.923  13.067  0.3452 -0.7735 -0.0794
 7344TIP3    H143447   1.378   2.909  13.007 -0.2312  0.2627  0.3562
 7344TIP3    H243448   1.422   2.886  13.150  1.2072 -2.3521 -0.4418
 7345TIP3   OH243449   6.156   1.605  16.030  0.1776  0.4014 -0.4209
 7345TIP3    H143450   6.091   1.539  16.054  1.6661 -1.0709 -0.2529
 7345TIP3    H243451   6.217   1.607  16.104 -0.0899  2.3893 -0.1853
 7346TIP3   OH243452   0.080   4.537   5.549  0.1578 -0.0405 -0.5447
 7346TIP3    H143453   0.165   4.494   5.558 -0.3133 -1.1879 -1.2659
 7346TIP3    H243454   0.077   4.565   5.458 -0.1620  0.1505 -0.4755
 7347TIP3   OH243455   5.812   1.761   3.688  0.5404  0.0754  0.6237
 7347TIP3    H143456   5.859   1.735   3.767  0.9306 -1.4339 -0.0695
 7347TIP3    H243457   5.797   1.855   3.698  1.9267  0.1949  1.7752
 7348TIP3   OH243458   5.779   4.102  16.776 -0.2784 -0.0944 -0.2130
 7348TIP3    H143459   5.720   4.027  16.784  0.6036 -0.9098 -1.0573
 7348TIP3    H243460   5.786   4.137  16.865  0.3581 -1.8411  0.4554
 7349TIP3   OH243461   6.528   6.521  12.047  0.4728  0.5161  0.6105
 7349TIP3    H143462   6.589   6.504  11.975 -0.6667 -1.6964  0.0999
 7349TIP3    H243463   6.564   6.472  12.121 -0.0122  0.2081  0.6484
 7350TIP3   OH243464   0.854   1.459   0.288 -0.2201  0.3137 -0.1347
 7350TIP3    H143465   0.771   1.459   0.241 -0.4950 -0.3765  0.3489
 7350TIP3    H243466   0.874   1.552   0.301 -0.3307  0.5063 -1.2634
 7351TIP3   OH243467   5.099   3.959  16.913  0.1359  0.5666 -0.2619
 7351TIP3    H143468   5.128   3.967  17.004  0.6278  1.7625 -0.4964
 7351TIP3    H243469   5.177   3.978  16.861 -0.3111  0.6373 -0.9262
 7352TIP3   OH243470   1.549   1.600  15.976  0.0506 -0.8210  0.2252
 7352TIP3    H143471   1.565   1.678  16.029 -0.6542 -0.0153 -0.7256
 7352TIP3    H243472   1.483   1.551  16.025  0.2561 -0.6644  0.6660
 7353TIP3   OH243473   5.121   5.522  15.000 -0.3460 -0.0103  0.1024
 7353TIP3    H143474   5.185   5.504  15.070  0.1012  0.7020 -0.1143
 7353TIP3    H243475   5.045   5.558  15.046  0.0659  0.7520  0.1962
 7354TIP3   OH243476   6.325   3.892  15.038 -0.4467 -0.6843  0.6116
 7354TIP3    H143477   6.368   3.816  14.999 -0.0041 -0.3060  0.3481
 7354TIP3    H243478   6.340   3.884  15.132 -1.5019 -1.5948  0.7246
 7355TIP3   OH243479   4.188   5.855  16.637  0.1088  0.0287 -0.3227
 7355TIP3    H143480   4.194   5.911  16.715 -0.1761  0.2301 -0.4425
 7355TIP3    H243481   4.159   5.770  16.671  0.1122  0.0798 -0.1895
 7356TIP3   OH243482   3.435   4.934   1.458 -0.1234 -0.4024 -0.4887
 7356TIP3    H143483   3.378   4.991   1.511  0.4947  1.0113 -1.2870
 7356TIP3    H243484   3.524   4.964   1.478  0.0963  1.4289 -3.5615
 7357TIP3   OH243485   4.685   2.763  13.609  0.3667 -0.2941  0.4734
 7357TIP3    H143486   4.717   2.673  13.607 -0.7352 -0.7112  0.7302
 7357TIP3    H243487   4.682   2.785  13.703 -0.3445 -0.3710  0.4769
 7358TIP3   OH243488   4.152   0.684  16.560  0.0867 -0.1118  0.0818
 7358TIP3    H143489   4.231   0.638  16.588 -0.5712 -1.1775  0.2527
 7358TIP3    H243490   4.129   0.739  16.635 -0.2183 -1.0007  0.6548
 7359TIP3   OH243491   6.300   0.135  12.027  0.1338 -0.1311  0.1127
 7359TIP3    H143492   6.312   0.056  12.080  0.2562 -0.1699  0.0283
 7359TIP3    H243493   6.212   0.126  11.991  0.9029 -1.2841 -1.6134
 7360TIP3   OH243494   0.286   0.209   6.156  0.4692 -0.6697 -0.0863
 7360TIP3    H143495   0.296   0.180   6.247  1.2536 -1.2475 -0.3511
 7360TIP3    H243496   0.201   0.173   6.129  0.5546 -1.0936  0.1973
 7361TIP3   OH243497   3.835   5.363  13.501 -0.4498  0.1869 -0.1265
 7361TIP3    H143498   3.912   5.361  13.558  0.0501 -1.8058 -0.7934
 7361TIP3    H243499   3.794   5.278  13.514 -1.2347  0.3355 -1.5164
 7362TIP3   OH243500   4.493   1.350  11.920 -0.0529  0.0627  0.2708
 7362TIP3    H143501   4.517   1.399  11.842 -1.6776  0.7240  0.1511
 7362TIP3    H243502   4.492   1.258  11.892  3.4471 -0.2180  0.6078
 7363TIP3   OH243503   3.074   1.752  12.733  0.0817 -0.6544  0.4157
 7363TIP3    H143504   3.031   1.713  12.809  0.8644 -1.9445  0.2262
 7363TIP3    H243505   3.156   1.703  12.724  0.4670  0.1467 -0.6615
 7364TIP3   OH243506   3.189   0.937  15.554  0.0689  0.5841  0.5003
 7364TIP3    H143507   3.114   0.982  15.516 -0.2954  1.9627  2.7010
 7364TIP3    H243508   3.168   0.928  15.647  1.0846 -2.2771  0.5696
 7365TIP3   OH243509   5.710   3.249  12.833 -0.8472 -0.5081 -0.0055
 7365TIP3    H143510   5.758   3.219  12.910 -0.2448 -1.4979 -0.7509
 7365TIP3    H243511   5.737   3.341  12.823  0.4694 -0.8758 -0.0711
 7366TIP3   OH243512   1.602   5.115  15.723 -0.1234  0.1777 -0.3878
 7366TIP3    H143513   1.553   5.133  15.803 -1.8984 -0.3477 -1.2832
 7366TIP3    H243514   1.687   5.155  15.736  0.0390 -0.8309  2.1973
 7367TIP3   OH243515   4.951   3.317   1.764 -0.0161  0.5593  0.1793
 7367TIP3    H143516   4.867   3.273   1.773  0.5861 -0.2401  2.7259
 7367TIP3    H243517   4.929   3.409   1.750 -1.2870  0.2504 -0.0107
 7368TIP3   OH243518   5.390   4.411   4.750  0.0313  0.7595  0.2778
 7368TIP3    H143519   5.383   4.504   4.730  0.6984  0.8997  0.6706
 7368TIP3    H243520   5.454   4.378   4.687  0.7857  0.8420  0.9813
 7369TIP3   OH243521   0.761   5.739  16.013  0.5382 -0.0045 -0.2621
 7369TIP3    H143522   0.687   5.680  16.001 -0.7684  1.3310  0.7798
 7369TIP3    H243523   0.813   5.699  16.082 -0.5157  0.1755  0.6669
 7370TIP3   OH243524   3.782   1.423   5.682 -0.5410 -0.3847  0.1680
 7370TIP3    H143525   3.787   1.359   5.611 -0.6230 -0.7922  0.5249
 7370TIP3    H243526   3.736   1.377   5.753 -0.6026  0.0682  0.4280
 7371TIP3   OH243527   6.752   1.798   3.387  0.2197 -0.4106 -0.5776
 7371TIP3    H143528   6.842   1.799   3.420  0.7077 -0.1998 -1.8504
 7371TIP3    H243529   6.760   1.819   3.294 -1.1161 -0.8120 -0.8106
 7372TIP3   OH243530   5.166   6.577   1.727  0.1495 -0.4293 -0.3837
 7372TIP3    H143531   5.213   6.657   1.750  0.1612 -0.3897 -0.5427
 7372TIP3    H243532   5.209   6.509   1.778  0.7952 -0.4963 -0.9983
 7373TIP3   OH243533   2.528   3.178   5.708 -0.4044  0.3768  0.1008
 7373TIP3    H143534   2.570   3.116   5.648  1.5052  0.7957  0.9248
 7373TIP3    H243535   2.473   3.232   5.651  1.0037  0.4689 -1.2508
 7374TIP3   OH243536   2.516   0.921   2.018  0.0823  0.4016 -0.5037
 7374TIP3    H143537   2.483   0.835   2.043 -0.0330 -0.0286 -2.0289
 7374TIP3    H243538   2.473   0.982   2.078  2.4873 -0.7998  2.6854
 7375TIP3   OH243539   5.563   3.933  15.051 -0.1872 -0.1718 -0.7284
 7375TIP3    H143540   5.646   3.974  15.027 -0.2878 -0.6070 -1.8818
 7375TIP3    H243541   5.499   3.975  14.993 -0.5922 -0.6010 -0.5956
 7376TIP3   OH243542   2.916   5.125  10.983 -0.1412 -0.0021 -0.0213
 7376TIP3    H143543   2.894   5.217  10.978  0.2507  0.0218 -2.0397
 7376TIP3    H243544   2.944   5.102  10.894 -1.2443 -2.3159  0.1617
 7377TIP3   OH243545   0.486   3.281   0.402 -0.3664 -0.2065  0.3423
 7377TIP3    H143546   0.561   3.319   0.448  1.2403 -2.7770  0.0171
 7377TIP3    H243547   0.460   3.348   0.339  1.7219  0.7285  0.4087
 7378TIP3   OH243548   2.818   6.134  13.982  0.1879  0.2164  0.1894
 7378TIP3    H143549   2.766   6.109  13.905 -0.0657 -0.0133  0.4320
 7378TIP3    H243550   2.886   6.067  13.987 -0.5856 -0.5388  0.9321
 7379TIP3   OH243551   2.105   4.085  13.639  0.3811 -0.6527 -0.0251
 7379TIP3    H143552   2.113   4.008  13.695 -1.0838 -0.0279  1.1113
 7379TIP3    H243553   2.130   4.054  13.552  0.1315 -2.3348  0.4638
 7380TIP3   OH243554   2.597   3.608  15.660  0.2214 -0.4969  0.0962
 7380TIP3    H143555   2.653   3.599  15.583  1.1611 -0.3627  0.7511
 7380TIP3    H243556   2.574   3.700  15.663  0.9381 -0.3253  0.4842
 7381TIP3   OH243557   3.961   1.763   2.935  0.2374 -0.3220  0.7180
 7381TIP3    H143558   3.916   1.751   3.019  1.1973  1.7257  1.5989
 7381TIP3    H243559   4.040   1.709   2.942 -0.5260 -1.5073  0.4067
 7382TIP3   OH243560   2.137   5.480  16.232 -0.4814  0.0134  0.7443
 7382TIP3    H143561   2.157   5.399  16.185  1.9342 -0.1351  1.8996
 7382TIP3    H243562   2.133   5.547  16.164 -0.8786 -0.8015 -0.0563
 7383TIP3   OH243563   0.438   3.801   6.009 -0.1265  0.4756 -0.1556
 7383TIP3    H143564   0.526   3.831   5.985 -1.0196  1.6217 -2.2570
 7383TIP3    H243565   0.405   3.869   6.068 -0.5631  1.4768 -1.5134
 7384TIP3   OH243566   4.247   1.743   2.694 -0.4655 -0.0143 -0.0357
 7384TIP3    H143567   4.187   1.710   2.762 -0.9178  1.8124  0.5298
 7384TIP3    H243568   4.234   1.685   2.620 -3.7085  0.8003 -0.2699
 7385TIP3   OH243569   5.822   0.745   4.311 -0.8305 -0.3142 -0.4803
 7385TIP3    H143570   5.872   0.749   4.393 -3.3848  2.7237  1.1377
 7385TIP3    H243571   5.783   0.658   4.311 -0.7178 -0.4069  1.5310
 7386TIP3   OH243572   4.568   4.375   2.299 -0.2684  0.1915  0.6309
 7386TIP3    H143573   4.553   4.445   2.236  1.2131  1.1029  1.2269
 7386TIP3    H243574   4.502   4.390   2.367  0.6009  1.6163  1.2135
 7387TIP3   OH243575   4.895   2.349  11.829 -0.6541  0.4085  0.3154
 7387TIP3    H143576   4.954   2.284  11.790  2.6182  0.9654  3.7453
 7387TIP3    H243577   4.939   2.433  11.813 -3.6344  1.7496 -2.0002
 7388TIP3   OH243578   6.525   4.778  12.150  0.0006 -0.5225  0.6955
 7388TIP3    H143579   6.468   4.796  12.224  1.3254  2.4623  1.1074
 7388TIP3    H243580   6.611   4.763  12.188  0.8447  1.7039 -0.1585
 7389TIP3   OH243581   0.636   6.637  15.271 -0.2541  0.0547  0.1727
 7389TIP3    H143582   0.570   6.691  15.314 -0.4654 -0.4012  0.4274
 7389TIP3    H243583   0.686   6.699  15.218  1.4049  1.0551  2.6896
 7390TIP3   OH243584   4.646   5.021  15.621 -0.4251 -0.1114  0.0125
 7390TIP3    H143585   4.731   5.065  15.616  0.1830 -1.3704 -1.0606
 7390TIP3    H243586   4.603   5.064  15.695  0.8704  0.9979  0.1846
 7391TIP3   OH243587   0.492   5.217   5.585  0.4616 -0.4712  0.1518
 7391TIP3    H143588   0.539   5.148   5.539  0.1631 -1.6607  1.5383
 7391TIP3    H243589   0.548   5.239   5.660 -0.5055 -0.9326  1.0449
 7392TIP3   OH243590   4.217   0.500  15.296  0.2852  0.1987  0.5458
 7392TIP3    H143591   4.141   0.516  15.240  1.2162  1.6346 -0.3861
 7392TIP3    H243592   4.289   0.484  15.234  1.4100  2.0886  1.2811
 7393TIP3   OH243593   4.889   5.889  15.074 -0.1004  0.0409  0.2892
 7393TIP3    H143594   4.962   5.906  15.134  0.8012 -0.7586 -0.5279
 7393TIP3    H243595   4.911   5.940  14.995 -0.9634  0.6156  0.4154
 7394TIP3   OH243596   0.636   1.749  12.610  0.2691  0.1537  0.2734
 7394TIP3    H143597   0.595   1.668  12.642 -1.6165  0.8586 -0.1847
 7394TIP3    H243598   0.699   1.720  12.545 -1.3741 -0.9234 -0.9263
 7395TIP3   OH243599   3.590   1.641  15.141 -0.5181  0.2435 -0.5345
 7395TIP3    H143600   3.508   1.600  15.169 -0.1825 -0.4806 -0.5954
 7395TIP3    H243601   3.583   1.644  15.045 -0.2100 -0.3860 -0.5784
 7396TIP3   OH243602   0.639   6.021  13.322 -0.4244 -0.0394 -0.2595
 7396TIP3    H143603   0.581   6.004  13.248 -0.2642  0.8083 -0.5998
 7396TIP3    H243604   0.667   5.935  13.352 -0.6920 -0.3989 -1.0253
 7397TIP3   OH243605   2.510   6.524   1.141  0.1689 -0.3520 -0.0220
 7397TIP3    H143606   2.512   6.553   1.232  1.0603  0.0618 -0.1699
 7397TIP3    H243607   2.428   6.561   1.106  0.7170  1.0412  0.1122
 7398TIP3   OH243608   2.062   4.445  12.519 -0.1145 -0.0839  0.3999
 7398TIP3    H143609   1.982   4.447  12.572 -0.0555  0.3044  0.4801
 7398TIP3    H243610   2.082   4.352  12.510 -0.2134 -0.1616  0.9291
 7399TIP3   OH243611   0.761   5.770  10.854  0.0336  0.1521  0.2357
 7399TIP3    H143612   0.848   5.731  10.852 -0.6328 -1.3353 -0.6326
 7399TIP3    H243613   0.775   5.859  10.822  1.2794  0.0584  0.4418
 7400TIP3   OH243614   1.675   4.253   5.454  0.7064 -0.1123  0.8425
 7400TIP3    H143615   1.619   4.316   5.408  0.0612  1.3434  3.4631
 7400TIP3    H243616   1.762   4.292   5.450  0.6462  0.0272  0.8980
 7401TIP3   OH243617   1.724   1.824  14.044 -0.0117 -0.2055 -0.2465
 7401TIP3    H143618   1.805   1.776  14.028  0.3700  0.7420 -1.3468
 7401TIP3    H243619   1.708   1.814  14.137  3.4067  2.5343  0.8708
 7402TIP3   OH243620   3.359   2.423   4.032 -0.2606  0.5213  0.4409
 7402TIP3    H143621   3.362   2.518   4.024 -1.3607  0.6568  1.4453
 7402TIP3    H243622   3.265   2.402   4.034 -0.0281 -0.4969  1.2231
 7403TIP3   OH243623   2.940   1.824   0.930 -0.6267 -0.1332  0.2142
 7403TIP3    H143624   2.943   1.885   0.856 -1.7693  2.2409  2.0000
 7403TIP3    H243625   2.868   1.765   0.909  1.3004 -1.8626 -2.1474
 7404TIP3   OH243626   1.676   6.356   2.799  0.3430 -0.0988  0.2760
 7404TIP3    H143627   1.722   6.425   2.751  1.5831 -0.9922  0.1169
 7404TIP3    H243628   1.704   6.366   2.889  0.2097 -0.1513  0.3241
 7405TIP3   OH243629   3.013   4.192  13.262 -0.2176  0.0361  0.4098
 7405TIP3    H143630   2.981   4.102  13.252  0.3394  0.0326 -1.8091
 7405TIP3    H243631   2.966   4.242  13.195  0.4548  1.1426  0.7321
 7406TIP3   OH243632   1.193   0.434   4.670 -0.3804  0.1568  0.0852
 7406TIP3    H143633   1.193   0.438   4.574  1.7919  0.6740  0.0372
 7406TIP3    H243634   1.104   0.458   4.695 -0.9826  0.0924 -1.7937
 7407TIP3   OH243635   4.063   4.058  12.408 -0.1818  0.1827  0.0896
 7407TIP3    H143636   4.011   4.117  12.353 -0.6716  0.1582  0.5205
 7407TIP3    H243637   4.151   4.096  12.407 -0.3171  0.4974 -0.2449
 7408TIP3   OH243638   3.660   3.438  12.727 -0.0889 -0.2829 -0.0810
 7408TIP3    H143639   3.603   3.364  12.706 -0.5550  0.1731 -0.4411
 7408TIP3    H243640   3.736   3.398  12.769 -0.2073 -0.9914 -0.5200
 7409TIP3   OH243641   3.345   4.950   3.683  0.6861  0.2378  0.2002
 7409TIP3    H143642   3.310   4.863   3.704  1.1138 -0.1892 -0.7620
 7409TIP3    H243643   3.268   5.003   3.662  0.3571  0.3245  1.5228
 7410TIP3   OH243644   6.595   3.553   4.956  0.0273  0.0669 -0.1140
 7410TIP3    H143645   6.618   3.568   4.864 -1.8163 -0.0499 -0.6393
 7410TIP3    H243646   6.673   3.581   5.005 -0.2879  3.9060 -1.4575
 7411TIP3   OH243647   2.727   5.357  14.015  0.1237  0.4301 -0.2217
 7411TIP3    H143648   2.792   5.426  14.031  2.1220 -1.3431 -0.2261
 7411TIP3    H243649   2.769   5.298  13.953 -0.9290 -1.5555  0.8624
 7412TIP3   OH243650   2.509   5.091  14.430  0.5090  0.3414 -0.1595
 7412TIP3    H143651   2.427   5.046  14.409  0.6094 -0.2071  0.5927
 7412TIP3    H243652   2.487   5.184  14.431  0.4187  0.3943 -2.3251
 7413TIP3   OH243653   3.881   1.189  17.239 -0.1513  0.0587 -0.0663
 7413TIP3    H143654   3.876   1.094  17.248 -0.8969  0.1045  0.0016
 7413TIP3    H243655   3.907   1.203  17.148  0.9364 -0.2302  0.1863
 7414TIP3   OH243656   2.981   0.533   5.075  0.1217  0.3477  0.3150
 7414TIP3    H143657   2.903   0.585   5.057  1.5362  2.4610  0.0186
 7414TIP3    H243658   2.965   0.450   5.030 -0.1675  2.2605 -3.4323
 7415TIP3   OH243659   4.825   0.932  13.845  0.0265  0.1184 -0.3281
 7415TIP3    H143660   4.831   0.847  13.802  0.3612 -0.6327  1.1205
 7415TIP3    H243661   4.895   0.931  13.910 -0.7513  0.9861  0.5569
 7416TIP3   OH243662   4.053   5.167  14.978  0.3254  0.0946  0.8781
 7416TIP3    H143663   4.131   5.221  14.979  0.0574  0.5152 -0.2633
 7416TIP3    H243664   3.989   5.217  15.029 -0.0176  1.0381 -0.4246
 7417TIP3   OH243665   1.738   5.998   0.709 -0.5341  0.2126 -0.4764
 7417TIP3    H143666   1.694   6.069   0.661 -0.1616 -0.1869 -1.4380
 7417TIP3    H243667   1.792   6.043   0.774 -0.9565  0.7796 -0.5134
 7418TIP3   OH243668   4.587   2.280   3.157  0.4600 -0.0359 -0.2014
 7418TIP3    H143669   4.517   2.275   3.092 -1.1696 -1.1582  1.5430
 7418TIP3    H243670   4.551   2.237   3.234  2.5062  0.8059  1.3036
 7419TIP3   OH243671   6.107   4.769  11.453 -0.6553 -0.2450  0.4810
 7419TIP3    H143672   6.074   4.854  11.481 -3.6057 -1.0106 -0.2585
 7419TIP3    H243673   6.079   4.709  11.523 -0.2693 -0.8850  0.0980
 7420TIP3   OH243674   1.421   3.336   2.052  0.3190 -0.1200 -0.3881
 7420TIP3    H143675   1.468   3.267   2.098 -1.8438 -0.7465  1.0512
 7420TIP3    H243676   1.445   3.417   2.097  0.8074 -0.2823 -0.3550
 7421TIP3   OH243677   0.068   5.173  15.716  0.0030 -0.2968 -0.4618
 7421TIP3    H143678   0.032   5.094  15.756 -0.5123 -0.2914 -0.8986
 7421TIP3    H243679  -0.008   5.219  15.680  0.4511 -0.4202 -1.6443
 7422TIP3   OH243680   5.866   0.869  14.438 -0.3437 -0.3069 -0.0028
 7422TIP3    H143681   5.905   0.950  14.470 -1.0484 -0.2058  0.6325
 7422TIP3    H243682   5.939   0.818  14.404  0.3143 -0.0700  1.0289
 7423TIP3   OH243683   3.541   2.632  15.195  0.6892  0.2825  0.8971
 7423TIP3    H143684   3.527   2.545  15.158  0.4242  0.5571  0.3530
 7423TIP3    H243685   3.468   2.644  15.256 -2.4193  2.2147 -2.8294
 7424TIP3   OH243686   6.472   4.046   4.348  0.0354  0.2095 -0.5148
 7424TIP3    H143687   6.503   4.110   4.412 -0.6591  2.7936 -2.5632
 7424TIP3    H243688   6.382   4.026   4.375  0.2491  0.0828  0.1249
 7425TIP3   OH243689   3.848   1.784   2.291  0.3345  0.1488  0.4776
 7425TIP3    H143690   3.827   1.752   2.203 -0.6334  1.0663  0.3623
 7425TIP3    H243691   3.876   1.874   2.278 -2.4960  1.2620  1.3378
 7426TIP3   OH243692   6.447   3.916  12.462 -0.7064  0.4374  1.0909
 7426TIP3    H143693   6.400   3.834  12.455 -1.5768  0.8655  1.6978
 7426TIP3    H243694   6.534   3.891  12.494 -0.8170 -0.2825  0.8383
 7427TIP3   OH243695   0.677   4.057   2.922 -0.2650  0.0303  0.1738
 7427TIP3    H143696   0.764   4.026   2.949  0.2388  0.4315 -0.9056
 7427TIP3    H243697   0.694   4.112   2.846 -1.5065 -0.1581 -0.2678
 7428TIP3   OH243698   5.075   4.477  12.023 -0.1472 -0.0349  0.3504
 7428TIP3    H143699   5.147   4.443  12.076  1.2121  1.1666 -0.6627
 7428TIP3    H243700   5.110   4.555  11.981 -1.5553 -0.2593 -1.3669
 7429TIP3   OH243701   5.215   3.949   0.195  0.7715  0.1305 -0.4325
 7429TIP3    H143702   5.306   3.963   0.219  0.0953  1.8958  1.4338
 7429TIP3    H243703   5.165   3.998   0.261 -1.6101 -2.5819 -0.0269
 7430TIP3   OH243704   2.001   3.528  11.520 -0.2845 -0.0341  0.3881
 7430TIP3    H143705   1.967   3.455  11.469  1.0189 -0.1486 -0.3527
 7430TIP3    H243706   2.087   3.546  11.483  0.5678  0.1270  2.3208
 7431TIP3   OH243707   1.218   2.705   3.151  0.1669  0.0310 -0.6381
 7431TIP3    H143708   1.138   2.659   3.175  1.0961 -1.5820 -0.4904
 7431TIP3    H243709   1.189   2.776   3.094 -1.5253  0.5652  0.7802
 7432TIP3   OH243710   1.608   1.407  12.805  0.3612  0.1997 -0.0451
 7432TIP3    H143711   1.702   1.402  12.788  0.1520 -0.7620 -1.0325
 7432TIP3    H243712   1.601   1.458  12.885  2.0339 -3.4831  2.7443
 7433TIP3   OH243713   4.206   2.976  11.840  0.7258  0.0148 -0.5151
 7433TIP3    H143714   4.295   2.959  11.808  1.4066  2.0042  0.1325
 7433TIP3    H243715   4.218   2.991  11.934 -0.2732  0.4933 -0.4534
 7434TIP3   OH243716   6.451   6.047   1.315 -0.4625 -0.6194 -0.0591
 7434TIP3    H143717   6.405   6.110   1.370  1.1625  1.7407 -1.2083
 7434TIP3    H243718   6.544   6.061   1.334  0.0591 -0.9281 -2.0926
 7435TIP3   OH243719   4.715   0.035  16.571  0.1384  0.2640  0.4431
 7435TIP3    H143720   4.789   0.088  16.600 -0.3295  0.9877  0.3396
 7435TIP3    H243721   4.638   0.088  16.590 -0.2651  0.1800 -0.8272
 7436TIP3   OH243722   3.974   4.658  12.461 -0.0025  0.1708  0.5301
 7436TIP3    H143723   3.882   4.682  12.458  0.1795  1.4283  2.8661
 7436TIP3    H243724   3.973   4.564  12.477 -0.7701 -0.3609 -2.0310
 7437TIP3   OH243725   3.324   2.585   2.444 -0.1084  0.1954 -0.2350
 7437TIP3    H143726   3.404   2.635   2.430  0.1561 -0.4883 -1.3084
 7437TIP3    H243727   3.323   2.521   2.373 -0.4434 -1.3073  1.0625
 7438TIP3   OH243728   5.418   5.180  13.768  0.0515 -0.2290  0.5225
 7438TIP3    H143729   5.391   5.132  13.846 -0.2175  1.0501  1.2275
 7438TIP3    H243730   5.349   5.244  13.753 -0.0690 -0.6682 -0.9675
 7439TIP3   OH243731   2.706   4.866  14.143 -0.2740 -0.3327 -0.4500
 7439TIP3    H143732   2.713   4.808  14.068 -0.0836  0.2174 -0.8666
 7439TIP3    H243733   2.632   4.923  14.123 -0.6581 -0.6372  0.0993
 7440TIP3   OH243734   4.509   5.285  12.922 -0.0702  0.1209  0.1944
 7440TIP3    H143735   4.496   5.358  12.984  0.5536  0.9218 -0.5982
 7440TIP3    H243736   4.421   5.267  12.889 -0.1505  0.9407 -0.0687
 7441TIP3   OH243737   0.683   3.893   1.931 -0.5408  1.1897 -0.0690
 7441TIP3    H143738   0.746   3.832   1.892  0.6802  2.3619  0.0014
 7441TIP3    H243739   0.598   3.851   1.918  0.2130 -0.2808 -0.4694
 7442TIP3   OH243740   0.275   1.466   2.313 -0.2612  0.0244  0.1209
 7442TIP3    H143741   0.243   1.428   2.231  0.0789  0.1822 -0.0833
 7442TIP3    H243742   0.260   1.397   2.378 -0.9236  0.0529  0.0128
 7443TIP3   OH243743   2.905   3.061   0.160  0.0683 -0.1640 -1.0387
 7443TIP3    H143744   2.884   3.024   0.245 -0.7788  0.2150 -1.0816
 7443TIP3    H243745   2.983   3.115   0.176 -0.4070  0.3415 -0.3939
 7444TIP3   OH243746   6.664   0.876  12.143 -0.4952  0.1771 -0.0943
 7444TIP3    H143747   6.689   0.921  12.062  1.6930 -1.3006 -0.3241
 7444TIP3    H243748   6.707   0.791  12.137  0.5504  0.3719  3.0350
 7445TIP3   OH243749   3.422   0.617   0.283 -0.0256  0.4251  0.5780
 7445TIP3    H143750   3.410   0.530   0.320 -1.7609  1.2654  2.1161
 7445TIP3    H243751   3.334   0.647   0.262  0.5432  1.8040  0.0270
 7446TIP3   OH243752   2.291   1.719   6.069  0.2856 -0.7368 -0.2580
 7446TIP3    H143753   2.220   1.783   6.071  1.5951  0.7751  0.0393
 7446TIP3    H243754   2.343   1.745   5.993  1.6283 -0.5164  0.7041
 7447TIP3   OH243755   2.434   2.854   4.547  0.1146  0.2911 -0.0302
 7447TIP3    H143756   2.377   2.785   4.582  0.3238  1.2017  2.2543
 7447TIP3    H243757   2.507   2.807   4.507 -1.2533 -0.8525 -1.2947
 7448TIP3   OH243758   0.638   5.751   0.400  0.3383  0.1804  0.1950
 7448TIP3    H143759   0.563   5.787   0.352  1.2504  0.0353 -1.3895
 7448TIP3    H243760   0.614   5.761   0.492 -1.2435  0.9492 -0.2633
 7449TIP3   OH243761   3.772   1.664  16.279 -0.0128 -0.3624  0.3423
 7449TIP3    H143762   3.773   1.695  16.189  1.3131  0.5544  0.6453
 7449TIP3    H243763   3.719   1.729  16.326 -0.0910 -0.4368  0.3567
 7450TIP3   OH243764   5.494   4.360   2.605 -0.6542 -0.0684 -0.1732
 7450TIP3    H143765   5.488   4.350   2.510  1.4568 -2.0185 -0.1889
 7450TIP3    H243766   5.433   4.296   2.641 -3.3669  2.3528 -0.0766
 7451TIP3   OH243767   1.916   3.786   1.799 -0.0817  0.4212 -0.1755
 7451TIP3    H143768   1.893   3.879   1.790 -1.5576  0.4000  2.3905
 7451TIP3    H243769   2.012   3.785   1.797  0.0034  2.1920  0.8640
 7452TIP3   OH243770   1.617   3.061   5.088  0.3363 -0.2065  0.5630
 7452TIP3    H143771   1.711   3.072   5.102  0.2164  0.2386  1.0785
 7452TIP3    H243772   1.580   3.148   5.106 -0.3634 -0.7671  2.0323
 7453TIP3   OH243773   1.246   4.068  14.238 -0.2367 -0.4728 -0.3182
 7453TIP3    H143774   1.311   4.016  14.285 -0.1854 -0.3964 -0.3055
 7453TIP3    H243775   1.282   4.076  14.149  0.4245  0.7250  0.0424
 7454TIP3   OH243776   4.599   2.735   1.186 -0.0404  0.2724 -0.2921
 7454TIP3    H143777   4.639   2.756   1.270 -0.4000 -0.5749  0.1063
 7454TIP3    H243778   4.664   2.761   1.121 -0.1146  1.7504  0.1996
 7455TIP3   OH243779   2.543   0.636   0.120 -0.0568 -0.2160  0.3698
 7455TIP3    H143780   2.600   0.560   0.109  1.0043  0.5623  0.3222
 7455TIP3    H243781   2.601   0.712   0.108 -0.8695  0.6122  1.4013
 7456TIP3   OH243782   0.399   3.521   5.062  0.0879 -0.1322  0.0327
 7456TIP3    H143783   0.357   3.582   5.122 -1.1522 -0.7493 -0.1883
 7456TIP3    H243784   0.453   3.465   5.118  3.3280  2.6822  0.0380
 7457TIP3   OH243785   6.331   2.118  11.537 -0.4809 -0.0175  1.0552
 7457TIP3    H143786   6.357   2.174  11.463 -1.8218 -1.3900 -0.5260
 7457TIP3    H243787   6.414   2.098  11.581  0.6324 -0.6424 -1.1739
 7458TIP3   OH243788   2.426   3.432   0.722  0.0977 -0.2452  0.4840
 7458TIP3    H143789   2.470   3.412   0.805 -1.5165 -1.2495  1.1559
 7458TIP3    H243790   2.399   3.523   0.730  2.5919  0.6179 -0.2380
 7459TIP3   OH243791   0.450   4.577   1.784 -0.0966 -0.1609  0.2583
 7459TIP3    H143792   0.485   4.653   1.737 -0.7987 -0.3610 -0.6305
 7459TIP3    H243793   0.375   4.611   1.833 -0.8225 -0.3859 -0.6691
 7460TIP3   OH243794   2.837   4.325  12.786  0.7702  0.1533  0.1237
 7460TIP3    H143795   2.777   4.358  12.718 -0.1847 -0.2456  0.7524
 7460TIP3    H243796   2.908   4.284  12.737 -0.3758 -0.9561 -0.6520
 7461TIP3   OH243797   5.392   4.229  12.136 -0.2194  0.0836 -0.3645
 7461TIP3    H143798   5.426   4.227  12.225  1.9342 -1.7851 -1.1348
 7461TIP3    H243799   5.314   4.174  12.140 -0.1172 -0.0261  0.3450
 7462TIP3   OH243800   3.872   4.175   3.105 -0.2111 -0.4287  0.1508
 7462TIP3    H143801   3.952   4.124   3.088 -0.4366 -0.9539  0.6222
 7462TIP3    H243802   3.810   4.146   3.038  0.0677  0.1621 -0.3717
 7463TIP3   OH243803   1.928   0.533   4.620  0.0137 -0.4795  0.1195
 7463TIP3    H143804   1.913   0.586   4.698  0.2000 -0.6012  0.2378
 7463TIP3    H243805   1.982   0.588   4.563 -1.0405  0.0565 -0.4077
 7464TIP3   OH243806   1.865   5.611  14.740  0.0213 -0.5195 -0.3172
 7464TIP3    H143807   1.835   5.632  14.651 -0.0230 -1.9532 -0.6670
 7464TIP3    H243808   1.904   5.524  14.732  0.6085 -0.3976  0.9523
 7465TIP3   OH243809   6.255   0.005   6.076 -0.0802 -0.3916 -0.5067
 7465TIP3    H143810   6.182   0.062   6.051 -0.6769 -0.3937  1.0992
 7465TIP3    H243811   6.290   0.045   6.156  0.2366 -1.6394  0.0013
 7466TIP3   OH243812   2.062   0.224  14.484 -0.3731  0.0998 -0.2204
 7466TIP3    H143813   2.028   0.232  14.573  0.1117 -0.2295 -0.0054
 7466TIP3    H243814   2.023   0.299  14.437  1.5453  1.9421  0.9488
 7467TIP3   OH243815   1.724   2.079   2.930 -0.0960 -0.6945 -0.4084
 7467TIP3    H143816   1.632   2.065   2.951 -0.4126  0.3971 -0.9753
 7467TIP3    H243817   1.723   2.107   2.838  0.4375  2.5066  0.4413
 7468TIP3   OH243818   4.540   5.809  16.168  0.1765 -0.9248  0.0517
 7468TIP3    H143819   4.447   5.830  16.157  0.3928  0.0876  0.0746
 7468TIP3    H243820   4.574   5.804  16.079  0.5970  1.1273  0.0390
 7469TIP3   OH243821   3.756   3.731  13.596 -0.5918 -0.0107  0.1237
 7469TIP3    H143822   3.846   3.744  13.627 -0.1987 -0.2480 -0.8580
 7469TIP3    H243823   3.704   3.723  13.676  0.4087 -0.8744  0.7214
 7470TIP3   OH243824   4.163   3.373  16.210 -0.4300  0.0918  0.4841
 7470TIP3    H143825   4.094   3.349  16.148 -0.3454  0.3824  0.2753
 7470TIP3    H243826   4.203   3.289  16.234 -0.9603 -0.0940  0.7315
 7471TIP3   OH243827   1.587   0.353   0.871 -0.0472 -0.1445 -0.3728
 7471TIP3    H143828   1.508   0.300   0.884  0.1836 -0.2875  0.5340
 7471TIP3    H243829   1.559   0.425   0.815 -1.4249  1.1334  1.8370
 7472TIP3   OH243830   2.969   2.457  16.575  0.5920 -0.0090 -0.1252
 7472TIP3    H143831   3.019   2.376  16.573  2.0885  0.8709 -0.0413
 7472TIP3    H243832   2.920   2.454  16.657  1.1615 -0.5287  0.1976
 7473TIP3   OH243833   3.384   5.612   1.695  0.2305  0.3379  0.0015
 7473TIP3    H143834   3.468   5.568   1.709 -1.1109 -2.3856  0.0839
 7473TIP3    H243835   3.346   5.620   1.783 -0.6784 -0.8227 -0.2652
 7474TIP3   OH243836   2.715   6.077   5.094  0.0793 -0.9114  0.6459
 7474TIP3    H143837   2.688   6.103   5.006  0.6512 -0.4414  0.6013
 7474TIP3    H243838   2.779   6.143   5.120  0.7820 -1.6987  0.9573
 7475TIP3   OH243839   1.955   1.195   1.051  0.0540 -0.0163  0.0036
 7475TIP3    H143840   2.025   1.138   1.020 -0.3338 -0.4898 -0.0177
 7475TIP3    H243841   1.916   1.149   1.125 -0.2371  0.2409  0.0153
 7476TIP3   OH243842   0.248   5.258   0.899  0.7372 -0.6239  0.1215
 7476TIP3    H143843   0.215   5.323   0.837 -0.8789 -1.0893  0.4357
 7476TIP3    H243844   0.171   5.204   0.920  1.4284 -1.0060  1.8585
 7477TIP3   OH243845   2.376   0.305  16.621  0.1690 -0.3469  0.1800
 7477TIP3    H143846   2.431   0.243  16.574  1.6446 -0.8846  2.4739
 7477TIP3    H243847   2.292   0.301  16.575  0.8871 -2.3464 -1.1085
 7478TIP3   OH243848   1.180   4.960  12.346 -0.0365 -0.4025  0.2178
 7478TIP3    H143849   1.244   4.894  12.320 -0.3282 -0.1287 -1.3013
 7478TIP3    H243850   1.214   4.995  12.428 -0.3082 -3.0005  1.5608
 7479TIP3   OH243851   4.721   5.655   2.926  0.2089  0.1112  0.1129
 7479TIP3    H143852   4.640   5.657   2.977  0.8373  0.2553  1.1432
 7479TIP3    H243853   4.694   5.629   2.838 -1.1807  1.7807 -0.0086
 7480TIP3   OH243854   1.810   1.535   0.698 -0.0217 -0.3806  0.3917
 7480TIP3    H143855   1.865   1.607   0.671 -0.1800 -0.5123 -0.2962
 7480TIP3    H243856   1.836   1.517   0.789 -0.5549  1.0767  0.8650
 7481TIP3   OH243857   0.319   1.192  13.119 -0.4534  0.0986  0.3163
 7481TIP3    H143858   0.392   1.190  13.180 -1.1146 -0.0983  1.1199
 7481TIP3    H243859   0.242   1.172  13.173 -1.2710  1.5177 -0.2749
 7482TIP3   OH243860   2.501   4.034  14.065 -0.1033  0.6526 -0.4265
 7482TIP3    H143861   2.449   4.079  14.131  2.4768  1.8636  0.9304
 7482TIP3    H243862   2.466   4.065  13.982 -0.7666  2.3308  0.4323
 7483TIP3   OH243863   4.586   4.658  14.260 -0.5007 -0.3628  0.2090
 7483TIP3    H143864   4.572   4.697  14.346  0.3971  0.1386  0.1340
 7483TIP3    H243865   4.633   4.724  14.210  0.6083 -1.3351 -0.0840
 7484TIP3   OH243866   2.960   4.561   3.358 -0.5045  0.0486  0.6091
 7484TIP3    H143867   2.982   4.618   3.285  0.1393  0.4135  1.0741
 7484TIP3    H243868   2.992   4.475   3.332  1.3694  0.5260  1.1773
 7485TIP3   OH243869   3.136   5.837   0.386  0.0136  0.1229  0.1309
 7485TIP3    H143870   3.156   5.765   0.446 -0.9304  1.1712  1.7727
 7485TIP3    H243871   3.121   5.912   0.443  0.2058  1.4538 -1.5060
 7486TIP3   OH243872   4.224   6.481  15.783  0.4200 -0.0856  0.8667
 7486TIP3    H143873   4.170   6.552  15.819 -0.5293 -0.3017 -0.0894
 7486TIP3    H243874   4.241   6.508  15.693 -0.7315 -1.4744  0.1934
 7487TIP3   OH243875   2.560   4.995   4.135  0.0585  0.6453 -0.1181
 7487TIP3    H143876   2.589   5.079   4.172 -0.0469  0.1425  1.1402
 7487TIP3    H243877   2.527   4.946   4.210 -2.5122  0.5281 -1.2491
 7488TIP3   OH243878   2.135   4.384   1.035  0.5707  0.6556  0.3400
 7488TIP3    H143879   2.115   4.440   1.110  0.5614  1.7446 -0.4557
 7488TIP3    H243880   2.108   4.297   1.063 -1.3562  1.3639  0.8657
 7489TIP3   OH243881   3.290   3.990  14.807 -0.5636 -0.0721 -0.6947
 7489TIP3    H143882   3.354   3.998  14.736 -0.8370  0.4158 -0.8896
 7489TIP3    H243883   3.307   4.065  14.864 -1.2996  0.3590 -1.0284
 7490TIP3   OH243884   4.667   2.194   3.940  0.2661 -0.0389 -0.3629
 7490TIP3    H143885   4.762   2.182   3.944  0.1900 -0.6473 -0.2300
 7490TIP3    H243886   4.655   2.287   3.921  0.8747  0.1846  0.3057
 7491TIP3   OH243887   2.401   6.645   0.286 -0.6689  0.4573  0.1189
 7491TIP3    H143888   2.444   6.612   0.207 -0.1889  1.7410 -0.1751
 7491TIP3    H243889   2.308   6.635   0.268 -0.5698 -1.5834  0.4306
 7492TIP3   OH243890   1.238   5.455  15.653 -0.4502  0.5792  0.0674
 7492TIP3    H143891   1.330   5.430  15.642 -0.4193  0.7093  0.0277
 7492TIP3    H243892   1.240   5.527  15.716 -0.6380 -0.2485  1.0497
 7493TIP3   OH243893   6.017   6.245  11.510 -0.2615  0.1611 -0.0497
 7493TIP3    H143894   6.089   6.183  11.498  0.6108  1.3710 -1.3070
 7493TIP3    H243895   6.046   6.304  11.579 -0.9241 -0.5448  0.8616
 7494TIP3   OH243896   0.481   3.074   1.528  0.5784 -0.0928  0.6884
 7494TIP3    H143897   0.472   3.025   1.610 -0.7347 -0.9014  0.0868
 7494TIP3    H243898   0.548   3.028   1.478 -0.4089 -1.1022  0.2689
 7495TIP3   OH243899   5.544   5.506  13.401 -0.5061 -0.5554  0.2683
 7495TIP3    H143900   5.581   5.427  13.439 -2.6237 -1.6777  0.1052
 7495TIP3    H243901   5.475   5.533  13.462 -0.2902  0.7869 -0.0336
 7496TIP3   OH243902   4.913   3.928   4.017 -0.2386 -0.4942 -0.1453
 7496TIP3    H143903   4.866   3.983   3.955  1.1937  1.2479  0.2507
 7496TIP3    H243904   4.915   3.842   3.976 -1.3841  0.0417 -1.3955
 7497TIP3   OH243905   4.907   4.765  15.283  0.2121  0.4487 -0.5974
 7497TIP3    H143906   4.973   4.761  15.213 -0.6998 -2.4722 -1.4590
 7497TIP3    H243907   4.823   4.766  15.236 -0.3854 -0.1727  0.4272
 7498TIP3   OH243908   1.617   5.536   5.152  0.3779  0.3969  0.1626
 7498TIP3    H143909   1.596   5.578   5.069 -1.1228  0.8349  0.7347
 7498TIP3    H243910   1.700   5.575   5.178  1.1670 -0.1710 -1.3897
 7499TIP3   OH243911   5.432   6.459  14.011  0.1589  0.1783 -0.2795
 7499TIP3    H143912   5.339   6.442  13.998  0.3121 -1.9523  0.9352
 7499TIP3    H243913   5.447   6.441  14.104  1.8372  0.1210 -0.5310
 7500TIP3   OH243914   2.710   4.795  11.327  0.4434 -0.4934  0.0928
 7500TIP3    H143915   2.713   4.858  11.254 -1.5082 -1.8103 -1.2102
 7500TIP3    H243916   2.685   4.712  11.286 -0.8773 -1.2447  2.2994
 7501TIP3   OH243917   3.206   0.848   4.586  0.2339  0.0788 -0.0760
 7501TIP3    H143918   3.214   0.839   4.491 -0.7121 -0.2921 -0.1317
 7501TIP3    H243919   3.240   0.766   4.621  1.5261  0.6079 -0.0225
 7502TIP3   OH243920   0.419   2.678   3.898 -0.0942  0.2524 -0.1521
 7502TIP3    H143921   0.351   2.710   3.957 -0.9802 -1.7555  0.0005
 7502TIP3    H243922   0.479   2.630   3.955  0.0551 -0.1413 -0.6395
 7503TIP3   OH243923   5.681   1.396  14.158  0.1498 -0.1810 -0.5616
 7503TIP3    H143924   5.688   1.371  14.250 -0.2544 -0.7970 -0.6851
 7503TIP3    H243925   5.630   1.477  14.159  1.2468  0.5330 -0.1656
 7504TIP3   OH243926   3.504   2.204   3.999  0.3408  0.2115 -0.1032
 7504TIP3    H143927   3.430   2.144   4.001 -0.1304  0.7821  0.1429
 7504TIP3    H243928   3.464   2.291   4.004  0.9107  0.6152 -1.8523
 7505TIP3   OH243929   0.272   4.886  10.823 -0.3454 -0.4931  0.1932
 7505TIP3    H143930   0.191   4.909  10.777 -0.0605 -0.9227 -0.5325
 7505TIP3    H243931   0.265   4.792  10.840 -0.3879 -0.3639  0.9202
 7506TIP3   OH243932   1.786   2.904  14.213 -0.4806  0.3713  0.2891
 7506TIP3    H143933   1.801   2.823  14.164 -2.2500 -1.2049  2.1459
 7506TIP3    H243934   1.705   2.940  14.176 -1.7136 -0.7208  1.7939
 7507TIP3   OH243935   3.114   6.506  11.866 -0.2976  0.1694 -0.4237
 7507TIP3    H143936   3.085   6.444  11.799  1.1242  0.7601 -1.6412
 7507TIP3    H243937   3.057   6.582  11.853 -0.4224  0.0561 -0.5543
 7508TIP3   OH243938   0.727   6.255  13.847  0.4156  0.2924  0.5005
 7508TIP3    H143939   0.668   6.298  13.786  0.1932  0.3378  0.7499
 7508TIP3    H243940   0.700   6.163  13.845  1.6693 -0.0978 -0.9678
 7509TIP3   OH243941   5.863   2.321  17.105  0.7786  0.3158  0.6052
 7509TIP3    H143942   5.891   2.258  17.039  1.6050  0.6211  0.6596
 7509TIP3    H243943   5.793   2.371  17.062  0.4734 -0.2830  0.3882
 7510TIP3   OH243944   6.240   2.142   3.711 -0.1562 -0.4209  0.1348
 7510TIP3    H143945   6.197   2.223   3.735 -0.2843  0.3163 -2.2629
 7510TIP3    H243946   6.313   2.169   3.656 -1.3500 -1.9076 -2.3965
 7511TIP3   OH243947   2.395   2.179  16.659  0.2488 -0.2222 -0.4825
 7511TIP3    H143948   2.383   2.102  16.603  0.7228 -2.1847  1.9489
 7511TIP3    H243949   2.471   2.158  16.714 -2.3646 -0.2981  3.5793
 7512TIP3   OH243950   1.066   2.894  11.962  0.4071 -0.4282  0.4883
 7512TIP3    H143951   1.009   2.883  11.886 -0.2023 -1.3119  1.0583
 7512TIP3    H243952   1.009   2.930  12.030  0.8232 -0.1654  0.7078
 7513TIP3   OH243953   2.265   6.286  14.586 -0.2719 -0.7377 -0.0346
 7513TIP3    H143954   2.292   6.363  14.636  0.1403 -0.2591 -0.9707
 7513TIP3    H243955   2.188   6.313  14.538  0.0475 -0.8050 -0.5998
 7514TIP3   OH243956   1.787   6.269  16.251  0.4027 -0.2624  0.0645
 7514TIP3    H143957   1.820   6.208  16.318 -1.5615 -1.6784 -0.1636
 7514TIP3    H243958   1.718   6.318  16.294  0.8289  0.6227 -0.2403
 7515TIP3   OH243959   4.637   1.067  14.411  0.1588  0.0551  0.6392
 7515TIP3    H143960   4.716   1.055  14.358 -0.0991  0.7599  0.0780
 7515TIP3    H243961   4.585   1.131  14.362 -0.3245  0.3269  1.4953
 7516TIP3   OH243962   6.244   5.411  11.207 -0.6236 -0.7073 -0.4350
 7516TIP3    H143963   6.269   5.409  11.114 -1.4376  1.1218 -0.7287
 7516TIP3    H243964   6.320   5.449  11.251  0.6187 -3.4702  0.0237
 7517TIP3   OH243965   3.648   5.883   4.792 -0.2719 -0.0969  0.3272
 7517TIP3    H143966   3.643   5.787   4.795 -1.8165 -0.1822 -2.1632
 7517TIP3    H243967   3.741   5.902   4.802  0.1088 -1.8725  0.5394
 7518TIP3   OH243968   1.787   2.868   6.702  0.0296  0.1241  0.1141
 7518TIP3    H143969   1.813   2.779   6.728  0.1762 -0.0347 -0.5556
 7518TIP3    H243970   1.778   2.863   6.607  0.1879  0.8684  0.0556
 7519TIP3   OH243971   0.914   4.598   0.630 -0.0632 -0.4449  0.2566
 7519TIP3    H143972   0.987   4.536   0.622  0.3631  0.0515  0.2231
 7519TIP3    H243973   0.908   4.638   0.544  0.8585  0.8586  0.7569
 7520TIP3   OH243974   3.592   6.271   5.657 -0.3343 -0.1652  0.1859
 7520TIP3    H143975   3.568   6.202   5.720  1.2110 -0.8859  0.0235
 7520TIP3    H243976   3.645   6.332   5.707  1.6821 -1.2137 -0.5499
 7521TIP3   OH243977   5.315   3.125  17.193  0.5861 -0.1771  0.2005
 7521TIP3    H143978   5.339   3.213  17.222 -1.5384  0.0745  1.3286
 7521TIP3    H243979   5.274   3.138  17.107  1.9002 -0.3125 -0.4775
 7522TIP3   OH243980   0.113   4.783  15.697  0.3871 -0.2231  0.4914
 7522TIP3    H143981   0.071   4.819  15.775 -1.0357 -1.3326  0.2734
 7522TIP3    H243982   0.203   4.815  15.701 -0.1093  1.0823  1.7115
 7523TIP3   OH243983   1.558   3.691  11.265 -0.2380  0.0373 -0.7008
 7523TIP3    H143984   1.543   3.752  11.337  1.7930 -0.4695  0.2250
 7523TIP3    H243985   1.485   3.630  11.270 -1.9341  1.9222 -1.2146
 7524TIP3   OH243986   5.206   3.432   5.687  0.3843  0.1011 -0.3423
 7524TIP3    H143987   5.112   3.443   5.703  0.3985  1.6790 -1.1668
 7524TIP3    H243988   5.211   3.394   5.599  0.5296 -0.3451 -0.1482
 7525TIP3   OH243989   1.489   1.205  15.598 -0.0534  0.4948 -0.1143
 7525TIP3    H143990   1.401   1.197  15.562  0.2117  0.8082 -0.8555
 7525TIP3    H243991   1.547   1.182  15.525  0.4628 -1.0228  0.7413
 7526TIP3   OH243992   4.704   4.982  12.042  0.1288  0.1840 -0.3055
 7526TIP3    H143993   4.776   4.936  12.085 -1.4121 -2.5283 -0.3794
 7526TIP3    H243994   4.738   5.004  11.955  1.0334 -0.6104 -0.1674
 7527TIP3   OH243995   2.497   0.176  11.468 -0.5565 -0.4693 -0.2732
 7527TIP3    H143996   2.412   0.173  11.424 -0.1322 -2.0907 -1.0411
 7527TIP3    H243997   2.495   0.259  11.517 -3.7685 -1.8059  2.2104
 7528TIP3   OH243998   5.918   3.207   2.832 -0.0626 -0.3579 -0.3865
 7528TIP3    H143999   5.977   3.177   2.763  0.2642 -2.4929  0.7354
 7528TIP3    H244000   5.973   3.261   2.889 -0.4318  1.7683 -1.9306
 7529TIP3   OH244001   5.781   2.514   1.371 -0.0343 -0.0917  0.2842
 7529TIP3    H144002   5.840   2.464   1.315  0.0473  1.3432 -0.9604
 7529TIP3    H244003   5.815   2.604   1.369 -0.8893  0.2951  1.4588
 7530TIP3   OH244004   2.923   4.418  16.607  0.0826 -0.7042 -0.8864
 7530TIP3    H144005   2.994   4.365  16.571  0.2550 -0.0074 -1.5927
 7530TIP3    H244006   2.924   4.397  16.701  1.4073 -0.5046 -0.8242
 7531TIP3   OH244007   0.048   3.152   4.816  0.0494  0.0316 -0.0612
 7531TIP3    H144008   0.075   3.238   4.849  2.1983 -0.9446  0.9359
 7531TIP3    H244009   0.125   3.118   4.771 -0.7506 -1.3845 -0.4316
 7532TIP3   OH244010   4.502   6.222   1.517 -0.1628 -0.3568  0.1572
 7532TIP3    H144011   4.484   6.168   1.593 -0.6055  1.5324  1.4783
 7532TIP3    H244012   4.580   6.184   1.477  0.4669 -1.0100  1.9429
 7533TIP3   OH244013   5.225   5.587   4.668  0.3321  0.0083 -0.0621
 7533TIP3    H144014   5.179   5.602   4.751  0.2698 -0.9190  0.0793
 7533TIP3    H244015   5.312   5.624   4.682  0.7589 -1.2803  0.8869
 7534TIP3   OH244016   0.629   1.434   2.351  0.1957  0.9280 -0.3864
 7534TIP3    H144017   0.562   1.441   2.419  0.0373 -0.3938 -0.3878
 7534TIP3    H244018   0.645   1.525   2.324 -1.3011  1.3013 -0.1109
 7535TIP3   OH244019   6.076   2.642  14.394  0.7773  0.0167  0.4703
 7535TIP3    H144020   6.111   2.726  14.422 -1.6404  0.7895  1.4603
 7535TIP3    H244021   6.027   2.662  14.314  0.8265 -0.5902  0.2843
 7536TIP3   OH244022   3.906   4.693  10.818 -0.0754 -0.5519 -0.4549
 7536TIP3    H144023   3.845   4.649  10.758  0.7843 -0.0783 -1.7240
 7536TIP3    H244024   3.986   4.705  10.766  0.9295 -0.6849  0.9996
 7537TIP3   OH244025   4.817   2.976   0.668 -0.2842 -0.0093 -0.2949
 7537TIP3    H144026   4.903   2.966   0.708  0.5405  0.4073 -1.8496
 7537TIP3    H244027   4.831   3.040   0.597 -1.8672  0.0494 -0.6027
 7538TIP3   OH244028   2.678   1.644   0.548 -0.4983 -1.1641  0.4349
 7538TIP3    H144029   2.700   1.689   0.467 -0.5124  0.9738  1.5362
 7538TIP3    H244030   2.721   1.559   0.541 -2.0596 -1.8172 -2.5799
 7539TIP3   OH244031   1.009   0.942  10.163  0.2621 -0.2921 -0.3428
 7539TIP3    H144032   1.050   1.027  10.179  0.1566  0.4610 -3.5703
 7539TIP3    H244033   0.945   0.933  10.234  1.0115  1.8030  0.6670
 7540TIP3   OH244034   0.032   4.764  13.670  0.2042 -0.9129 -0.4206
 7540TIP3    H144035  -0.013   4.844  13.697  2.9870  0.2167  1.2947
 7540TIP3    H244036   0.072   4.787  13.586  0.7159 -0.6023 -0.0957
 7541TIP3   OH244037   5.879   0.238   3.009  0.2690  0.5316  0.3319
 7541TIP3    H144038   5.912   0.191   2.932 -0.7709  0.5160 -0.1281
 7541TIP3    H244039   5.803   0.286   2.976  0.7528  1.8002  1.0106
 7542TIP3   OH244040   5.624   5.314   0.969  0.4594  0.1688 -0.1564
 7542TIP3    H144041   5.638   5.403   0.937 -0.0862  0.1198 -0.5401
 7542TIP3    H244042   5.669   5.312   1.054 -0.0899  1.0102  0.1667
 7543TIP3   OH244043   1.163   1.316  15.746  0.3490 -0.0796  0.2876
 7543TIP3    H144044   1.145   1.223  15.758 -0.4037  0.1716  1.3017
 7543TIP3    H244045   1.196   1.324  15.657  0.1110 -1.2741  0.0851
 7544TIP3   OH244046   3.234   6.473   3.367  0.2904  0.3943 -0.0440
 7544TIP3    H144047   3.298   6.470   3.296  1.7204  0.0027  1.2150
 7544TIP3    H244048   3.198   6.562   3.363 -0.1190  0.1888 -1.6139
 7545TIP3   OH244049   3.685   4.337  16.693  0.5401  0.1371 -0.4756
 7545TIP3    H144050   3.701   4.267  16.630  0.4534  0.3605 -0.7502
 7545TIP3    H244051   3.773   4.370  16.714  0.7182 -1.2187  1.0108
 7546TIP3   OH244052   2.719   6.264   1.785 -0.7562 -0.2649 -0.1904
 7546TIP3    H144053   2.657   6.203   1.745 -1.9248  0.4500  0.4969
 7546TIP3    H244054   2.677   6.349   1.778  1.0633  0.6024 -1.5959
 7547TIP3   OH244055   0.689   2.217   4.387  0.1448 -0.5018 -0.5879
 7547TIP3    H144056   0.758   2.224   4.322 -0.3236 -0.9359 -1.1422
 7547TIP3    H244057   0.700   2.295   4.441  0.7231 -0.2848 -1.0037
 7548TIP3   OH244058   6.715   4.643  12.859 -0.1759  0.0750 -0.5481
 7548TIP3    H144059   6.630   4.599  12.859 -0.1441  0.0118 -0.7544
 7548TIP3    H244060   6.711   4.703  12.933 -0.5427  0.3486 -0.7860
 7549TIP3   OH244061   0.983   1.557   5.930 -0.1525 -0.1169  0.0668
 7549TIP3    H144062   0.970   1.540   6.023 -0.8547  0.0971  0.0106
 7549TIP3    H244063   1.059   1.614   5.926  0.1945 -0.5494  0.4737
 7550TIP3   OH244064   3.893   5.800  15.340  0.4513 -0.3605 -0.5667
 7550TIP3    H144065   3.983   5.767  15.343  0.5178 -0.1214  1.0974
 7550TIP3    H244066   3.900   5.890  15.371 -0.4540 -0.5991  0.3879
 7551TIP3   OH244067   0.970   6.308   2.702 -0.1428  0.2031  0.1448
 7551TIP3    H144068   1.038   6.241   2.697 -0.7675 -0.3802 -0.9389
 7551TIP3    H244069   1.010   6.386   2.665  0.3077  0.1913  0.5960
 7552TIP3   OH244070   3.407   0.661   5.370 -0.3254  0.9844  0.5064
 7552TIP3    H144071   3.426   0.721   5.442 -0.8003  0.4389  1.0837
 7552TIP3    H244072   3.336   0.703   5.322  1.2931  2.3419 -0.8427
 7553TIP3   OH244073   5.663   3.021   2.521 -0.0791 -0.2021 -0.7884
 7553TIP3    H144074   5.598   2.951   2.522 -0.9822  0.6208  0.6138
 7553TIP3    H244075   5.661   3.055   2.432 -1.6172 -0.1314 -0.7374
 7554TIP3   OH244076   0.294   6.777   2.377 -0.1629  0.1754 -0.1464
 7554TIP3    H144077   0.355   6.706   2.353 -0.0770 -0.3820  1.5868
 7554TIP3    H244078   0.325   6.807   2.462 -1.7566  0.5100  0.3478
 7555TIP3   OH244079   4.631   0.640   0.096  0.0948 -0.2395  0.2055
 7555TIP3    H144080   4.614   0.550   0.069  1.3685 -1.1410  2.1406
 7555TIP3    H244081   4.554   0.664   0.148  0.0525 -0.4717  0.2541
 7556TIP3   OH244082   3.617   5.457   1.532  0.0229 -0.0690  0.1576
 7556TIP3    H144083   3.699   5.421   1.567  0.3727  0.0053 -0.5691
 7556TIP3    H244084   3.550   5.394   1.559  0.2590  0.0725  1.0957
 7557TIP3   OH244085   5.152   1.908   1.494 -0.2456 -0.7525  0.1786
 7557TIP3    H144086   5.246   1.890   1.502 -0.1062 -0.0985  0.0122
 7557TIP3    H244087   5.116   1.883   1.579  0.4097  0.9851  1.0160
 7558TIP3   OH244088   2.435   1.566  16.116  0.6373  0.3003  0.2482
 7558TIP3    H144089   2.470   1.566  16.027 -1.1715  0.9003 -0.5132
 7558TIP3    H244090   2.344   1.540  16.105 -0.0998  2.0694  1.7073
 7559TIP3   OH244091   0.490   1.845   1.958  0.8238  0.0371  0.1559
 7559TIP3    H144092   0.468   1.777   2.021  1.0500 -0.5289 -0.3578
 7559TIP3    H244093   0.408   1.893   1.945  0.5019 -0.5183  0.0761
 7560TIP3   OH244094   2.403   2.122  13.894 -0.0175 -0.0171  0.3901
 7560TIP3    H144095   2.455   2.043  13.906  0.6074  0.6671  2.5761
 7560TIP3    H244096   2.450   2.172  13.828  0.4541 -0.7238  0.1742
 7561TIP3   OH244097   4.356   5.493  12.291 -0.0998 -0.5921  0.4115
 7561TIP3    H144098   4.452   5.493  12.288 -0.1163 -1.4555 -0.5222
 7561TIP3    H244099   4.330   5.532  12.207 -0.5850  1.5310  1.4742
 7562TIP3   OH244100   5.073   0.395   2.500  0.6836 -0.2206  0.1821
 7562TIP3    H144101   4.987   0.370   2.534  1.6308 -1.3264  1.9606
 7562TIP3    H244102   5.110   0.451   2.568  1.1449  0.7553 -0.8473
 7563TIP3   OH244103   4.551   3.786   5.564  0.0871  0.0716 -0.2568
 7563TIP3    H144104   4.622   3.849   5.555 -0.5059  0.4635 -4.4628
 7563TIP3    H244105   4.576   3.714   5.506 -1.5233 -1.2621  0.6142
 7564TIP3   OH244106   5.735   6.614  14.834 -0.5500 -0.2402  0.2556
 7564TIP3    H144107   5.716   6.664  14.754  0.5954 -1.7010 -0.9924
 7564TIP3    H244108   5.706   6.525  14.815 -1.4067 -0.3729  1.9756
 7565TIP3   OH244109   6.548   1.736  14.969 -0.2319 -0.5437 -0.2916
 7565TIP3    H144110   6.487   1.704  15.035  1.8777 -1.6264  1.2420
 7565TIP3    H244111   6.506   1.814  14.933 -1.8009 -0.3587  1.7908
 7566TIP3   OH244112   5.831   5.460  12.520  0.1254 -0.1492  0.0434
 7566TIP3    H144113   5.821   5.545  12.478 -1.8741  0.9900  2.5193
 7566TIP3    H244114   5.901   5.473  12.584 -2.3156  0.8290  2.7431
 7567TIP3   OH244115   0.433   5.644   3.647  0.1904  0.5223  0.3835
 7567TIP3    H144116   0.403   5.588   3.719  0.9090  1.3987  1.4024
 7567TIP3    H244117   0.355   5.692   3.620  0.1861  1.2092  1.5482
 7568TIP3   OH244118   5.695   2.426   1.901  0.0042 -0.5427  0.3084
 7568TIP3    H144119   5.618   2.482   1.910  0.7187  0.6688 -0.7175
 7568TIP3    H244120   5.717   2.430   1.808  2.0214  0.1696  0.7439
 7569TIP3   OH244121   3.725   0.675  14.413  0.3098  0.2641  0.4995
 7569TIP3    H144122   3.727   0.732  14.490  0.7210 -0.0334  0.7115
 7569TIP3    H244123   3.800   0.701  14.361 -1.5195  2.4283 -1.2578
 7570TIP3   OH244124   1.710   6.678  17.161 -0.7271  0.3744 -0.1314
 7570TIP3    H144125   1.703   6.583  17.149 -0.6384  0.3648 -0.1131
 7570TIP3    H244126   1.718   6.712  17.072  2.7095  0.0745 -0.1015
 7571TIP3   OH244127   4.777   0.858   2.928 -0.2530 -0.0226  0.3955
 7571TIP3    H144128   4.838   0.905   2.985  1.1550  0.6331 -1.5427
 7571TIP3    H244129   4.713   0.820   2.988  2.1595 -0.9252  2.6050
 7572TIP3   OH244130   4.395   3.299  13.169  0.6844 -0.0647  0.0103
 7572TIP3    H144131   4.443   3.381  13.183 -0.6323  0.6598  0.4726
 7572TIP3    H244132   4.447   3.251  13.104 -0.0146  2.4148 -2.5656
 7573TIP3   OH244133   0.649   2.012   1.813  0.3117 -0.2205 -1.0798
 7573TIP3    H144134   0.568   2.011   1.762 -1.3177  2.1941  1.1838
 7573TIP3    H244135   0.640   1.938   1.873 -1.8396  1.6395  1.1586
 7574TIP3   OH244136   6.021   3.599  12.995 -0.3190  0.3686  0.3046
 7574TIP3    H144137   6.067   3.552  13.064 -0.7946 -0.8492 -0.1802
 7574TIP3    H244138   6.064   3.685  12.992  0.7058 -0.0893  1.0770
 7575TIP3   OH244139   1.140   3.353  13.379  0.0266 -0.0007  0.1246
 7575TIP3    H144140   1.199   3.281  13.399 -0.7284 -0.3197  1.3191
 7575TIP3    H244141   1.098   3.373  13.462 -2.2442 -0.4298 -0.8509
 7576TIP3   OH244142   1.494   0.939  12.611  0.6143  0.8320 -0.0474
 7576TIP3    H144143   1.530   0.877  12.547 -1.9768 -0.0917 -0.7093
 7576TIP3    H244144   1.521   0.905  12.696  0.8955 -0.0656 -0.4888
 7577TIP3   OH244145   5.872   3.997  16.140  0.1528 -0.1119 -0.6303
 7577TIP3    H144146   5.940   3.981  16.075  0.2642  0.2190 -0.5980
 7577TIP3    H244147   5.817   4.065  16.101  1.7607  2.0811  0.6995
 7578TIP3   OH244148   0.644   4.645   3.587  0.0364 -0.0671 -0.3108
 7578TIP3    H144149   0.635   4.590   3.665 -1.2168 -0.5871 -0.8012
 7578TIP3    H244150   0.558   4.643   3.546 -0.0792  2.3506 -0.3027
 7579TIP3   OH244151   5.275   0.940  11.290 -0.5503  0.2062 -0.0392
 7579TIP3    H144152   5.356   0.890  11.303 -1.3302 -1.2412 -0.5086
 7579TIP3    H244153   5.282   0.973  11.200 -0.7325 -0.4342 -0.2965
 7580TIP3   OH244154   0.636   4.691   0.805  0.1453  0.6094  0.4220
 7580TIP3    H144155   0.696   4.660   0.737 -1.7794  0.7420 -1.4135
 7580TIP3    H244156   0.612   4.612   0.854 -0.0838  0.1563 -0.4088
 7581TIP3   OH244157   4.065   5.550   0.031 -0.3227 -0.1269  0.1795
 7581TIP3    H144158   3.977   5.516   0.014  0.3745 -2.0587  0.1917
 7581TIP3    H244159   4.069   5.560   0.126 -1.5790  3.1682  0.0120
 7582TIP3   OH244160   3.940   2.869   3.307  0.0669 -0.0863  0.0839
 7582TIP3    H144161   3.874   2.800   3.296  1.0115 -0.9304 -0.4252
 7582TIP3    H244162   3.896   2.949   3.277 -0.3423 -0.8327 -1.3900
 7583TIP3   OH244163   6.138   3.978   1.190  0.0024 -0.0216 -0.1151
 7583TIP3    H144164   6.203   3.925   1.236 -0.7881 -1.5281 -0.6715
 7583TIP3    H244165   6.155   3.961   1.097 -0.7375  0.1314 -0.2814
 7584TIP3   OH244166   1.093   3.874  17.209 -0.0172  0.2025  0.8146
 7584TIP3    H144167   1.164   3.812  17.229 -0.4895 -0.1373  1.4978
 7584TIP3    H244168   1.096   3.937  17.281 -0.2220  0.3442  0.6985
 7585TIP3   OH244169   3.233   2.174   2.480 -0.1111  0.0257  0.2058
 7585TIP3    H144170   3.261   2.225   2.404  0.4568 -0.4845  0.0705
 7585TIP3    H244171   3.138   2.177   2.477 -0.1480 -1.2510 -1.4004
 7586TIP3   OH244172   2.252   0.839  11.366 -0.6311 -0.1228  0.2995
 7586TIP3    H144173   2.171   0.859  11.414 -1.3363  0.6086 -1.1560
 7586TIP3    H244174   2.232   0.859  11.275  1.1952  0.0272 -0.1014
 7587TIP3   OH244175   0.020   3.346  14.348  0.2656  0.5151 -0.1579
 7587TIP3    H144176  -0.046   3.297  14.398  0.4281 -0.2610 -0.6801
 7587TIP3    H244177  -0.028   3.386  14.277 -0.2878  3.0965  1.5409
 7588TIP3   OH244178   2.660   4.219   1.363  0.7380 -0.4047  0.7155
 7588TIP3    H144179   2.590   4.234   1.300  1.4437  1.1604  0.2619
 7588TIP3    H244180   2.734   4.267   1.329  1.2313  0.2571  2.5830
 7589TIP3   OH244181   0.790   1.091   2.425 -0.2579  0.0926 -0.0150
 7589TIP3    H144182   0.695   1.087   2.414 -0.2145  0.1929 -0.4529
 7589TIP3    H244183   0.826   1.057   2.343  0.0847 -0.2368  0.2700
 7590TIP3   OH244184   5.270   3.886  14.901  0.4952  0.2072 -1.0098
 7590TIP3    H144185   5.186   3.843  14.918  1.0775 -1.1841 -1.5387
 7590TIP3    H244186   5.286   3.873  14.808  1.8879 -0.6516 -0.6723
 7591TIP3   OH244187   1.677   0.210  14.953 -0.5046  0.5601 -0.9501
 7591TIP3    H144188   1.620   0.258  15.013  1.1290  0.3735  0.8108
 7591TIP3    H244189   1.619   0.145  14.913 -1.5390  0.3643  0.7810
 7592TIP3   OH244190   0.747   6.596  16.930  0.3631  0.2868  0.5005
 7592TIP3    H144191   0.704   6.515  16.958 -1.3479  0.8989 -0.2065
 7592TIP3    H244192   0.800   6.570  16.855  0.2325 -0.2733  0.5949
 7593TIP3   OH244193   3.054   0.935  13.155 -0.1404 -0.2674 -0.4034
 7593TIP3    H144194   3.025   0.869  13.091 -1.8333 -1.1473  1.1853
 7593TIP3    H244195   2.985   1.002  13.153  0.3963  0.2967 -0.3203
 7594TIP3   OH244196   2.196   5.584  14.945 -0.0603  0.6587 -0.0299
 7594TIP3    H144197   2.104   5.592  14.969 -1.0531 -4.7443 -0.8466
 7594TIP3    H244198   2.198   5.602  14.851  0.0679  2.0731  0.2176
 7595TIP3   OH244199   5.695   5.297   5.572 -0.6348 -0.4586  0.4426
 7595TIP3    H144200   5.731   5.298   5.661 -0.4316 -2.5899  0.4464
 7595TIP3    H244201   5.764   5.256   5.520 -1.1419 -0.1064 -0.5188
 7596TIP3   OH244202   1.851   5.114  12.991 -0.0087 -0.1934  0.4116
 7596TIP3    H144203   1.878   5.023  12.974 -0.0772 -0.2817  0.7623
 7596TIP3    H244204   1.902   5.166  12.929 -2.0819 -0.6992 -1.8364
 7597TIP3   OH244205   2.317   5.600   2.783 -0.5274 -0.4426  0.1063
 7597TIP3    H144206   2.301   5.614   2.690  2.1829  0.4601 -0.3036
 7597TIP3    H244207   2.302   5.507   2.797 -3.0151 -0.2301 -0.7194
 7598TIP3   OH244208   5.459   6.493   3.107 -0.4362 -0.6873 -0.2997
 7598TIP3    H144209   5.453   6.413   3.056 -0.9022 -0.8201 -0.0396
 7598TIP3    H244210   5.369   6.510   3.137 -0.5408  0.4751 -1.1874
 7599TIP3   OH244211   3.111   3.534   4.257 -0.2368  0.2611  0.0567
 7599TIP3    H144212   3.175   3.580   4.311  0.3503 -0.8329  0.3177
 7599TIP3    H244213   3.052   3.492   4.319 -1.0284  0.9731 -0.1824
 7600TIP3   OH244214   1.943   0.832   0.402 -0.3974  0.0424 -0.0661
 7600TIP3    H144215   1.873   0.797   0.458 -1.2332 -0.5829 -1.4441
 7600TIP3    H244216   1.914   0.921   0.381 -0.4391  0.0279 -0.0715
 7601TIP3   OH244217   5.991   1.593   0.559  0.4729 -0.2376 -0.5978
 7601TIP3    H144218   6.047   1.641   0.621 -1.3743  2.2446 -0.6915
 7601TIP3    H244219   5.972   1.511   0.604  0.8912  0.5988  1.2104
 7602TIP3   OH244220   3.323   1.678  11.906 -0.3968 -0.3091 -0.5900
 7602TIP3    H144221   3.338   1.630  11.824  2.3369  0.2385 -0.5040
 7602TIP3    H244222   3.351   1.617  11.975  0.0836  0.2447 -0.2818
 7603TIP3   OH244223   2.852   1.904  15.590 -0.1759  0.0397  0.2571
 7603TIP3    H144224   2.782   1.849  15.555 -0.0525 -0.7800  1.2593
 7603TIP3    H244225   2.924   1.895  15.527  0.2778 -1.9293  0.9820
 7604TIP3   OH244226   5.594   2.086  16.681  0.3746  0.4753  0.4207
 7604TIP3    H144227   5.564   2.117  16.596  1.4432  0.5178  0.0423
 7604TIP3    H244228   5.560   1.997  16.688  0.6168  0.3248 -0.2403
 7605TIP3   OH244229   0.248   5.787  15.722 -0.3960 -0.0194  0.0250
 7605TIP3    H144230   0.343   5.784  15.718 -0.4483 -1.1808 -1.1851
 7605TIP3    H244231   0.225   5.874  15.689  0.2288  0.1176 -0.0521
 7606TIP3   OH244232   1.392   2.041  15.324  0.5172  0.3762 -0.2054
 7606TIP3    H144233   1.367   1.949  15.337 -0.0173  0.7348  1.6487
 7606TIP3    H244234   1.464   2.054  15.387  0.4306  1.2792 -0.2880
 7607TIP3   OH244235   1.413   4.544  13.678 -0.0157  0.0230 -0.7110
 7607TIP3    H144236   1.411   4.454  13.645 -2.1802 -0.5532  0.7249
 7607TIP3    H244237   1.336   4.550  13.734  1.6552  1.8861  1.5978
 7608TIP3   OH244238   6.315   3.477  11.049  0.0769  0.0033 -0.0681
 7608TIP3    H144239   6.261   3.405  11.081 -1.0125  0.1885 -1.4132
 7608TIP3    H244240   6.289   3.488  10.958  2.1494  0.3368 -0.6769
 7609TIP3   OH244241   5.180   4.928  12.987 -0.7097 -0.5846  0.3139
 7609TIP3    H144242   5.119   4.978  12.932 -1.2341 -1.2889  0.2497
 7609TIP3    H244243   5.182   4.976  13.070  0.6394  0.9158 -0.5098
 7610TIP3   OH244244   6.759   2.034  13.469  0.1851 -0.3901  0.2869
 7610TIP3    H144245   6.682   1.990  13.432 -0.0758 -0.6371  1.0987
 7610TIP3    H244246   6.832   1.978  13.444  0.1902  0.1357 -0.9692
 7611TIP3   OH244247   0.766   0.117  12.904 -0.1803  0.6174  0.5304
 7611TIP3    H144248   0.709   0.186  12.870 -1.2955 -0.0643  0.9585
 7611TIP3    H244249   0.777   0.137  12.997 -0.1848  0.4318  0.5717
 7612TIP3   OH244250   4.620   3.827  12.022  0.6064 -0.6578 -0.4640
 7612TIP3    H144251   4.532   3.864  12.027  1.3873  1.2600  0.1277
 7612TIP3    H244252   4.626   3.790  11.934 -0.9640 -1.3673 -0.3082
 7613TIP3   OH244253   0.743   2.836  16.231 -0.4593  0.1160  0.9322
 7613TIP3    H144254   0.791   2.885  16.298  0.6842 -0.0388  0.2582
 7613TIP3    H244255   0.791   2.753  16.224 -0.0773  0.4284 -0.6050
 7614TIP3   OH244256   2.283   6.000  14.964  0.0885 -0.0443  0.1120
 7614TIP3    H144257   2.376   5.996  14.940  0.3060  0.3314  0.8879
 7614TIP3    H244258   2.238   6.009  14.880  0.8505  1.3211 -0.1836
 7615TIP3   OH244259   5.675   0.404   4.514  0.2300  0.0943 -0.2166
 7615TIP3    H144260   5.672   0.494   4.547  0.4570  0.5811 -1.4638
 7615TIP3    H244261   5.629   0.352   4.580 -1.5801  1.4050 -0.3879
 7616TIP3   OH244262   0.945   5.534   2.424  0.3182  0.0451  0.4647
 7616TIP3    H144263   1.014   5.572   2.369 -0.0815 -1.1784 -0.9394
 7616TIP3    H244264   0.991   5.500   2.500  1.4872 -1.7913 -0.9825
 7617TIP3   OH244265   2.794   6.786  14.089  0.0545  0.0793  0.4389
 7617TIP3    H144266   2.760   6.727  14.022  1.4605 -1.7444  1.2645
 7617TIP3    H244267   2.719   6.805  14.145 -0.9337  0.9480 -1.0937
 7618TIP3   OH244268   0.695   4.563   6.357 -0.1347  0.8874 -0.1643
 7618TIP3    H144269   0.696   4.629   6.428  0.1120  1.9963 -1.1673
 7618TIP3    H244270   0.617   4.586   6.306  0.1152  0.5709 -0.6858
 7619TIP3   OH244271   1.971   5.896  16.363  0.6027  0.1788  0.0124
 7619TIP3    H144272   1.908   5.888  16.292  2.5420 -0.3709 -1.7481
 7619TIP3    H244273   1.991   5.805  16.388 -1.1194  0.3531  2.3461
 7620TIP3   OH244274   4.266   2.334  13.724 -0.3759 -0.4019 -0.0484
 7620TIP3    H144275   4.239   2.424  13.740  0.4661  0.7452 -3.9070
 7620TIP3    H244276   4.355   2.328  13.760 -0.7440  0.0252  0.9442
 7621TIP3   OH244277   1.649   6.047  13.732  0.1794 -0.3564 -0.2543
 7621TIP3    H144278   1.578   6.100  13.695  0.6792  0.1839 -0.4656
 7621TIP3    H244279   1.719   6.110  13.748  1.0057 -1.0369 -1.0504
 7622TIP3   OH244280   1.389   4.150  12.206  0.0283 -0.0133  0.5488
 7622TIP3    H144281   1.392   4.236  12.248 -1.0791  0.2711  0.0877
 7622TIP3    H244282   1.446   4.095  12.259 -0.5717  0.5820  1.8462
 7623TIP3   OH244283   3.157   3.878  11.530 -0.3561  0.7165  0.1295
 7623TIP3    H144284   3.156   3.787  11.501  1.1995  0.7317 -0.0574
 7623TIP3    H244285   3.250   3.900  11.537 -0.6891  2.6082 -0.8521
 7624TIP3   OH244286   1.826   6.241   0.851 -0.1995 -0.1634  0.2752
 7624TIP3    H144287   1.735   6.272   0.858 -0.1908 -0.0853  0.0690
 7624TIP3    H244288   1.845   6.201   0.936  0.2334  1.5688  1.0281
 7625TIP3   OH244289   2.609   5.987  16.901 -0.2061 -0.1482 -0.2576
 7625TIP3    H144290   2.639   5.961  16.814 -1.0889  1.4609 -1.0858
 7625TIP3    H244291   2.680   6.041  16.936  0.7025 -1.8160  0.5881
 7626TIP3   OH244292   3.975   1.320   0.947  0.0049  0.3556 -0.5272
 7626TIP3    H144293   3.880   1.332   0.942 -0.2368 -1.6066 -2.2009
 7626TIP3    H244294   4.010   1.377   0.878 -0.1586 -0.3247 -1.1887
 7627TIP3   OH244295   0.181   3.997   0.810 -0.3744 -0.5188 -0.6400
 7627TIP3    H144296   0.151   3.931   0.872  0.5083 -1.6339 -1.3787
 7627TIP3    H244297   0.126   3.984   0.733  0.0340 -0.6292 -0.9146
 7628TIP3   OH244298   3.179   2.724   6.043  0.2297  0.0010  0.0557
 7628TIP3    H144299   3.232   2.791   6.085 -0.9692  0.6046  0.6704
 7628TIP3    H244300   3.221   2.641   6.066  0.6283  0.4363  0.9232
 7629TIP3   OH244301   3.763   4.409  12.611 -0.2740  0.0854  0.5199
 7629TIP3    H144302   3.849   4.380  12.578  0.5763  0.1811  2.5001
 7629TIP3    H244303   3.718   4.327  12.632 -1.1107 -0.0102 -1.4113
 7630TIP3   OH244304   0.063   4.721   5.748  0.2574  0.0083 -0.2309
 7630TIP3    H144305   0.081   4.676   5.665  4.2769  1.8895 -0.6182
 7630TIP3    H244306   0.102   4.808   5.737 -1.7030  1.4225  2.6573
 7631TIP3   OH244307   0.501   5.952  14.368  1.0231 -0.0206 -0.3903
 7631TIP3    H144308   0.588   5.992  14.369  0.0104  2.3709 -0.8092
 7631TIP3    H244309   0.474   5.952  14.460  1.6868 -1.3466 -0.1808
 7632TIP3   OH244310   6.080   1.019   1.881  0.3139 -0.3525  0.7880
 7632TIP3    H144311   6.094   1.103   1.925  1.1249  0.8243 -1.5535
 7632TIP3    H244312   5.991   0.994   1.906 -0.1592  1.4943  1.1470
 7633TIP3   OH244313   4.369   6.478   1.574  0.0385  0.3655  0.3172
 7633TIP3    H144314   4.448   6.520   1.606  0.4638  0.3968 -0.7222
 7633TIP3    H244315   4.394   6.387   1.560 -1.0878 -0.5303  3.3086
 7634TIP3   OH244316   0.720   0.570  12.309  0.0222  0.1596 -0.3206
 7634TIP3    H144317   0.636   0.526  12.306 -0.9320  1.8481  0.2414
 7634TIP3    H244318   0.704   0.655  12.266  0.9978  1.1443  1.1671
 7635TIP3   OH244319   5.371   4.699   4.798  0.3158  0.3939 -0.1292
 7635TIP3    H144320   5.328   4.661   4.875  2.7645  0.5138  1.4120
 7635TIP3    H244321   5.453   4.735   4.832  2.1471 -0.7468 -3.0034
 7636TIP3   OH244322   4.698   6.737   0.447 -0.6923 -0.3802 -0.2425
 7636TIP3    H144323   4.621   6.706   0.400 -1.9155 -0.5870  1.7822
 7636TIP3    H244324   4.723   6.664   0.504 -1.3587  0.9657  1.8816
 7637TIP3   OH244325   1.908   0.706   6.001  0.6866  0.1363  0.2806
 7637TIP3    H144326   1.942   0.628   6.043 -1.6986 -0.7318  0.7716
 7637TIP3    H244327   1.821   0.680   5.969  0.0546  2.4065 -0.0518
 7638TIP3   OH244328   2.958   6.614  16.927 -1.2045 -0.2559 -0.0434
 7638TIP3    H144329   2.951   6.707  16.906  0.6262 -0.7675 -3.6235
 7638TIP3    H244330   3.051   6.594  16.921 -1.6446 -2.5472 -0.5218
 7639TIP3   OH244331   2.841   3.152   4.270 -0.1843 -0.0931  0.2355
 7639TIP3    H144332   2.830   3.062   4.240  1.2007  0.3983 -1.9907
 7639TIP3    H244333   2.766   3.199   4.233 -0.0923 -0.0522  0.1005
 7640TIP3   OH244334   0.529   0.207  15.179  0.1838 -0.2509  0.0576
 7640TIP3    H144335   0.575   0.127  15.152  0.0559 -0.7784  1.3263
 7640TIP3    H244336   0.598   0.272  15.191  0.5922 -0.9127  1.5249
 7641TIP3   OH244337   0.789   6.515  12.190 -0.0578 -0.1782  0.0422
 7641TIP3    H144338   0.833   6.472  12.264 -0.1565 -0.3675 -0.0075
 7641TIP3    H244339   0.701   6.478  12.191  1.0931 -3.5247 -2.7770
 7642TIP3   OH244340   6.466   4.322   1.139 -0.3455  0.5533  0.3893
 7642TIP3    H144341   6.518   4.401   1.126 -1.4387  1.5665  1.9288
 7642TIP3    H244342   6.435   4.299   1.051  1.1544  0.9684 -0.2831
 7643TIP3   OH244343   3.378   5.414   0.460 -0.0735  0.1679 -0.3795
 7643TIP3    H144344   3.393   5.321   0.478  0.2224  0.5198  1.4064
 7643TIP3    H244345   3.464   5.455   0.472 -0.1411  0.6650 -1.4275
 7644TIP3   OH244346   6.003   0.976   3.341 -0.2655  1.0727 -0.2290
 7644TIP3    H144347   6.057   1.023   3.277  0.9919  1.1641  0.8667
 7644TIP3    H244348   6.064   0.950   3.409 -1.8263  2.3680  1.7676
 7645TIP3   OH244349   3.364   0.181   5.318  0.0432 -0.0091 -0.1912
 7645TIP3    H144350   3.301   0.251   5.336  0.9629  1.3868 -2.0717
 7645TIP3    H244351   3.433   0.193   5.383  0.2980  1.0226 -0.6249
 7646TIP3   OH244352   1.334   2.528  13.715  0.0546 -0.2206 -0.6788
 7646TIP3    H144353   1.264   2.556  13.774  0.7396 -0.3810  0.2391
 7646TIP3    H244354   1.384   2.608  13.699  1.3297 -0.6231  1.0076
 7647TIP3   OH244355   4.589   3.070  12.173  0.6185 -0.3086  0.5550
 7647TIP3    H144356   4.514   3.108  12.127  0.7535 -0.0130  0.5747
 7647TIP3    H244357   4.616   2.996  12.119 -1.5088 -2.3092  2.0001
 7648TIP3   OH244358   1.823   0.226   6.017 -0.2623  0.0274 -0.7625
 7648TIP3    H144359   1.805   0.269   5.933 -1.2864 -0.1006 -0.6191
 7648TIP3    H244360   1.829   0.133   5.996 -0.4444  0.0026 -0.7026
 7649TIP3   OH244361   5.631   1.021  14.373 -0.1120  0.4357 -0.2654
 7649TIP3    H144362   5.611   1.047  14.463 -2.1115  0.9592 -0.8018
 7649TIP3    H244363   5.726   1.018  14.369  0.1501  3.3315  1.0834
 7650TIP3   OH244364   3.887   0.245  12.927  0.6407 -0.6639  0.4653
 7650TIP3    H144365   3.969   0.217  12.968  1.5593 -0.6154 -1.2283
 7650TIP3    H244366   3.838   0.163  12.915  0.8115 -0.8083  0.7329
 7651TIP3   OH244367   4.008   2.318  17.057 -0.1808 -0.5498 -0.1602
 7651TIP3    H144368   4.059   2.352  16.984 -1.0698  0.9136 -0.1449
 7651TIP3    H244369   4.010   2.387  17.123 -0.2505 -1.4257  0.7931
 7652TIP3   OH244370   5.697   1.013   6.409 -0.3579 -0.1146 -0.3997
 7652TIP3    H144371   5.713   1.024   6.502 -1.4030  1.0475 -0.3246
 7652TIP3    H244372   5.751   1.080   6.367 -0.7673  0.1443 -0.5284
 7653TIP3   OH244373   2.254   0.765   3.945  0.3417  0.0739 -0.4926
 7653TIP3    H144374   2.274   0.707   4.019  0.3139  1.2546  0.4811
 7653TIP3    H244375   2.279   0.715   3.868  1.1996 -0.8681  0.3582
 7654TIP3   OH244376   1.944   5.479   1.075  0.3698 -0.5526  0.0358
 7654TIP3    H144377   1.989   5.401   1.044  2.2470 -0.4480  2.1844
 7654TIP3    H244378   1.963   5.481   1.169 -0.0645  2.1982  0.1341
 7655TIP3   OH244379   1.924   4.776  16.576 -0.3463 -0.5811  0.2010
 7655TIP3    H144380   1.904   4.831  16.652  1.3912  0.0368  0.2596
 7655TIP3    H244381   1.842   4.732  16.556 -1.9716  2.3813 -0.1165
 7656TIP3   OH244382   4.127   3.885  11.098  0.0552  0.4026  0.5315
 7656TIP3    H144383   4.219   3.911  11.088  0.4722 -1.3237 -0.4698
 7656TIP3    H244384   4.103   3.848  11.013 -1.3576  0.1523  1.0136
 7657TIP3   OH244385   0.404   1.801   2.868 -0.0025  0.5699  0.1077
 7657TIP3    H144386   0.441   1.738   2.930  0.2107  0.1353 -0.4495
 7657TIP3    H244387   0.468   1.804   2.797  0.1362  1.6549  0.2694
 7658TIP3   OH244388   3.215   3.127  14.615 -0.4268  0.2206  0.0580
 7658TIP3    H144389   3.170   3.065  14.558  0.8600 -1.1348  0.4321
 7658TIP3    H244390   3.152   3.197  14.630 -1.8378 -0.8639 -0.6265
 7659TIP3   OH244391   0.789   6.245  12.763 -0.1090 -0.0152 -0.2122
 7659TIP3    H144392   0.702   6.279  12.748  0.0934  0.9856  0.7712
 7659TIP3    H244393   0.785   6.206  12.851  0.2993 -0.4300 -0.3685
 7660TIP3   OH244394   3.595   5.379  12.269 -0.0574 -0.2506 -0.5402
 7660TIP3    H144395   3.560   5.467  12.264 -1.1833 -0.5689  1.0982
 7660TIP3    H244396   3.598   5.359  12.362  1.8917 -1.2930 -0.7828
 7661TIP3   OH244397   1.199   5.211  15.115 -0.2593 -0.3371  0.1827
 7661TIP3    H144398   1.206   5.119  15.091 -0.3386 -0.7102  1.4805
 7661TIP3    H244399   1.290   5.242  15.119 -0.2519 -0.2382 -0.6661
 7662TIP3   OH244400   5.879   1.654  11.385  0.0694 -0.1924 -0.0773
 7662TIP3    H144401   5.911   1.731  11.339 -2.5925  1.6296  0.9001
 7662TIP3    H244402   5.839   1.688  11.465 -1.1961 -2.5718  0.3961
 7663TIP3   OH244403   5.866   0.960   0.254 -0.2202 -0.2909  0.1156
 7663TIP3    H144404   5.889   1.034   0.198  0.1185 -0.5762 -0.1280
 7663TIP3    H244405   5.943   0.903   0.252 -0.4644 -0.6369  0.3240
 7664TIP3   OH244406   4.242   2.051  16.316 -0.1371  0.4960  0.5521
 7664TIP3    H144407   4.238   2.144  16.294  0.1898  0.7121  1.3735
 7664TIP3    H244408   4.221   2.047  16.409  1.3391 -0.0662  0.8991
 7665TIP3   OH244409   2.100   2.798  14.029  0.1473 -0.3059  0.3252
 7665TIP3    H144410   2.005   2.794  14.028  0.1351 -0.4609  1.1921
 7665TIP3    H244411   2.128   2.717  14.072  0.6463 -0.0249  0.5491
 7666TIP3   OH244412   4.763   5.657  14.820  0.1932  0.0985  0.1407
 7666TIP3    H144413   4.684   5.659  14.874  1.0840 -0.3066  1.4990
 7666TIP3    H244414   4.810   5.578  14.848  1.1809  0.4307 -0.5079
 7667TIP3   OH244415   2.151   0.542   5.272  0.1522  0.5022 -0.0185
 7667TIP3    H144416   2.210   0.556   5.198 -1.4805  1.2140 -1.2571
 7667TIP3    H244417   2.166   0.452   5.298  1.6886  0.6324 -0.3624
 7668TIP3   OH244418   5.606   5.019  16.822  0.0669 -0.0086 -0.0257
 7668TIP3    H144419   5.599   5.056  16.734  0.0754 -2.0274 -0.9132
 7668TIP3    H244420   5.529   5.052  16.868 -0.0886  0.8367 -0.8522
 7669TIP3   OH244421   0.563   6.501   4.893  0.1356 -0.1107  0.8769
 7669TIP3    H144422   0.596   6.573   4.947  0.0831 -0.3770  1.2701
 7669TIP3    H244423   0.625   6.429   4.908  1.7066  0.6312 -1.5356
 7670TIP3   OH244424   1.829   4.577   3.469 -0.5175 -0.2720 -0.4296
 7670TIP3    H144425   1.793   4.666   3.467 -1.4701 -0.6578 -0.7694
 7670TIP3    H244426   1.843   4.555   3.377  1.6219  0.2603 -0.2815
 7671TIP3   OH244427   3.666   5.066  14.232  0.6693  0.7345 -0.4997
 7671TIP3    H144428   3.644   5.140  14.288  2.8415  1.0063  0.0678
 7671TIP3    H244429   3.722   5.103  14.164  1.8523 -0.3881 -0.1702
 7672TIP3   OH244430   0.511   5.223  16.641  0.2604 -0.3767  0.3656
 7672TIP3    H144431   0.560   5.186  16.568 -0.3895  0.5989 -0.6025
 7672TIP3    H244432   0.419   5.209  16.617  0.0286  0.5582  0.6460
 7673TIP3   OH244433   4.751   4.685  13.922  0.1570 -0.8414 -0.5201
 7673TIP3    H144434   4.719   4.744  13.990 -0.2428 -1.2450 -0.3588
 7673TIP3    H244435   4.846   4.701  13.920 -0.0394  0.3626 -1.0180
 7674TIP3   OH244436   1.179   4.609   5.101 -0.0369 -0.2169 -0.2562
 7674TIP3    H144437   1.144   4.520   5.091 -0.2783 -0.2656  0.9197
 7674TIP3    H244438   1.127   4.647   5.172  0.8074  0.4904 -0.0077
 7675TIP3   OH244439   0.961   1.061   6.099 -0.1491 -0.1645 -0.7845
 7675TIP3    H144440   0.930   0.979   6.136  0.7180 -0.5640 -0.9263
 7675TIP3    H244441   0.928   1.128   6.159 -0.4793 -0.6440 -0.4200
 7676TIP3   OH244442   1.525   5.006  12.668 -0.7541  0.1034 -0.3050
 7676TIP3    H144443   1.455   4.967  12.720 -1.3355  1.3601 -0.1174
 7676TIP3    H244444   1.533   5.096  12.701 -0.7357  0.7535 -1.9721
 7677TIP3   OH244445   0.112   6.789  15.242  0.3582 -0.2552  0.4770
 7677TIP3    H144446   0.113   6.777  15.337 -1.4475 -1.5575  0.3933
 7677TIP3    H244447   0.077   6.707  15.208 -2.6825  1.4559 -0.9925
 7678TIP3   OH244448   6.686   1.161   5.092 -0.1840 -0.0025 -0.3957
 7678TIP3    H144449   6.645   1.247   5.103  0.3580  0.2378 -0.2276
 7678TIP3    H244450   6.725   1.165   5.004  0.2717  0.1083 -0.1902
 7679TIP3   OH244451   4.613   4.745   0.110  0.1397 -0.2995 -0.1784
 7679TIP3    H144452   4.532   4.796   0.107  0.7765  0.8886  1.3638
 7679TIP3    H244453   4.619   4.704   0.023 -0.0648  2.8913 -1.8530
 7680TIP3   OH244454   6.296   4.032  14.040  0.0839  0.6962  0.8155
 7680TIP3    H144455   6.314   4.116  13.997  0.2285 -0.0448 -0.6386
 7680TIP3    H244456   6.317   4.047  14.132 -0.2126  2.3483  0.6348
 7681TIP3   OH244457   2.577   4.002   2.064 -0.2382 -0.3967  0.7057
 7681TIP3    H144458   2.669   3.995   2.088  0.3525 -2.4580 -1.7399
 7681TIP3    H244459   2.576   4.064   1.991 -0.7402 -0.4946  0.6241
 7682TIP3   OH244460   0.524   3.370  15.710  0.4754  0.1572  0.1562
 7682TIP3    H144461   0.490   3.457  15.728 -1.4154 -0.5709  0.3752
 7682TIP3    H244462   0.599   3.360  15.769 -0.9375  0.6405  2.1104
 7683TIP3   OH244463   4.576   5.237   1.458  0.0125 -0.4212  0.0182
 7683TIP3    H144464   4.579   5.250   1.552  0.0706  0.4132 -0.0882
 7683TIP3    H244465   4.517   5.162   1.445 -1.3145  0.4888  0.6160
 7684TIP3   OH244466   3.185   4.959  14.475  0.7494  0.2759  0.6890
 7684TIP3    H144467   3.175   4.878  14.425  1.6375  0.7022 -0.1991
 7684TIP3    H244468   3.098   4.976  14.510 -0.0603  0.2821 -1.2153
 7685TIP3   OH244469   2.322   3.672   3.978 -0.3475  0.1118  0.0566
 7685TIP3    H144470   2.238   3.717   3.987  0.0084  1.2919 -1.9160
 7685TIP3    H244471   2.344   3.681   3.885  1.9681 -0.1644  0.5250
 7686TIP3   OH244472   2.436   0.464  15.918 -0.0476 -0.1582 -0.2888
 7686TIP3    H144473   2.448   0.369  15.917  1.8806  0.0545  0.0660
 7686TIP3    H244474   2.399   0.484  15.832 -0.8747 -1.2546 -0.2167
 7687TIP3   OH244475   3.529   4.546   3.588  0.3670  0.2325  0.2523
 7687TIP3    H144476   3.566   4.532   3.675  0.1918 -2.0603  0.0305
 7687TIP3    H244477   3.587   4.498   3.529  0.1070  1.2021 -0.8348
 7688TIP3   OH244478   5.959   2.756  16.546  0.2583  0.1941  0.1956
 7688TIP3    H144479   5.949   2.680  16.489  3.0153  0.6468 -1.0721
 7688TIP3    H244480   5.915   2.731  16.627  2.0349 -3.2882  0.2779
 7689TIP3   OH244481   5.431   6.012  12.986 -0.5268  0.2195 -0.0157
 7689TIP3    H144482   5.524   6.016  13.009 -0.2351 -0.8690 -0.9082
 7689TIP3    H244483   5.385   6.038  13.066  0.5353  0.7730  0.4377
 7690TIP3   OH244484   2.824   2.068   0.279 -0.0101  0.3611  0.0617
 7690TIP3    H144485   2.798   2.097   0.366 -0.4642  0.1418  0.0042
 7690TIP3    H244486   2.817   1.973   0.282  1.1806  0.2624  0.1559
 7691TIP3   OH244487   4.909   3.128  12.172  0.0643 -0.0604  0.3777
 7691TIP3    H144488   4.904   3.168  12.259  0.0896  1.4004 -0.2549
 7691TIP3    H244489   4.827   3.151  12.129  0.6928  0.6124 -0.5223
 7692TIP3   OH244490   2.695   6.358  12.331 -0.1697  0.4322 -0.0614
 7692TIP3    H144491   2.777   6.314  12.354 -0.1323  1.1177  1.2111
 7692TIP3    H244492   2.679   6.333  12.240  1.8588  0.8894 -0.5903
 7693TIP3   OH244493   0.208   3.503  14.568 -0.1686  0.6287 -0.4638
 7693TIP3    H144494   0.163   3.492  14.652 -0.2894  2.2917 -0.2754
 7693TIP3    H244495   0.140   3.534  14.508  0.2238  0.9211 -0.7706
 7694TIP3   OH244496   0.533   5.174   3.318 -0.0313  0.1710 -0.0668
 7694TIP3    H144497   0.542   5.254   3.266 -0.6484  0.3706  0.1264
 7694TIP3    H244498   0.615   5.127   3.303  0.5771  1.0882  0.2632
 7695TIP3   OH244499   3.503   2.206   1.775 -0.1692  0.0629 -0.1271
 7695TIP3    H144500   3.457   2.281   1.811  0.7593  0.0216  1.2360
 7695TIP3    H244501   3.461   2.130   1.815  0.0477 -0.0498 -0.1075
 7696TIP3   OH244502   0.455   6.674  12.834  0.5405  0.2943 -0.1820
 7696TIP3    H144503   0.391   6.615  12.874  0.2896  0.8325  0.2280
 7696TIP3    H244504   0.539   6.647  12.871  1.2523 -2.9548 -3.5229
 7697TIP3   OH244505   5.396   2.288  15.394 -0.4740  0.4195 -0.2073
 7697TIP3    H144506   5.339   2.240  15.334 -0.7948 -0.7867  1.0305
 7697TIP3    H244507   5.482   2.286  15.352 -0.3585 -1.7182  0.0374
 7698TIP3   OH244508   4.053   6.609  16.966 -0.0823  0.0822 -0.0281
 7698TIP3    H144509   4.108   6.585  16.891 -0.0925 -1.9286  0.5488
 7698TIP3    H244510   4.114   6.636  17.034 -0.0226  0.9785 -0.4217
 7699TIP3   OH244511   3.274   1.249   0.764 -0.6554 -0.2424 -0.0257
 7699TIP3    H144512   3.201   1.301   0.796  0.1174  1.4452 -0.9058
 7699TIP3    H244513   3.323   1.308   0.707 -0.3904 -2.2755 -2.0374
 7700TIP3   OH244514   2.166   5.183   3.202  0.0037  0.3461  0.5682
 7700TIP3    H144515   2.084   5.192   3.251  0.8536 -0.2553  2.1689
 7700TIP3    H244516   2.223   5.250   3.237  0.1569  0.9082 -0.6999
 7701TIP3   OH244517   2.049   4.121   4.760 -0.5005 -0.3893 -0.2422
 7701TIP3    H144518   1.960   4.087   4.766  0.1295 -2.2513 -0.6889
 7701TIP3    H244519   2.097   4.055   4.710  1.7130 -0.7146  2.0911
 7702TIP3   OH244520   2.997   4.955   1.145  0.0043  0.4057  0.0401
 7702TIP3    H144521   3.031   4.917   1.226  0.6091 -0.9617 -0.8295
 7702TIP3    H244522   3.058   5.024   1.123  0.2810  0.2588  0.3375
 7703TIP3   OH244523   5.730   3.856  17.144  0.3850 -0.0056  0.1616
 7703TIP3    H144524   5.729   3.925  17.211 -0.4762  0.1138  0.0366
 7703TIP3    H244525   5.823   3.837  17.131  0.5825  0.3648  0.9845
 7704TIP3   OH244526   3.035   2.057   0.807  0.6578 -0.3005  0.5778
 7704TIP3    H144527   3.109   2.115   0.825  0.8342 -0.3163 -0.0713
 7704TIP3    H244528   3.034   2.048   0.712 -1.0057  0.7890  0.4414
 7705TIP3   OH244529   2.112   6.276  12.897 -0.2131 -0.4277  0.2138
 7705TIP3    H144530   2.080   6.359  12.933  0.6370  0.2349 -0.5317
 7705TIP3    H244531   2.082   6.210  12.960 -1.2745  0.3822  0.5910
 7706TIP3   OH244532   1.635   0.115   3.597 -0.1117  1.0398 -0.6961
 7706TIP3    H144533   1.585   0.081   3.671 -1.0106  0.9138 -1.3486
 7706TIP3    H244534   1.637   0.210   3.610  4.2665  0.8480  2.3360
 7707TIP3   OH244535   4.012   5.891   5.636 -0.6839 -0.0959  0.1546
 7707TIP3    H144536   3.959   5.966   5.663 -0.3776  0.0996  0.2185
 7707TIP3    H244537   3.996   5.825   5.702 -1.9114 -0.5346 -0.5595
 7708TIP3   OH244538   4.159   4.198  13.158  0.3483 -0.5736 -0.1252
 7708TIP3    H144539   4.200   4.260  13.098 -2.1333  1.3885  0.0505
 7708TIP3    H244540   4.232   4.152  13.199  2.3611  2.3993 -0.0821
 7709TIP3   OH244541   4.559   0.463  14.327 -0.6399 -0.7473 -0.5515
 7709TIP3    H144542   4.584   0.433  14.240 -1.1346 -0.3207 -0.8450
 7709TIP3    H244543   4.622   0.532  14.348  1.0993 -2.5482  0.5180
 7710TIP3   OH244544   6.380   4.800   6.398 -0.8642  0.1462 -0.4042
 7710TIP3    H144545   6.356   4.718   6.440  0.7868  0.0394  0.3632
 7710TIP3    H244546   6.296   4.835   6.365 -1.5502 -1.9768 -1.0721
 7711TIP3   OH244547   0.219   2.119  11.324  0.3284  0.2843 -0.5748
 7711TIP3    H144548   0.212   2.028  11.296  1.0275 -0.0522  0.2795
 7711TIP3    H244549   0.157   2.127  11.397 -0.9831  0.9681 -1.7266
 7712TIP3   OH244550   3.082   4.669  10.846 -0.7571 -0.0762 -0.3508
 7712TIP3    H144551   3.089   4.595  10.786 -3.6354  0.1413 -1.1106
 7712TIP3    H244552   3.093   4.746  10.791  0.8521  0.1394  0.2090
 7713TIP3   OH244553   1.463   2.891   2.899  0.2477 -0.5033 -0.1279
 7713TIP3    H144554   1.375   2.927   2.883  0.2948 -1.4307 -2.8509
 7713TIP3    H244555   1.481   2.836   2.823  2.5085 -1.7558  1.2074
 7714TIP3   OH244556   6.693   5.134  11.667  0.1788  0.3416  0.0326
 7714TIP3    H144557   6.681   5.148  11.573 -0.1865  0.9352  0.1697
 7714TIP3    H244558   6.614   5.087  11.695 -2.0191  4.2088  0.9250
 7715TIP3   OH244559   2.380   6.420  12.997  0.3562  0.1103 -0.3861
 7715TIP3    H144560   2.367   6.344  12.940 -0.1827 -0.0645 -0.0332
 7715TIP3    H244561   2.320   6.486  12.963  1.3728  0.6656 -1.1752
 7716TIP3   OH244562   4.040   6.746  15.473  0.0843  0.6167  0.2051
 7716TIP3    H144563   3.953   6.730  15.508  0.1585  2.1676  1.2133
 7716TIP3    H244564   4.086   6.663  15.482 -0.2574  0.6581  2.8212
 7717TIP3   OH244565   5.805   2.122   5.386  0.7843 -0.1238 -0.3932
 7717TIP3    H144566   5.841   2.210   5.399 -0.1020  0.4514 -1.6431
 7717TIP3    H244567   5.770   2.098   5.472 -0.4615  1.4600 -0.4187
 7718TIP3   OH244568   2.871   1.039   0.465  0.9129 -0.3960 -0.0225
 7718TIP3    H144569   2.809   1.041   0.538  1.5607 -2.6955  0.6853
 7718TIP3    H244570   2.840   1.107   0.405 -0.0753  1.0515  2.0241
 7719TIP3   OH244571   6.074   5.025   4.119 -0.0325  0.1188  0.0552
 7719TIP3    H144572   5.996   5.080   4.130 -0.3883 -0.5953  1.3234
 7719TIP3    H244573   6.147   5.084   4.135 -0.4115  0.2770  1.3672
 7720TIP3   OH244574   1.967   4.116  14.333  0.1025  0.1770 -0.1470
 7720TIP3    H144575   2.005   4.099  14.419 -0.2768  1.5050  0.3083
 7720TIP3    H244576   1.947   4.029  14.298 -0.0597 -0.3813  1.2538
 7721TIP3   OH244577   6.788   4.202   1.594 -0.2821 -0.2963 -0.2188
 7721TIP3    H144578   6.750   4.285   1.622  0.4487 -0.5138  1.5700
 7721TIP3    H244579   6.883   4.217   1.595 -0.0591 -1.4939  1.5126
 7722TIP3   OH244580   3.392   0.125   2.353 -0.0109 -0.1110  0.2705
 7722TIP3    H144581   3.423   0.170   2.274  1.2839 -0.8046  0.3620
 7722TIP3    H244582   3.340   0.191   2.399 -0.5517  0.3944 -1.0037
 7723TIP3   OH244583   4.456   5.336  16.871  0.0299 -0.0935 -0.5307
 7723TIP3    H144584   4.448   5.413  16.929 -2.1850  0.7273 -1.7873
 7723TIP3    H244585   4.550   5.323  16.862  0.4785  0.6494  2.0288
 7724TIP3   OH244586   5.435   2.913   3.840  0.3128 -0.3339  1.0859
 7724TIP3    H144587   5.489   2.843   3.804  0.8723  1.0586 -1.0199
 7724TIP3    H244588   5.497   2.973   3.882  0.2501  0.3665  0.2288
 7725TIP3   OH244589   1.243   3.719  14.664  0.0762 -0.0542 -0.4302
 7725TIP3    H144590   1.260   3.807  14.699 -2.0088  0.7753 -1.3045
 7725TIP3    H244591   1.165   3.690  14.711 -0.5575 -0.4831 -1.7059
 7726TIP3   OH244592   6.041   2.994   3.964  0.2453 -0.2280  0.1756
 7726TIP3    H144593   6.083   3.022   4.046 -0.7408 -0.2852  0.7202
 7726TIP3    H244594   6.058   3.064   3.902 -0.3173  0.5584  0.8890
 7727TIP3   OH244595   6.711   6.610  16.020  0.4301 -0.2447  0.2427
 7727TIP3    H144596   6.762   6.691  16.013 -0.1229  0.2470  1.6292
 7727TIP3    H244597   6.700   6.596  16.114  1.5053 -2.5987  0.0915
 7728TIP3   OH244598   2.268   1.754  16.286 -0.0248  0.1653  0.0142
 7728TIP3    H144599   2.263   1.811  16.209 -0.0651 -0.4621 -0.4598
 7728TIP3    H244600   2.304   1.672  16.252 -4.2777 -1.7978 -0.3913
 7729TIP3   OH244601   0.159   4.518  12.735 -1.1262  0.2456  0.4712
 7729TIP3    H144602   0.186   4.463  12.808 -0.0560 -0.2558 -0.2666
 7729TIP3    H244603   0.092   4.575  12.771 -1.1719 -0.5168  1.6404
 7730TIP3   OH244604   5.723   5.931   3.682 -0.4984  0.6299 -0.6355
 7730TIP3    H144605   5.741   5.965   3.594  0.0186 -0.9480 -1.1787
 7730TIP3    H244606   5.804   5.886   3.707 -1.0993 -0.0745  0.0802
 7731TIP3   OH244607   4.492   2.819  12.302 -0.5937 -0.2899  0.1033
 7731TIP3    H144608   4.486   2.737  12.252 -0.2986 -0.4552  0.3364
 7731TIP3    H244609   4.548   2.875  12.248  1.5629 -1.2287  1.2367
 7732TIP3   OH244610   0.313   6.221  14.021  0.1376  0.1930  0.2171
 7732TIP3    H144611   0.397   6.188  14.054 -0.5704 -0.3551  1.5427
 7732TIP3    H244612   0.252   6.209  14.094 -1.4431 -0.7978 -1.1760
 7733TIP3   OH244613   2.115   3.923   6.627 -0.1247 -0.2402  0.0744
 7733TIP3    H144614   2.204   3.913   6.593 -0.3224 -1.4957 -0.1236
 7733TIP3    H244615   2.103   4.017   6.635  0.2661  0.0996 -2.4476
 7734TIP3   OH244616   4.499   3.463  16.531 -0.5447 -0.2140  0.2347
 7734TIP3    H144617   4.411   3.433  16.555 -0.7341  0.3383  0.2413
 7734TIP3    H244618   4.499   3.557  16.552  0.1948 -0.3034  0.6742
 7735TIP3   OH244619   4.937   4.960  13.642  0.7969 -0.1543 -0.3859
 7735TIP3    H144620   4.993   4.918  13.577 -1.3497 -0.0718 -2.4327
 7735TIP3    H244621   4.927   4.894  13.711  0.9160 -1.3539 -1.4766
 7736TIP3   OH244622   2.607   6.565  12.952 -0.0486  0.1356 -0.2219
 7736TIP3    H144623   2.606   6.529  12.863  1.4450  0.3853 -0.3620
 7736TIP3    H244624   2.527   6.531  12.992  0.1311 -1.4194 -1.1010
 7737TIP3   OH244625   6.650   0.487   4.033 -0.0393  0.4444 -0.1829
 7737TIP3    H144626   6.621   0.556   4.093 -0.3901 -0.7386  1.0573
 7737TIP3    H244627   6.571   0.435   4.017  0.1036  0.5978 -1.5231
 7738TIP3   OH244628   0.502   4.491   4.316 -0.2012  0.5637 -0.0297
 7738TIP3    H144629   0.469   4.551   4.382  1.3418  0.6071  0.7428
 7738TIP3    H244630   0.595   4.483   4.335 -0.1724 -1.2793 -0.7499
 7739TIP3   OH244631   2.637   1.452  13.701  0.3430 -0.9585 -0.8313
 7739TIP3    H144632   2.645   1.478  13.793 -0.9643  0.4925 -1.0783
 7739TIP3    H244633   2.725   1.461  13.666  0.4572  0.6705 -0.2199
 7740TIP3   OH244634   4.554   4.294   4.691 -0.1868  0.7481 -0.0543
 7740TIP3    H144635   4.648   4.311   4.686 -0.1920  0.6074 -0.7538
 7740TIP3    H244636   4.547   4.213   4.741  0.2240 -0.4464 -1.8099
 7741TIP3   OH244637   2.726   5.107  13.146  0.0831  0.5793 -0.1838
 7741TIP3    H144638   2.796   5.047  13.120 -0.7725 -0.6995  0.3682
 7741TIP3    H244639   2.713   5.090  13.239 -0.1445  1.6771 -0.0019
 7742TIP3   OH244640   5.671   5.536   5.424  0.5864  0.0634 -0.1467
 7742TIP3    H144641   5.652   5.464   5.485 -0.9337 -0.7139 -1.4702
 7742TIP3    H244642   5.758   5.566   5.450  0.9749 -1.7796  0.9134
 7743TIP3   OH244643   2.699   5.376   2.536  0.3400  0.3381 -0.3685
 7743TIP3    H144644   2.779   5.424   2.557  0.4144  0.4470 -0.8977
 7743TIP3    H244645   2.657   5.361   2.621  0.3947  1.2082 -0.1776
 7744TIP3   OH244646   4.771   6.041  11.899 -0.5512  0.2613  0.2364
 7744TIP3    H144647   4.854   6.056  11.855 -0.4050  2.6312  1.1902
 7744TIP3    H244648   4.744   5.954  11.870  2.3059 -0.6581  0.0226
 7745TIP3   OH244649   1.117   6.381  13.463  0.4551  0.1251  0.3222
 7745TIP3    H144650   1.022   6.383  13.477  0.6481  1.8420  1.7138
 7745TIP3    H244651   1.153   6.355  13.547  1.2512 -0.4499 -0.1820
 7746TIP3   OH244652   0.704   6.179  10.456 -0.0469 -0.5243 -0.6998
 7746TIP3    H144653   0.683   6.088  10.432 -1.5551 -0.8499  1.5095
 7746TIP3    H244654   0.796   6.176  10.484 -0.6652 -1.9235  1.4311
 7747TIP3   OH244655   3.486   1.206  16.943  0.6558 -0.1370  0.5845
 7747TIP3    H144656   3.558   1.169  16.892  1.8001 -0.0877  2.0986
 7747TIP3    H244657   3.487   1.158  17.026  1.6224  2.5329  2.2855
 7748TIP3   OH244658   6.650   3.153  14.459  0.1677  0.3339 -0.0870
 7748TIP3    H144659   6.630   3.094  14.386 -0.7121 -0.0990  0.4934
 7748TIP3    H244660   6.657   3.095  14.535  3.3218  0.4532 -0.1273
 7749TIP3   OH244661   1.380   4.214   1.719 -0.7447  0.5870 -0.3417
 7749TIP3    H144662   1.327   4.226   1.798 -0.3703  0.9863 -0.1452
 7749TIP3    H244663   1.334   4.263   1.651 -0.7492  0.7457 -0.2254
 7750TIP3   OH244664   5.535   3.296  12.631  0.0148  0.7603  0.0594
 7750TIP3    H144665   5.491   3.375  12.660  0.1082  0.9262 -0.2494
 7750TIP3    H244666   5.584   3.266  12.708 -0.8878  0.3930  0.5053
 7751TIP3   OH244667   2.434   4.510  14.482  0.3949  0.2762 -0.0105
 7751TIP3    H144668   2.377   4.477  14.412 -0.3139  1.1187  0.1481
 7751TIP3    H244669   2.460   4.431  14.531  2.5250 -0.5888 -2.3442
 7752TIP3   OH244670   2.525   2.542  11.085 -0.3193  0.0231 -0.4795
 7752TIP3    H144671   2.619   2.560  11.080 -0.2385  0.3825  1.5022
 7752TIP3    H244672   2.486   2.627  11.107 -1.1212 -0.1110 -1.3637
 7753TIP3   OH244673   3.091   0.743   2.386  0.0537 -0.7027 -0.3113
 7753TIP3    H144674   3.008   0.790   2.397 -0.3817 -1.0746 -1.7643
 7753TIP3    H244675   3.149   0.781   2.451 -0.7202  0.8361 -0.4737
 7754TIP3   OH244676   0.118   3.563   4.642 -0.0066  0.3009 -0.5274
 7754TIP3    H144677   0.149   3.473   4.652 -0.7966  0.1800  1.0812
 7754TIP3    H244678   0.089   3.568   4.550  0.2302 -1.0157 -0.6929
 7755TIP3   OH244679   1.988   0.835   4.208  0.5171 -0.6313 -0.6734
 7755TIP3    H144680   2.068   0.888   4.214 -0.3144  0.5910  0.2243
 7755TIP3    H244681   1.919   0.899   4.190 -0.6653 -1.2476  1.2941
 7756TIP3   OH244682   4.766   0.673   0.332 -0.4650  0.0016 -0.1441
 7756TIP3    H144683   4.738   0.646   0.244 -1.3182 -0.0561  0.1420
 7756TIP3    H244684   4.862   0.671   0.328 -0.3915 -3.6717 -0.0087
 7757TIP3   OH244685   4.222   1.357   3.880 -0.5745  0.4057 -0.6956
 7757TIP3    H144686   4.148   1.397   3.834 -1.1066  0.1060 -0.1159
 7757TIP3    H244687   4.187   1.277   3.918  0.3104 -0.2732 -1.2556
 7758TIP3   OH244688   0.080   1.818   2.590  0.1260 -0.4232  0.2279
 7758TIP3    H144689   0.023   1.812   2.512 -0.6599  0.1530  0.7463
 7758TIP3    H244690   0.092   1.912   2.604  0.7305 -0.5335  0.4784
 7759TIP3   OH244691   3.576   4.597   6.442  0.0992  0.4157  0.3809
 7759TIP3    H144692   3.520   4.520   6.455  1.3660 -0.8381 -1.1358
 7759TIP3    H244693   3.655   4.578   6.492  1.3934 -0.4257 -1.8615
 7760TIP3   OH244694   0.993   4.878  14.380  0.2212  0.3954 -0.1670
 7760TIP3    H144695   0.940   4.879  14.300  2.0766  0.9864 -1.4731
 7760TIP3    H244696   1.043   4.796  14.373 -0.8991 -0.4539  1.3388
 7761TIP3   OH244697   5.608   0.820  13.300  0.0161  0.1882  0.1345
 7761TIP3    H144698   5.588   0.730  13.327  1.5863 -0.2250  0.0165
 7761TIP3    H244699   5.558   0.832  13.219 -0.6053 -0.3974  0.4197
 7762TIP3   OH244700   3.875   5.649   5.094 -0.1945 -0.3525  0.0489
 7762TIP3    H144701   3.868   5.649   4.998 -0.3273 -2.0033  0.0287
 7762TIP3    H244702   3.954   5.598   5.112 -0.1383 -0.0027  0.8324
 7763TIP3   OH244703   2.715   6.000  11.842  0.1395  0.3223  0.2470
 7763TIP3    H144704   2.715   5.905  11.851 -0.2376  0.4940  2.9691
 7763TIP3    H244705   2.765   6.017  11.762  2.7650 -2.0521  1.2048
 7764TIP3   OH244706   0.397   0.087  12.562  0.2320  0.2296  0.8539
 7764TIP3    H144707   0.319   0.032  12.564  0.5676 -0.2730  0.5499
 7764TIP3    H244708   0.414   0.110  12.654  0.0822 -0.1719  0.9820
 7765TIP3   OH244709   4.511   3.448   5.689 -0.1843  0.5128  0.0793
 7765TIP3    H144710   4.433   3.478   5.642 -1.7053 -0.8817  1.6000
 7765TIP3    H244711   4.482   3.437   5.779  0.8374 -3.0820  0.1253
 7766TIP3   OH244712   3.035   1.822   3.243 -0.2289  0.2085  0.3045
 7766TIP3    H144713   3.104   1.816   3.308 -1.2871  0.7998  1.5177
 7766TIP3    H244714   2.994   1.906   3.259  0.3069  0.9961 -2.0102
 7767TIP3   OH244715   5.820   0.459   4.802 -0.0969  0.1699 -0.2437
 7767TIP3    H144716   5.733   0.452   4.840 -1.3615  0.3542 -2.8888
 7767TIP3    H244717   5.852   0.544   4.833 -0.9562  0.2335  0.5361
 7768TIP3   OH244718   0.528   1.856   3.392 -0.5904 -0.4574 -0.5116
 7768TIP3    H144719   0.494   1.938   3.427 -0.6787  0.1072 -1.8593
 7768TIP3    H244720   0.570   1.813   3.467 -2.0426  0.0035  0.5990
 7769TIP3   OH244721   2.949   0.136   0.615 -0.4959  0.3108  0.2937
 7769TIP3    H144722   2.856   0.153   0.597 -0.9900 -0.6400  1.7637
 7769TIP3    H244723   2.950   0.096   0.702  1.3911  1.2436  0.7721
 7770TIP3   OH244724   6.664   3.454   0.715  0.0929  0.0831  0.1708
 7770TIP3    H144725   6.702   3.370   0.687 -2.1884 -1.4213  1.2676
 7770TIP3    H244726   6.647   3.501   0.634  1.8439 -0.2676 -0.4438
 7771TIP3   OH244727   5.054   4.741   0.141  0.2568  0.2472  0.3055
 7771TIP3    H144728   5.034   4.659   0.096 -0.2598 -0.1177  1.1731
 7771TIP3    H244729   5.148   4.737   0.157  0.0899 -0.5987  1.1440
 7772TIP3   OH244730   5.720   5.663  17.220 -0.5386 -0.0022 -0.1436
 7772TIP3    H144731   5.651   5.612  17.177  0.9058 -1.5116 -0.7609
 7772TIP3    H244732   5.706   5.647  17.314  0.0762 -1.8320 -0.3375
 7773TIP3   OH244733   0.758   0.752   4.885 -0.4075 -0.5452  0.2263
 7773TIP3    H144734   0.769   0.695   4.961 -1.6976 -1.9920 -0.6072
 7773TIP3    H244735   0.819   0.718   4.820 -1.0926 -0.9221 -0.2332
 7774TIP3   OH244736   2.292   2.606  16.882  0.4705  0.7063 -0.4711
 7774TIP3    H144737   2.353   2.557  16.826  2.4409  0.6824  1.5495
 7774TIP3    H244738   2.335   2.690  16.897 -0.4831  1.0941  0.1932
 7775TIP3   OH244739   4.869   0.231  15.518  0.5046  0.1502 -0.1215
 7775TIP3    H144740   4.908   0.151  15.554  0.5825 -0.5208 -1.6194
 7775TIP3    H244741   4.916   0.245  15.436 -1.1551  0.3492 -1.0760
 7776TIP3   OH244742   1.994   0.446   6.060 -0.1928 -0.7615  0.5852
 7776TIP3    H144743   2.082   0.427   6.026  0.0950  1.5159 -0.0731
 7776TIP3    H244744   1.943   0.370   6.033  0.4095  0.0792 -3.7222
 7777TIP3   OH244745   0.619   1.629  12.174 -0.2785 -0.4299  0.1566
 7777TIP3    H144746   0.663   1.647  12.257 -0.4754  0.7591  0.0191
 7777TIP3    H244747   0.666   1.553  12.138  4.0388  2.6339 -1.5594
 7778TIP3   OH244748   6.176   0.148   2.084 -0.0598  0.1981  0.0696
 7778TIP3    H144749   6.114   0.216   2.107  0.9430  1.3781 -0.6066
 7778TIP3    H244750   6.225   0.183   2.009  0.1360 -1.4721 -0.6491
 7779TIP3   OH244751   2.738   1.222  16.636 -0.0137  0.0766 -0.2069
 7779TIP3    H144752   2.751   1.279  16.560 -1.5492  0.6566 -0.0686
 7779TIP3    H244753   2.809   1.157  16.630  0.6775  0.9067 -1.3813
 7780TIP3   OH244754   6.601   0.863  16.262 -0.0213 -0.1922 -0.7132
 7780TIP3    H144755   6.629   0.840  16.173 -0.2371  0.4773 -0.9661
 7780TIP3    H244756   6.505   0.868  16.256  0.0093  0.7291 -0.6777
 7781TIP3   OH244757   4.215   4.201  13.995 -0.5929  0.2191  0.6711
 7781TIP3    H144758   4.246   4.265  13.931  0.2163 -1.0762 -0.2933
 7781TIP3    H244759   4.189   4.125  13.943 -0.7881 -0.5401  1.8247
 7782TIP3   OH244760   3.360   4.000   0.998 -0.5493  0.1528  0.5875
 7782TIP3    H144761   3.440   3.948   1.000  0.0215  0.9292 -0.7039
 7782TIP3    H244762   3.386   4.083   0.958 -2.6258 -0.7931 -3.2099
 7783TIP3   OH244763   3.420   6.344  13.118  0.5230 -0.1651  0.0817
 7783TIP3    H144764   3.372   6.263  13.100  1.0237 -0.1691 -1.4502
 7783TIP3    H244765   3.355   6.413  13.110  0.7260 -0.1554 -2.1512
 7784TIP3   OH244766   1.788   6.076  16.499  0.4156  0.4707 -0.0232
 7784TIP3    H144767   1.859   6.023  16.463  0.3388  0.7303 -0.5609
 7784TIP3    H244768   1.740   6.015  16.556 -2.4468 -1.4911 -4.0378
 7785TIP3   OH244769   3.385   5.279   4.309 -0.6968 -0.1672 -0.1780
 7785TIP3    H144770   3.405   5.242   4.395 -0.2687 -0.0864 -0.2408
 7785TIP3    H244771   3.321   5.349   4.327 -0.8136 -0.3278  0.0399
 7786TIP3   OH244772   6.205   6.520  15.676 -0.4932  0.5559 -0.9492
 7786TIP3    H144773   6.249   6.435  15.671 -0.6790  0.2487  1.6801
 7786TIP3    H244774   6.112   6.498  15.684 -0.7611  1.1064 -2.1876
 7787TIP3   OH244775   1.378   2.290  12.177  0.9050 -0.1609  0.4186
 7787TIP3    H144776   1.346   2.343  12.104 -0.5540  0.0318  1.1649
 7787TIP3    H244777   1.420   2.214  12.135 -0.7661 -0.5576 -0.6265
 7788TIP3   OH244778   3.530   1.278  15.971  0.1546  0.0888 -0.2893
 7788TIP3    H144779   3.570   1.363  15.991 -0.1860  0.1519  0.1471
 7788TIP3    H244780   3.443   1.283  16.011  1.3699 -1.7951  2.9736
 7789TIP3   OH244781   0.368   0.627  12.849  0.2441 -0.4850  0.1280
 7789TIP3    H144782   0.294   0.687  12.845  1.4944  1.0697 -0.5344
 7789TIP3    H244783   0.341   0.560  12.912 -1.0601  0.9494  1.1722
 7790TIP3   OH244784   2.050   2.960   1.789 -0.4152 -0.2462 -0.0651
 7790TIP3    H144785   2.103   3.039   1.784 -0.9877  0.1979  0.6815
 7790TIP3    H244786   2.062   2.928   1.878 -1.7097  0.0945  0.2514
 7791TIP3   OH244787   1.405   3.719  12.600 -0.1508  0.3316 -0.0634
 7791TIP3    H144788   1.352   3.661  12.546 -0.5111 -1.4204  2.0364
 7791TIP3    H244789   1.348   3.794  12.617 -0.8767 -0.1720 -0.2296
 7792TIP3   OH244790   4.273   1.323  17.113 -0.0034 -0.5320  0.3233
 7792TIP3    H144791   4.212   1.347  17.043 -1.2577  1.5718  2.0199
 7792TIP3    H244792   4.358   1.355  17.083 -0.1572 -1.2066 -0.9428
 7793TIP3   OH244793   4.154   4.172  14.403  0.5559 -0.3179  0.2077
 7793TIP3    H144794   4.183   4.245  14.457  0.7462  0.1587 -0.5180
 7793TIP3    H244795   4.232   4.144  14.355  0.4926 -1.0232  0.5015
 7794TIP3   OH244796   6.289   0.699  17.242  0.3055  0.3685 -0.3441
 7794TIP3    H144797   6.288   0.623  17.301  2.1296  0.3250 -0.3157
 7794TIP3    H244798   6.279   0.774  17.300  0.1821  0.2340 -0.1907
 7795TIP3   OH244799   6.524   4.801  14.864  0.7681  0.4684 -0.0801
 7795TIP3    H144800   6.474   4.789  14.783  0.0367 -2.4928  0.6865
 7795TIP3    H244801   6.610   4.762  14.845  1.7727  2.6759 -0.3765
 7796TIP3   OH244802   0.375   5.524  12.882  0.4222  0.5194 -0.1232
 7796TIP3    H144803   0.364   5.567  12.967 -1.5026  0.8860 -0.5074
 7796TIP3    H244804   0.458   5.557  12.849 -0.2840  2.8541  0.2494
 7797TIP3   OH244805   4.503   6.220   0.770 -0.1358  0.3779  0.2678
 7797TIP3    H144806   4.544   6.306   0.780  0.0512  0.1855  1.1675
 7797TIP3    H244807   4.409   6.236   0.781 -0.2142  0.6300 -0.6500
 7798TIP3   OH244808   4.963   2.196   4.017 -0.3930 -0.0776  0.0056
 7798TIP3    H144809   5.004   2.281   4.030 -1.8212  0.7341 -0.6021
 7798TIP3    H244810   5.002   2.162   3.936 -2.3016  1.6029 -1.7154
 7799TIP3   OH244811   3.256   0.601   4.675 -0.0832 -0.6602 -0.2268
 7799TIP3    H144812   3.191   0.638   4.735  0.1372 -0.8066  0.1006
 7799TIP3    H244813   3.334   0.587   4.728  0.0300 -1.0357 -0.4837
 7800TIP3   OH244814   0.791   6.356  11.271 -0.2934 -0.0346 -0.1302
 7800TIP3    H144815   0.739   6.350  11.351  2.8227 -0.8513  2.0312
 7800TIP3    H244816   0.791   6.449  11.250  1.0686  0.6963  2.5832
 7801TIP3   OH244817   5.749   6.079  14.259 -0.6066 -0.1260  0.3634
 7801TIP3    H144818   5.688   6.128  14.314 -0.5994 -1.1042  1.2826
 7801TIP3    H244819   5.833   6.084  14.304 -0.3463 -0.0451 -0.1166
 7802TIP3   OH244820   0.273   5.699  16.609  0.0529  0.3630 -0.2762
 7802TIP3    H144821   0.181   5.675  16.597 -0.1038  1.5086 -1.5470
 7802TIP3    H244822   0.307   5.631  16.668 -1.4378 -0.4315 -0.2651
 7803TIP3   OH244823   6.367   5.372   5.498  0.2596  0.1055 -0.5689
 7803TIP3    H144824   6.322   5.332   5.573 -1.7100  1.4561 -0.9589
 7803TIP3    H244825   6.433   5.429   5.538  1.0269 -1.1811  0.0493
 7804TIP3   OH244826   6.504   4.881   1.921 -0.1324 -0.2219  0.0838
 7804TIP3    H144827   6.486   4.795   1.959 -0.8584 -0.6454 -1.1647
 7804TIP3    H244828   6.428   4.934   1.944  1.0799  0.6622  2.3541
 7805TIP3   OH244829   1.997   1.591   2.515 -0.2236  0.2464 -0.2011
 7805TIP3    H144830   1.923   1.609   2.573 -0.8085  0.3027 -0.9562
 7805TIP3    H244831   2.036   1.677   2.497 -0.7627  0.3631 -0.8346
 7806TIP3   OH244832   4.775   4.001   3.439 -0.1225  0.4584  0.1737
 7806TIP3    H144833   4.765   3.938   3.367  0.5847 -0.8537  1.1946
 7806TIP3    H244834   4.742   4.083   3.403 -0.5360 -0.3542 -1.3873
 7807TIP3   OH244835   6.707   3.295   4.119  0.5627 -0.0477  0.3709
 7807TIP3    H144836   6.621   3.279   4.080  0.6901 -1.1399  0.5080
 7807TIP3    H244837   6.695   3.277   4.212  0.2918  2.4421  0.8795
 7808TIP3   OH244838   2.778   0.136  13.832  0.5656  0.2191 -0.3567
 7808TIP3    H144839   2.737   0.055  13.864 -0.1791  0.6025 -0.3010
 7808TIP3    H244840   2.754   0.202  13.897  0.1842  0.7191 -0.9839
 7809TIP3   OH244841   4.887   1.296   0.780 -0.0396 -0.1715 -0.4182
 7809TIP3    H144842   4.878   1.384   0.743 -0.3570 -0.8943 -2.1633
 7809TIP3    H244843   4.980   1.290   0.805  0.0787  0.5130 -0.6851
 7810TIP3   OH244844   4.336   6.662   3.993 -0.3831  0.3368  0.4415
 7810TIP3    H144845   4.260   6.686   4.046 -0.7851  0.8904 -0.3737
 7810TIP3    H244846   4.326   6.710   3.911 -0.1381 -1.0265 -0.4329
 7811TIP3   OH244847   4.473   4.199  15.443  0.3228  0.4939 -0.1652
 7811TIP3    H144848   4.503   4.241  15.524 -2.1823  0.3316  0.9387
 7811TIP3    H244849   4.396   4.250  15.417 -1.7141 -2.2007  0.1896
 7812TIP3   OH244850   5.180   3.441   1.435 -0.0794  0.3437 -0.3191
 7812TIP3    H144851   5.218   3.507   1.493 -0.9521  1.1943 -0.6908
 7812TIP3    H244852   5.092   3.474   1.415 -0.9649 -1.4499  0.3355
 7813TIP3   OH244853   4.310   3.420  15.963  0.2099  0.1615 -0.4972
 7813TIP3    H144854   4.281   3.360  15.894 -1.6901  0.2877  0.1433
 7813TIP3    H244855   4.265   3.390  16.042 -0.2465  2.0114 -0.0135
 7814TIP3   OH244856   3.074   4.269  11.244 -0.1561  0.1656  0.6446
 7814TIP3    H144857   2.981   4.249  11.259 -0.4207  0.5078 -0.4519
 7814TIP3    H244858   3.119   4.188  11.267 -0.7622 -0.1232  0.8454
 7815TIP3   OH244859   5.388   4.298  13.890 -0.7386  0.2630 -0.0786
 7815TIP3    H144860   5.436   4.353  13.828  0.1306 -0.4933 -0.0841
 7815TIP3    H244861   5.299   4.295  13.854 -0.8403  1.7214 -0.0312
 7816TIP3   OH244862   5.011   6.660   3.630  0.4110 -0.4024 -0.0459
 7816TIP3    H144863   4.990   6.621   3.545 -0.9812 -0.6060  0.3736
 7816TIP3    H244864   4.951   6.734   3.638  2.0919  1.0563 -0.2232
 7817TIP3   OH244865   0.322   0.063   2.635  0.1631 -0.2773 -0.1461
 7817TIP3    H144866   0.409   0.103   2.639 -0.7102  1.6458  1.2714
 7817TIP3    H244867   0.316   0.010   2.714  0.3249 -1.0778 -0.6604
 7818TIP3   OH244868   3.753   3.123  12.746 -0.1794 -0.0510  0.4741
 7818TIP3    H144869   3.820   3.169  12.696  1.5045  1.7633  3.9538
 7818TIP3    H244870   3.773   3.030  12.735 -0.9498  0.0906 -3.3018
 7819TIP3   OH244871   6.690   5.107  11.291 -0.5452 -0.5801 -0.2263
 7819TIP3    H144872   6.595   5.119  11.290 -0.1786  3.2254 -0.8083
 7819TIP3    H244873   6.701   5.012  11.298 -4.3594 -1.2789 -1.2700
 7820TIP3   OH244874   2.733   1.667  14.267 -0.5670 -0.2753 -0.4906
 7820TIP3    H144875   2.654   1.661  14.215 -1.5436  1.5553  0.6598
 7820TIP3    H244876   2.751   1.761  14.273 -0.0224 -0.4468  1.6829
 7821TIP3   OH244877   3.916   2.114   1.917  0.0820 -0.2723  0.3708
 7821TIP3    H144878   3.864   2.047   1.874 -0.2629  0.2653 -0.0490
 7821TIP3    H244879   3.941   2.175   1.848 -0.9621  0.9129  1.0021
 7822TIP3   OH244880   6.057   0.761   2.259  0.0946 -0.3306  0.1562
 7822TIP3    H144881   6.000   0.769   2.183 -1.2441 -0.6036  1.0935
 7822TIP3    H244882   6.118   0.834   2.252 -2.4047  1.9765  0.7791
 7823TIP3   OH244883   4.425   2.899   5.665  0.3671 -0.2029  0.3232
 7823TIP3    H144884   4.390   2.988   5.666 -0.7805 -0.5730 -1.6921
 7823TIP3    H244885   4.510   2.906   5.708 -0.2140  1.6117  1.2845
 7824TIP3   OH244886   2.786   5.318  13.720  0.0316  0.0973  0.4653
 7824TIP3    H144887   2.815   5.229  13.698 -0.1898  0.1511 -0.0508
 7824TIP3    H244888   2.867   5.370  13.721 -0.0037  0.2164 -0.8228
 7825TIP3   OH244889   4.065   6.186  14.342  0.7453 -0.1803  0.2096
 7825TIP3    H144890   4.094   6.275  14.321  0.7942 -0.5673 -1.6027
 7825TIP3    H244891   3.972   6.194  14.362  0.8659  0.3499  0.5419
 7826TIP3   OH244892   4.962   4.872  17.094  0.1111  0.2855 -0.1296
 7826TIP3    H144893   5.055   4.888  17.077  0.1543  0.4320  0.2437
 7826TIP3    H244894   4.952   4.887  17.187  0.1692 -1.9822  0.3014
 7827TIP3   OH244895   4.580   4.529   3.363 -0.2204 -0.9401  0.3868
 7827TIP3    H144896   4.519   4.591   3.403  1.6274  0.7253  0.7502
 7827TIP3    H244897   4.637   4.582   3.308  0.9938 -2.4117  0.1373
 7828TIP3   OH244898   6.292   5.960   4.372  0.4631  0.1079 -0.2611
 7828TIP3    H144899   6.234   6.020   4.418  1.4311  0.8046  0.0871
 7828TIP3    H244900   6.324   5.900   4.439 -1.1002 -1.3598 -0.7325
 7829TIP3   OH244901   4.095   0.456  12.531 -0.6361 -0.1379  0.3368
 7829TIP3    H144902   4.005   0.423  12.529 -0.8499  0.4041  0.6720
 7829TIP3    H244903   4.086   0.548  12.557 -0.0015 -0.0141  0.1364
 7830TIP3   OH244904   2.549   3.151  13.255  0.3556 -0.4903 -0.1042
 7830TIP3    H144905   2.501   3.104  13.323  0.5989  1.9207  1.8837
 7830TIP3    H244906   2.485   3.212  13.218  0.9118  0.0874 -0.1334
 7831TIP3   OH244907   2.834   0.548  14.485 -0.2367  0.1862  0.0650
 7831TIP3    H144908   2.866   0.620  14.538  1.9259 -0.2272 -0.6024
 7831TIP3    H244909   2.785   0.493  14.547 -0.7865  1.4980  0.8433
 7832TIP3   OH244910   2.255   5.879  15.879  0.8566 -0.5956 -0.3920
 7832TIP3    H144911   2.280   5.963  15.917  2.9805 -0.2433 -2.3313
 7832TIP3    H244912   2.189   5.901  15.813  1.5431 -0.3876 -1.0248
 7833TIP3   OH244913   4.972   1.179  13.258  0.6497  0.1709  0.3394
 7833TIP3    H144914   4.893   1.145  13.301  0.2131  0.3396 -0.3241
 7833TIP3    H244915   4.941   1.216  13.176  1.5207 -0.4390 -0.2843
 7834TIP3   OH244916   2.449   4.498  16.526 -0.5568 -0.5682 -0.4613
 7834TIP3    H144917   2.544   4.493  16.515 -0.5924  1.3014 -2.0879
 7834TIP3    H244918   2.419   4.549  16.451 -2.5818  0.9192  1.2545
 7835TIP3   OH244919   1.084   3.649  12.614 -0.8471 -0.3739  0.0493
 7835TIP3    H144920   1.121   3.643  12.526 -2.0289  0.2025 -0.5000
 7835TIP3    H244921   0.991   3.666  12.601 -1.1042 -0.5982  1.4145
 7836TIP3   OH244922   6.684   3.635   0.931  0.3672  0.7143  0.6922
 7836TIP3    H144923   6.779   3.623   0.939  0.3548 -0.0788 -0.2345
 7836TIP3    H244924   6.659   3.580   0.857 -0.9629  0.1960  1.4957
 7837TIP3   OH244925   4.022   3.273   5.561 -0.2519  0.0340 -0.3743
 7837TIP3    H144926   4.096   3.328   5.536 -0.1376  0.0123 -0.0890
 7837TIP3    H244927   4.035   3.192   5.510  0.2831 -0.2244  0.1619
 7838TIP3   OH244928   3.058   0.242  16.395 -0.0668  0.1183 -0.1591
 7838TIP3    H144929   2.985   0.242  16.457  0.0888 -0.1475  0.0309
 7838TIP3    H244930   3.018   0.229  16.310 -0.2238 -0.3327 -0.0248
 7839TIP3   OH244931   2.237   0.969   5.621  0.3819 -0.4505 -0.5060
 7839TIP3    H144932   2.318   1.021   5.615  0.2716 -0.2549 -0.3238
 7839TIP3    H244933   2.238   0.933   5.710  0.3722 -0.6197 -0.5747
 7840TIP3   OH244934   2.019   1.978   1.016  0.4148  0.0090 -0.4731
 7840TIP3    H144935   1.950   1.942   0.960  1.4949  0.7382 -2.3959
 7840TIP3    H244936   2.085   2.010   0.954  2.1077  0.0748  1.2673
 7841TIP3   OH244937   0.370   2.309  15.519  0.4578  0.4471 -0.1428
 7841TIP3    H144938   0.423   2.349  15.587 -2.4346  1.5980  1.6042
 7841TIP3    H244939   0.315   2.246  15.565 -1.4464  1.1181 -1.3673
 7842TIP3   OH244940   5.420   6.360  12.849 -0.0914  0.2158  0.3831
 7842TIP3    H144941   5.365   6.287  12.822  1.3443 -0.4481 -0.8929
 7842TIP3    H244942   5.427   6.351  12.944  0.6404 -1.7991  0.1960
 7843TIP3   OH244943   4.507   1.043  12.980 -0.2222  0.1620  0.1652
 7843TIP3    H144944   4.525   1.071  13.070 -1.4835 -0.2454  0.5572
 7843TIP3    H244945   4.439   0.976  12.989  0.3185 -0.5750 -1.0237
 7844TIP3   OH244946   2.394   1.323   2.792  0.0536 -0.1823 -0.2598
 7844TIP3    H144947   2.448   1.243   2.788  1.3688  0.5746  1.2166
 7844TIP3    H244948   2.323   1.306   2.730  0.1814 -2.5743  0.1291
 7845TIP3   OH244949   6.367   0.317  10.530  0.4598  0.2456 -0.8467
 7845TIP3    H144950   6.319   0.250  10.480 -0.2458 -1.1376  1.4950
 7845TIP3    H244951   6.420   0.363  10.464 -0.5605 -1.2796 -2.8583
 7846TIP3   OH244952   3.432   1.235   6.074 -0.2697 -0.0700 -0.1026
 7846TIP3    H144953   3.467   1.156   6.115 -0.0570  0.9608  1.7835
 7846TIP3    H244954   3.382   1.279   6.143  0.7674  2.1394 -0.6701
 7847TIP3   OH244955   1.646   1.209  15.826 -0.3119  0.3092  0.3192
 7847TIP3    H144956   1.598   1.217  15.744  1.3797 -2.5992 -1.1090
 7847TIP3    H244957   1.599   1.141  15.875 -1.1523  1.8321  1.7514
 7848TIP3   OH244958   2.983   6.670   2.938 -0.4862  0.7277 -0.2732
 7848TIP3    H144959   3.002   6.627   2.854 -2.5561  1.4381 -1.1546
 7848TIP3    H244960   2.897   6.711   2.925  0.6075  3.7149  1.0742
 7849TIP3   OH244961   3.013   2.310  12.550 -0.4119 -0.2115 -0.0482
 7849TIP3    H144962   3.059   2.241  12.504 -0.6310 -0.1152 -0.4124
 7849TIP3    H244963   2.943   2.337  12.491 -0.5728  0.0489  0.2548
 7850TIP3   OH244964   5.776   3.351  16.952  0.6580 -0.5075  0.2148
 7850TIP3    H144965   5.788   3.364  16.858  2.4196  1.1184  0.6039
 7850TIP3    H244966   5.694   3.396  16.972  0.4094 -0.6299 -0.5031
 7851TIP3   OH244967   1.877   5.224  11.223  0.5804 -0.1013 -0.5555
 7851TIP3    H144968   1.931   5.252  11.149  1.2867  0.3226  0.1054
 7851TIP3    H244969   1.789   5.215  11.186  1.2367 -1.7416 -1.8836
 7852TIP3   OH244970   1.251   1.044   5.019 -0.7049  0.5034  0.3083
 7852TIP3    H144971   1.254   0.969   5.078  1.6887 -0.0540 -0.4371
 7852TIP3    H244972   1.158   1.054   4.999 -1.0801 -2.9317 -0.3664
 7853TIP3   OH244973   5.582   2.136   1.750  0.3712 -0.1354  0.0233
 7853TIP3    H144974   5.606   2.193   1.823  0.4448  0.9958 -0.8673
 7853TIP3    H244975   5.613   2.181   1.672  0.8016 -1.5922 -0.6986
 7854TIP3   OH244976   1.429   3.602  14.887  0.0298 -0.1254 -0.4736
 7854TIP3    H144977   1.482   3.681  14.877 -0.6202  0.2240 -1.3530
 7854TIP3    H244978   1.417   3.569  14.797 -0.2546 -0.8496 -0.1794
 7855TIP3   OH244979   4.264   4.382  15.521 -1.1510  0.4169  0.5071
 7855TIP3    H144980   4.247   4.304  15.574 -1.4797 -0.1207 -0.3704
 7855TIP3    H244981   4.316   4.438  15.577  2.2368 -1.9326  0.0046
 7856TIP3   OH244982   6.511   4.974  15.574 -0.1161  0.4497 -0.4719
 7856TIP3    H144983   6.487   5.003  15.486  2.1269  0.0034 -1.2907
 7856TIP3    H244984   6.537   5.055  15.619  1.4869  0.3690 -1.1889
 7857TIP3   OH244985   1.281   0.667  13.413  0.2941  0.4915  1.0720
 7857TIP3    H144986   1.297   0.741  13.354  1.4817 -0.1006  0.6137
 7857TIP3    H244987   1.186   0.658  13.415  0.1984  0.9166 -0.2850
 7858TIP3   OH244988   5.689   1.928  16.134 -0.8042 -0.4237  0.2361
 7858TIP3    H144989   5.742   1.894  16.062 -0.7288 -1.0417  0.5735
 7858TIP3    H244990   5.735   2.008  16.162  0.1271 -1.1091  0.7225
 7859TIP3   OH244991   3.558   6.382  12.339  0.5429  0.7493  0.2059
 7859TIP3    H144992   3.642   6.353  12.303 -0.7024 -1.6730 -0.9261
 7859TIP3    H244993   3.493   6.327  12.296 -1.7522  3.0896  0.4488
 7860TIP3   OH244994   1.845   3.222   5.961  0.2301 -0.1959  0.0390
 7860TIP3    H144995   1.807   3.250   6.044  1.2029 -0.2091  0.4983
 7860TIP3    H244996   1.793   3.268   5.895 -1.5479 -1.3724  0.5676
 7861TIP3   OH244997   4.241   4.505  12.692 -0.1470  0.1667  0.2644
 7861TIP3    H144998   4.186   4.582  12.706  2.2391  2.0282  0.0653
 7861TIP3    H244999   4.299   4.530  12.619 -0.3427 -2.4647 -0.9058
 7862TIP3   OH245000   5.431   0.326   5.766 -0.1005 -0.4000  0.2494
 7862TIP3    H145001   5.513   0.276   5.770  0.3051  0.2745  0.5259
 7862TIP3    H245002   5.458   0.415   5.744 -0.3591  0.6831  3.6951
 7863TIP3   OH245003   1.376   1.079   0.895  0.3420  0.3333  0.2946
 7863TIP3    H145004   1.316   1.008   0.919  1.7498 -1.4535 -1.1308
 7863TIP3    H245005   1.452   1.066   0.952  1.2213 -0.2886 -0.9604
 7864TIP3   OH245006   2.592   0.188   5.950  0.1431 -0.1842 -0.1400
 7864TIP3    H145007   2.652   0.115   5.939  0.7618  0.4336 -0.9967
 7864TIP3    H245008   2.526   0.156   6.012  0.4533 -1.4189 -0.4196
 7865TIP3   OH245009   4.521   4.334  16.023  0.2541 -0.1931  0.2466
 7865TIP3    H145010   4.503   4.366  15.935  1.2531  0.0955  0.1415
 7865TIP3    H245011   4.495   4.406  16.081 -0.5465 -0.4413  0.2025
 7866TIP3   OH245012   1.487   5.803   5.382 -0.0456  0.6165  0.2058
 7866TIP3    H145013   1.535   5.865   5.437 -1.7007 -0.2602  2.8293
 7866TIP3    H245014   1.538   5.722   5.387  0.9285  1.0996 -1.3774
 7867TIP3   OH245015   1.542   1.056  12.336  0.0273  0.5759 -0.3621
 7867TIP3    H145016   1.630   1.088  12.354 -0.0688  0.9673 -0.5665
 7867TIP3    H245017   1.511   1.022  12.420 -0.0797  1.5549  0.0006
 7868TIP3   OH245018   0.972   4.564  12.411 -1.0592 -0.0808 -0.2806
 7868TIP3    H145019   0.962   4.658  12.395  0.1344 -0.0243 -0.8273
 7868TIP3    H245020   0.974   4.525  12.324  3.4515 -0.0060 -0.4658
 7869TIP3   OH245021   2.092   0.287   4.004  0.6562  0.3259 -0.2957
 7869TIP3    H145022   2.052   0.202   4.020  0.2997  0.6234  0.4061
 7869TIP3    H245023   2.089   0.332   4.088  0.5913  1.1359 -0.7165
 7870TIP3   OH245024   6.085   5.227  16.112 -0.5790 -0.0083  0.0050
 7870TIP3    H145025   6.095   5.151  16.169  1.0950  0.9696  1.1087
 7870TIP3    H245026   6.172   5.267  16.110 -1.7349  2.8136  0.8323
 7871TIP3   OH245027   2.834   2.887  17.202  0.6408  0.3219  0.1675
 7871TIP3    H145028   2.900   2.906  17.135  0.9725 -0.3196  0.3030
 7871TIP3    H245029   2.870   2.923  17.283  0.8559 -0.0887  0.2542
 7872TIP3   OH245030   0.493   4.708  12.822  0.9251  0.8063  0.0086
 7872TIP3    H145031   0.531   4.689  12.736  1.0733  2.6239 -0.3640
 7872TIP3    H245032   0.567   4.707  12.882  0.9978  0.6948 -0.0821
 7873TIP3   OH245033   3.060   1.772   5.807 -0.3387  0.7349 -0.2701
 7873TIP3    H145034   3.094   1.859   5.830 -1.1209  0.8253  0.5797
 7873TIP3    H245035   3.045   1.729   5.891 -1.2547  0.2919 -0.6511
 7874TIP3   OH245036   6.065   0.581  12.038  0.2973 -0.2724  0.2529
 7874TIP3    H145037   6.034   0.668  12.012 -1.4217 -0.0565  2.6989
 7874TIP3    H245038   6.151   0.573  11.997  0.0079  2.0726 -0.9965
 7875TIP3   OH245039   3.346   3.289  11.017 -0.0131 -0.0267 -0.1931
 7875TIP3    H145040   3.423   3.254  10.972  0.3165  1.1234 -0.5769
 7875TIP3    H245041   3.288   3.317  10.946  0.5662  1.9341  0.0271
 7876TIP3   OH245042   2.818   0.492  11.001  0.2043 -0.3940  0.6896
 7876TIP3    H145043   2.849   0.550  11.071 -0.7340  0.2690  0.5756
 7876TIP3    H245044   2.894   0.480  10.944  0.8081 -0.4363  1.4857
 7877TIP3   OH245045   2.829   4.909  15.991  0.2967 -0.1743  0.5620
 7877TIP3    H145046   2.897   4.868  16.044  1.0536 -0.1396 -0.3597
 7877TIP3    H245047   2.803   4.842  15.928 -0.2558 -0.0509  0.6458
 7878TIP3   OH245048   4.309   1.169   0.083  0.2819  0.4055  0.1159
 7878TIP3    H145049   4.225   1.130   0.107  0.0424  0.7558 -0.1368
 7878TIP3    H245050   4.288   1.229   0.011  0.9575 -0.5082 -0.8683
 7879TIP3   OH245051   6.234   1.735  15.019  0.1094 -0.1020 -0.0614
 7879TIP3    H145052   6.229   1.749  14.924  1.0344 -0.3291 -0.1534
 7879TIP3    H245053   6.153   1.775  15.053  1.7614  4.0904 -0.4432
 7880TIP3   OH245054   3.589   4.395   0.713 -0.1666 -0.2476 -0.0931
 7880TIP3    H145055   3.629   4.408   0.799 -0.4204  1.0575 -0.1492
 7880TIP3    H245056   3.513   4.339   0.730 -1.2955  1.4900  0.8706
 7881TIP3   OH245057   0.552   2.896   3.353 -0.0187  0.6170  0.0633
 7881TIP3    H145058   0.553   2.838   3.278 -0.2536  0.6479  0.0355
 7881TIP3    H245059   0.469   2.876   3.398  0.6460 -0.2244  0.9558
 7882TIP3   OH245060   3.741   0.232  14.525 -0.9213 -0.5890  0.1754
 7882TIP3    H145061   3.708   0.231  14.436  0.0563  1.9334 -0.3022
 7882TIP3    H245062   3.676   0.282  14.575 -0.5855 -0.4231  0.4559
 7883TIP3   OH245063   1.159   4.643  14.202  0.2981 -0.2174  0.3312
 7883TIP3    H145064   1.237   4.686  14.166 -0.4215 -0.9013 -2.2044
 7883TIP3    H245065   1.182   4.550  14.206 -0.4013 -0.4326 -0.4935
 7884TIP3   OH245066   5.684   0.652  11.779  0.2953  0.0498 -0.2288
 7884TIP3    H145067   5.645   0.739  11.771 -0.8509 -0.4273  0.0282
 7884TIP3    H245068   5.633   0.609  11.847 -1.1389 -1.8708 -2.3670
 7885TIP3   OH245069   4.126   5.321   1.760 -1.0202  0.5623 -0.1274
 7885TIP3    H145070   4.171   5.314   1.845 -0.9847 -1.0142 -0.2423
 7885TIP3    H245071   4.174   5.389   1.713  1.6649 -1.3951 -0.4476
 7886TIP3   OH245072   1.094   0.484   3.084  0.5412 -0.0865  0.7900
 7886TIP3    H145073   1.114   0.463   3.175  1.7637 -0.5644  0.4392
 7886TIP3    H245074   1.106   0.401   3.037  1.0232  0.3912  0.0399
 7887TIP3   OH245075   4.439   6.147   4.563  1.0081 -0.4202 -0.0991
 7887TIP3    H145076   4.432   6.113   4.474  0.2785  0.8249 -0.5512
 7887TIP3    H245077   4.432   6.242   4.553 -1.1694 -0.3390  1.4505
 7888TIP3   OH245078   2.949   6.463  12.710 -0.1063  0.5949  0.0274
 7888TIP3    H145079   2.966   6.542  12.659  0.8824  0.6874  0.4723
 7888TIP3    H245080   3.036   6.430  12.733 -0.5134 -0.4116  0.1707
 7889TIP3   OH245081   5.171   6.045  12.008  0.3214  0.9806 -0.4840
 7889TIP3    H145082   5.254   6.001  11.995 -0.2153  0.1429 -1.2609
 7889TIP3    H245083   5.115   5.980  12.050  0.7647  2.3391  2.5094
 7890TIP3   OH245084   1.925   2.680   2.518 -0.7194 -0.0033  0.4071
 7890TIP3    H145085   2.010   2.645   2.491 -0.5975 -0.8550  1.7934
 7890TIP3    H245086   1.912   2.757   2.463  0.3953 -0.5355 -0.6545
 7891TIP3   OH245087   1.127   5.490  13.452 -0.4068  0.6810  0.0941
 7891TIP3    H145088   1.197   5.499  13.517 -0.7062  0.9970  0.3842
 7891TIP3    H245089   1.047   5.513  13.501 -0.7115  0.3014 -0.2221
 7892TIP3   OH245090   4.505   4.605   6.370  0.3949 -0.2448 -0.0330
 7892TIP3    H145091   4.565   4.556   6.427  0.6927 -2.1156 -1.8257
 7892TIP3    H245092   4.418   4.576   6.396  0.4939 -0.6166 -0.1158
 7893TIP3   OH245093   4.775   1.505  14.431 -0.1103 -0.1925  0.4978
 7893TIP3    H145094   4.821   1.467  14.355 -0.5561 -1.6011  0.9013
 7893TIP3    H245095   4.817   1.590  14.443  1.0495 -0.6012 -0.3634
 7894TIP3   OH245096   4.373   3.562   0.444  0.2306  0.6579  0.0990
 7894TIP3    H145097   4.417   3.598   0.521 -0.5010 -0.6748  1.1753
 7894TIP3    H245098   4.328   3.484   0.476  1.0519 -0.7597 -1.9419
 7895TIP3   OH245099   3.586   0.788  12.608  0.3569  0.1213 -0.2553
 7895TIP3    H145100   3.609   0.761  12.519 -0.0376  0.0145 -0.3296
 7895TIP3    H245101   3.530   0.865  12.596 -0.8584 -0.7096 -0.1789
 7896TIP3   OH245102   6.310   2.767  14.202 -0.2330  0.0429 -0.0970
 7896TIP3    H145103   6.346   2.777  14.290  0.4161 -0.8718 -0.2384
 7896TIP3    H245104   6.216   2.771  14.214 -0.1326  1.0007  0.4881
 7897TIP3   OH245105   5.742   3.317   0.731  0.5723  0.5033 -0.4933
 7897TIP3    H145106   5.653   3.281   0.721  0.5448  0.4643 -0.1440
 7897TIP3    H245107   5.732   3.411   0.718  0.4371  0.5283 -0.2144
 7898TIP3   OH245108   3.388   1.082  11.897  0.3052 -0.3866  0.1952
 7898TIP3    H145109   3.370   1.154  11.959 -3.0137 -0.8734 -0.0185
 7898TIP3    H245110   3.418   1.126  11.818 -2.2401  0.9649 -0.1474
 7899TIP3   OH245111   2.944   5.019  13.637 -0.1743 -0.5256 -0.0172
 7899TIP3    H145112   2.995   4.969  13.701 -1.2113 -0.7819  0.6202
 7899TIP3    H245113   2.913   4.953  13.575 -0.3184 -0.4582 -0.0161
 7900TIP3   OH245114   2.144   5.741   0.626 -0.0370 -0.3622 -0.4221
 7900TIP3    H145115   2.126   5.723   0.719  0.3643 -0.3513 -0.3438
 7900TIP3    H245116   2.194   5.666   0.596  0.5952  0.0513 -0.4021
 7901TIP3   OH245117   4.253   4.484  16.317 -0.1718 -0.3533 -0.0322
 7901TIP3    H145118   4.207   4.401  16.310 -0.0560 -0.4699  0.5121
 7901TIP3    H245119   4.197   4.547  16.273 -2.2873  0.0726  2.9780
 7902TIP3   OH245120   4.955   5.837  15.382 -0.3702 -0.3172 -0.0538
 7902TIP3    H145121   4.867   5.802  15.371 -0.3716 -0.6105  0.8039
 7902TIP3    H245122   5.012   5.774  15.338 -0.7103  0.8042 -2.2353
 7903TIP3   OH245123   5.485   4.574   5.187 -0.5877  0.6992 -0.0976
 7903TIP3    H145124   5.518   4.492   5.151 -0.8063  0.9834 -0.9566
 7903TIP3    H245125   5.453   4.550   5.274 -0.9484 -0.1939 -0.4626
 7904TIP3   OH245126   6.722   4.431   1.264 -0.2828 -0.0235 -0.3848
 7904TIP3    H145127   6.801   4.382   1.288  0.7565  1.0788 -1.4283
 7904TIP3    H245128   6.651   4.367   1.272  0.6095 -0.8920  1.1639
 7905TIP3   OH245129   4.621   6.058  10.642  0.0598  0.1147 -0.0357
 7905TIP3    H145130   4.560   6.131  10.645 -0.6839 -0.4685 -0.4828
 7905TIP3    H245131   4.684   6.082  10.574 -1.0968 -0.3310 -1.3152
 7906TIP3   OH245132   4.160   2.476   3.428 -0.4230 -0.1436 -0.1804
 7906TIP3    H145133   4.220   2.546   3.453  0.1195 -0.3635 -0.8541
 7906TIP3    H245134   4.077   2.500   3.470  0.0807  0.2517  0.6124
 7907TIP3   OH245135   1.682   5.879   2.279 -0.2496  0.1976  0.1169
 7907TIP3    H145136   1.698   5.785   2.277 -0.2530  0.1752 -3.0761
 7907TIP3    H245137   1.765   5.918   2.251 -0.9438  0.9700 -0.9409
 7908TIP3   OH245138   0.426   3.917  16.298  0.3750  0.3126  0.2300
 7908TIP3    H145139   0.412   3.935  16.205 -0.5939 -2.0137 -0.1468
 7908TIP3    H245140   0.359   3.969  16.343  0.1562  0.6340 -0.4688
 7909TIP3   OH245141   4.583   2.664   3.746 -0.4706 -0.1085 -0.1107
 7909TIP3    H145142   4.616   2.752   3.726  0.5712 -0.3870  0.3138
 7909TIP3    H245143   4.494   2.663   3.709  0.6137  0.0354 -2.9511
 7910TIP3   OH245144   1.684   5.526   1.759 -0.2181  0.0094  0.7393
 7910TIP3    H145145   1.768   5.482   1.749  0.7756  1.7924  0.7965
 7910TIP3    H245146   1.619   5.460   1.736  1.2766 -0.8355 -1.3720
 7911TIP3   OH245147   1.599   0.862  12.850  0.1911  0.2167 -0.8381
 7911TIP3    H145148   1.531   0.853  12.917 -0.2086  1.2962 -1.0846
 7911TIP3    H245149   1.665   0.917  12.891  2.3075 -2.9295  0.4209
 7912TIP3   OH245150   1.273   5.019   4.267  0.7324  0.2827  0.9246
 7912TIP3    H145151   1.186   5.006   4.304  1.3636  0.4602  2.5852
 7912TIP3    H245152   1.303   5.101   4.306  1.1629  0.8903 -0.6211
 7913TIP3   OH245153   6.405   2.814  11.886  0.1307 -0.1893 -0.0665
 7913TIP3    H145154   6.447   2.734  11.917 -1.0015 -0.0303  2.0907
 7913TIP3    H245155   6.478   2.870  11.858  1.0270 -1.4622 -0.3406
 7914TIP3   OH245156   6.321   2.214  12.180 -0.6739  0.2879  0.5142
 7914TIP3    H145157   6.397   2.248  12.227  0.8375  0.2806 -1.7513
 7914TIP3    H245158   6.344   2.122  12.161 -1.5099  0.1164  0.3024
 7915TIP3   OH245159   6.580   2.431   2.172  0.1608  0.4214  0.4933
 7915TIP3    H145160   6.522   2.482   2.116  0.4242 -0.0041 -0.1844
 7915TIP3    H245161   6.535   2.427   2.257 -0.0934  1.3362  0.4049
 7916TIP3   OH245162   6.098   0.438   1.874 -0.5290 -0.3635 -0.5191
 7916TIP3    H145163   6.033   0.427   1.805 -1.4278 -0.5319  0.3400
 7916TIP3    H245164   6.176   0.393   1.841 -0.2537  1.2658 -2.3009
 7917TIP3   OH245165   1.148   3.215  14.898  0.4821 -0.4092 -0.8237
 7917TIP3    H145166   1.100   3.156  14.956 -0.5126  1.0507 -0.0913
 7917TIP3    H245167   1.139   3.177  14.811  2.0902 -2.7118 -0.0948
 7918TIP3   OH245168   0.685   0.364   5.608  0.2802  0.2393 -0.1037
 7918TIP3    H145169   0.667   0.368   5.702 -0.7863 -0.6882 -0.2531
 7918TIP3    H245170   0.677   0.271   5.585  0.7031  0.4273 -1.0806
 7919TIP3   OH245171   0.604   2.517   0.916 -0.1775 -0.4441 -0.3137
 7919TIP3    H145172   0.645   2.445   0.964  1.0657  0.0053 -0.6503
 7919TIP3    H245173   0.607   2.590   0.978 -3.2379 -1.0938  0.7832
 7920TIP3   OH245174   1.314   3.399   0.875 -0.0836 -0.1282 -0.0035
 7920TIP3    H145175   1.397   3.378   0.833  0.2506 -1.3208  1.1734
 7920TIP3    H245176   1.277   3.469   0.822  1.0896 -0.4252 -1.2667
 7921TIP3   OH245177   2.353   4.338   1.800  0.4413  0.6725 -0.2529
 7921TIP3    H145178   2.316   4.316   1.715  0.9432  3.1169 -1.1864
 7921TIP3    H245179   2.445   4.312   1.795  0.3413  0.3024 -0.2230
 7922TIP3   OH245180   5.550   3.188  14.865  0.3328  0.2203 -0.4895
 7922TIP3    H145181   5.574   3.279  14.850  0.7717  0.4361  1.2363
 7922TIP3    H245182   5.462   3.193  14.902  0.4243 -0.0252 -0.2340
 7923TIP3   OH245183   5.741   2.282   5.056  0.4735  0.4266  0.1246
 7923TIP3    H145184   5.770   2.323   5.138 -0.1328  2.8904 -0.7983
 7923TIP3    H245185   5.823   2.263   5.009  0.8077 -0.5979  1.0860
 7924TIP3   OH245186   0.851   0.903  10.391 -0.7570 -0.1129  0.1585
 7924TIP3    H145187   0.799   0.828  10.361 -0.7928 -0.9080  2.0569
 7924TIP3    H245188   0.902   0.868  10.464 -1.0028  1.7994  1.2955
 7925TIP3   OH245189   3.424   1.476   3.687 -0.5775 -0.0336 -0.7473
 7925TIP3    H145190   3.382   1.544   3.634  0.8004  0.6350 -1.0283
 7925TIP3    H245191   3.516   1.478   3.659 -0.5693 -2.2716 -1.0243
 7926TIP3   OH245192   0.250   4.407   1.672 -0.3023  0.4663  0.0851
 7926TIP3    H145193   0.325   4.462   1.694  1.4795 -0.3716 -3.1771
 7926TIP3    H245194   0.179   4.468   1.653  0.2347  1.3823  0.9186
 7927TIP3   OH245195   5.360   5.449   1.492 -0.0190 -0.8091  0.3189
 7927TIP3    H145196   5.337   5.412   1.407  1.9658 -1.7496  0.1522
 7927TIP3    H245197   5.363   5.373   1.551  1.3601 -0.5701  0.5898
 7928TIP3   OH245198   3.825   4.266   4.551 -0.0252  0.3278 -0.3011
 7928TIP3    H145199   3.835   4.187   4.498  0.7275 -1.8113  2.7423
 7928TIP3    H245200   3.914   4.301   4.561 -0.2091  0.9372 -0.7281
 7929TIP3   OH245201   2.908   1.065  17.036  0.2612  0.1011  0.0405
 7929TIP3    H145202   2.993   1.089  17.000  0.3513  1.1471  0.9002
 7929TIP3    H245203   2.848   1.134  17.007 -0.4632 -0.9417 -1.0718
 7930TIP3   OH245204   2.997   4.001   3.132 -0.1610 -0.0730 -0.8452
 7930TIP3    H145205   3.082   4.042   3.118  0.2452 -0.4621  0.3883
 7930TIP3    H245206   2.993   3.930   3.068  0.9845 -0.8473 -0.0805
 7931TIP3   OH245207   4.125   3.252   2.545  0.0083  0.4893 -0.0187
 7931TIP3    H145208   4.173   3.325   2.505 -1.5899  1.7352  0.2242
 7931TIP3    H245209   4.092   3.202   2.470  0.2131  0.6226 -0.2016
 7932TIP3   OH245210   4.301   6.664  12.120  0.3492  0.4960 -0.1511
 7932TIP3    H145211   4.285   6.748  12.163 -1.5941 -0.1593  0.4973
 7932TIP3    H245212   4.376   6.627  12.167 -0.8234  0.4561  1.7949
 7933TIP3   OH245213   6.222   0.806  15.754  0.7170 -0.2009 -0.2280
 7933TIP3    H145214   6.247   0.806  15.662 -1.0862  2.0541 -0.8065
 7933TIP3    H245215   6.126   0.806  15.753  0.6167  1.8650  1.5573
 7934TIP3   OH245216   2.166   4.385   2.048 -0.2142  0.1304 -0.1467
 7934TIP3    H145217   2.145   4.478   2.037  0.7634  0.3083 -0.5997
 7934TIP3    H245218   2.210   4.360   1.966 -0.1089 -0.6330  0.1306
 7935TIP3   OH245219   4.281   5.412  16.394  0.5721 -0.1941 -0.2942
 7935TIP3    H145220   4.291   5.369  16.479  1.2746 -0.0176 -0.2871
 7935TIP3    H245221   4.353   5.473  16.389 -0.3052  0.8584 -0.4010
 7936TIP3   OH245222   0.659   6.628  15.973 -0.5775 -0.4978  0.1357
 7936TIP3    H145223   0.653   6.576  16.054 -1.1319 -1.2969 -0.4018
 7936TIP3    H245224   0.710   6.573  15.914  1.7778  1.0350  0.6433
 7937TIP3   OH245225   2.721   6.488   2.401 -0.0301  0.3710 -0.2504
 7937TIP3    H145226   2.706   6.553   2.333 -0.2369 -1.4016 -1.9721
 7937TIP3    H245227   2.664   6.415   2.378 -0.4574 -0.1171  2.1176
 7938TIP3   OH245228   2.367   0.625  17.184 -0.3854  0.3100  0.3038
 7938TIP3    H145229   2.416   0.638  17.265  0.5648 -2.0244  0.1627
 7938TIP3    H245230   2.305   0.698  17.182  0.7678  1.4324  2.2018
 7939TIP3   OH245231   6.247   2.897   2.589  0.4957 -0.0557  0.0876
 7939TIP3    H145232   6.284   2.849   2.516  1.5205  2.4091 -1.1371
 7939TIP3    H245233   6.318   2.952   2.620 -1.0284  1.9776  0.2209
 7940TIP3   OH245234   2.053   0.080   2.320 -0.2949  0.0438 -0.0384
 7940TIP3    H145235   2.074   0.096   2.228  0.3745  0.5176  0.1922
 7940TIP3    H245236   2.136   0.088   2.366 -0.6931  0.2520  0.6682
 7941TIP3   OH245237   1.408   3.408  10.946  0.0200  0.1140  0.0681
 7941TIP3    H145238   1.372   3.336  10.895 -2.5778  2.9806 -2.6094
 7941TIP3    H245239   1.331   3.456  10.977  1.5677  2.4440  0.5923
 7942TIP3   OH245240   0.405   5.192  11.802 -0.8804 -0.5246 -0.2800
 7942TIP3    H145241   0.359   5.199  11.886 -1.5211 -0.2618 -0.6489
 7942TIP3    H245242   0.477   5.255  11.810 -1.4559  0.1503 -0.2464
 7943TIP3   OH245243   5.594   4.730  11.890  0.2139  1.1138 -0.0550
 7943TIP3    H145244   5.527   4.798  11.878 -0.4510  0.7149  1.1979
 7943TIP3    H245245   5.580   4.698  11.979  0.4975 -0.6863 -0.6160
 7944TIP3   OH245246   1.540   2.440   0.497  0.5345  0.3983 -0.1911
 7944TIP3    H145247   1.541   2.425   0.591  0.6848  1.5317 -0.0032
 7944TIP3    H245248   1.508   2.530   0.487 -1.0169 -0.2400 -1.2989
 7945TIP3   OH245249   0.257   3.065   3.656 -0.0120 -0.3545  0.2801
 7945TIP3    H145250   0.172   3.099   3.628  0.3222 -0.1819 -0.5563
 7945TIP3    H245251   0.284   3.122   3.728  0.2596  0.7852 -0.6993
 7946TIP3   OH245252   5.303   2.864  16.355 -0.0039  0.5087  0.0291
 7946TIP3    H145253   5.377   2.862  16.415  0.5704  0.3072 -0.6682
 7946TIP3    H245254   5.228   2.840  16.409  0.5051  0.2875  0.6557
 7947TIP3   OH245255   2.057   0.408  14.950  0.3125  0.2721 -0.9559
 7947TIP3    H145256   2.031   0.426  15.040 -0.7413  0.1742 -1.2331
 7947TIP3    H245257   2.143   0.449  14.942  1.5567 -1.8070  0.7999
 7948TIP3   OH245258   6.306   5.911  11.526 -0.5825  0.1711 -0.0115
 7948TIP3    H145259   6.291   5.853  11.452 -1.7246  0.9859 -0.4454
 7948TIP3    H245260   6.267   5.866  11.601  0.2572 -0.4860  0.0488
 7949TIP3   OH245261   3.792   4.727  11.308 -0.2310 -0.2260 -0.1735
 7949TIP3    H145262   3.808   4.811  11.266  1.5211  0.6219  2.0198
 7949TIP3    H245263   3.871   4.676  11.292 -0.3971 -0.6579  0.3521
 7950TIP3   OH245264   3.665   5.523   0.913 -0.0864  0.2587  0.3723
 7950TIP3    H145265   3.650   5.430   0.902  0.3451  0.3591 -1.2925
 7950TIP3    H245266   3.673   5.557   0.824 -0.2355  1.8847  0.9443
 7951TIP3   OH245267   1.084   1.429   1.691  0.8265 -0.2639 -0.3453
 7951TIP3    H145268   1.122   1.369   1.756  1.0653  0.6700  0.4105
 7951TIP3    H245269   1.018   1.478   1.740  1.9723  1.4383 -0.4137
 7952TIP3   OH245270   1.273   0.435  11.163  0.1039  0.3617 -0.5747
 7952TIP3    H145271   1.336   0.488  11.210 -1.7445  1.6037  0.6163
 7952TIP3    H245272   1.261   0.479  11.079 -0.5712  1.2351 -0.0371
 7953TIP3   OH245273   0.573   1.669  10.364 -0.3143 -0.0680  0.0117
 7953TIP3    H145274   0.655   1.627  10.337 -0.4136  0.0377 -0.4595
 7953TIP3    H245275   0.570   1.751  10.315 -1.2185 -0.5695 -0.8184
 7954TIP3   OH245276   0.504   4.660   5.970  0.3409 -0.4735  0.0256
 7954TIP3    H145277   0.544   4.747   5.974  1.0172 -0.7158 -1.1570
 7954TIP3    H245278   0.526   4.620   6.054  2.3448 -0.4702 -0.4489
 7955TIP3   OH245279   2.048   4.692  15.585  0.0431 -0.6103  0.6913
 7955TIP3    H145280   1.994   4.647  15.520 -0.2428  1.9107 -0.9607
 7955TIP3    H245281   2.096   4.622  15.628 -1.9943 -2.6542 -0.1440
 7956TIP3   OH245282   6.287   2.894   5.425 -0.7610 -0.4466  0.0050
 7956TIP3    H145283   6.318   2.978   5.392  1.1453 -1.4964 -0.9845
 7956TIP3    H245284   6.197   2.888   5.393 -1.6327  1.9723  1.6425
 7957TIP3   OH245285   2.445   0.538   1.500 -0.1978 -0.5676  0.4687
 7957TIP3    H145286   2.497   0.614   1.477  0.4973 -0.7621  1.3433
 7957TIP3    H245287   2.424   0.496   1.416 -0.1849  0.3125  0.0214
 7958TIP3   OH245288   5.802   5.985   1.703  0.4244 -0.2745  0.5961
 7958TIP3    H145289   5.779   5.894   1.717  1.8281 -0.7920 -0.1928
 7958TIP3    H245290   5.898   5.985   1.700  0.4411  0.7176 -2.2483
 7959TIP3   OH245291   5.187   4.763  14.060 -0.2008 -0.4782 -0.1936
 7959TIP3    H145292   5.188   4.821  14.135  1.1301  0.2123 -0.7116
 7959TIP3    H245293   5.170   4.676  14.096  0.2608 -0.1312  0.8788
 7960TIP3   OH245294   5.693   0.492  12.677 -0.5945 -0.2089  0.1913
 7960TIP3    H145295   5.610   0.513  12.633 -0.1803  2.2086  0.4261
 7960TIP3    H245296   5.694   0.547  12.755  1.1282 -0.3504  0.3107
 7961TIP3   OH245297   0.116   1.894  14.695 -0.4430  0.1133  0.7789
 7961TIP3    H145298   0.159   1.978  14.678 -0.5003 -0.0261 -0.1326
 7961TIP3    H245299   0.164   1.832  14.640 -1.4963 -0.1333  0.1043
 7962TIP3   OH245300   4.231   3.451  16.528  0.5358 -0.5396  0.0270
 7962TIP3    H145301   4.139   3.457  16.503  0.0561 -1.9552  1.2728
 7962TIP3    H245302   4.250   3.357  16.528  1.6343 -0.3452  0.9240
 7963TIP3   OH245303   6.183   3.804  13.656  0.2521  0.3701 -0.0856
 7963TIP3    H145304   6.178   3.813  13.751 -1.2255 -0.9612  0.0138
 7963TIP3    H245305   6.231   3.722  13.642 -0.3599  0.0534 -0.4245
 7964TIP3   OH245306   5.762   0.528  11.157 -0.1239 -0.2436 -0.3036
 7964TIP3    H145307   5.819   0.564  11.225 -0.0659  1.9038 -1.3855
 7964TIP3    H245308   5.822   0.510  11.084 -0.4937 -0.1930 -0.6220
 7965TIP3   OH245309   5.217   0.403  16.433 -0.9724  0.1104 -0.3039
 7965TIP3    H145310   5.195   0.381  16.342 -0.2723  1.3464 -0.8033
 7965TIP3    H245311   5.134   0.396  16.480 -1.1202 -1.6988 -0.7746
 7966TIP3   OH245312   2.126   2.316  15.668  0.3477 -0.4392 -0.3535
 7966TIP3    H145313   2.129   2.305  15.763  1.0071 -0.8903 -0.4165
 7966TIP3    H245314   2.033   2.316  15.646  0.2017 -0.6644  0.2592
 7967TIP3   OH245315   3.482   4.482   1.176 -0.3525  0.3357 -0.4050
 7967TIP3    H145316   3.458   4.524   1.093 -0.1696  0.9307 -0.1563
 7967TIP3    H245317   3.398   4.456   1.214 -0.6349  2.2388  0.3661
 7968TIP3   OH245318   3.758   6.039   3.141  0.7197 -0.1994  0.4738
 7968TIP3    H145319   3.802   5.969   3.190  0.3024 -0.1082  0.9890
 7968TIP3    H245320   3.665   6.024   3.157  0.6552  2.0894  2.9177
 7969TIP3   OH245321   1.289   4.431  16.934  0.2703  0.2940  0.1375
 7969TIP3    H145322   1.196   4.421  16.951  0.4105  0.1656  0.8813
 7969TIP3    H245323   1.314   4.512  16.978  0.7806 -0.3945  1.1456
 7970TIP3   OH245324   1.840   2.364  11.578  0.0199 -0.0835 -0.3009
 7970TIP3    H145325   1.852   2.327  11.490  2.4303 -0.7971  0.2586
 7970TIP3    H245326   1.887   2.447  11.575  1.3203 -0.7400  0.6441
 7971TIP3   OH245327   5.279   4.451  12.633 -0.3081  0.1350  0.1082
 7971TIP3    H145328   5.206   4.460  12.694  1.4087 -2.3925  2.7950
 7971TIP3    H245329   5.293   4.356  12.625  1.3168  0.4689 -2.0988
 7972TIP3   OH245330   1.356   3.339  14.692 -0.4340  0.1343 -0.5425
 7972TIP3    H145331   1.295   3.381  14.632  0.9612  1.3133 -1.1927
 7972TIP3    H245332   1.310   3.339  14.776 -0.3575  3.4851 -0.3686
 7973TIP3   OH245333   1.192   5.735   4.318 -0.3700  0.2562 -0.1363
 7973TIP3    H145334   1.159   5.740   4.228 -0.0296 -2.4702 -0.5027
 7973TIP3    H245335   1.286   5.752   4.309 -0.4059  0.4199 -0.2156
 7974TIP3   OH245336   0.026   0.069  10.220 -0.0515  0.2050 -0.2052
 7974TIP3    H145337   0.119   0.088  10.227 -0.3169  1.5203  0.0255
 7974TIP3    H245338   0.022  -0.016  10.175  1.2652 -0.4551  0.8473
 7975TIP3   OH245339   2.897   3.924   3.393 -0.0624 -0.3724  0.1382
 7975TIP3    H145340   2.910   3.834   3.422 -2.7660 -0.5672  1.0597
 7975TIP3    H245341   2.900   3.919   3.298 -0.0095 -1.4111  0.1807
 7976TIP3   OH245342   0.995   5.439  12.142 -0.2893 -0.0489  0.4118
 7976TIP3    H145343   1.002   5.347  12.167  1.4080 -0.3529 -0.9552
 7976TIP3    H245344   0.910   5.446  12.099 -0.6071 -0.8682  0.8904
 7977TIP3   OH245345   3.018   1.452  11.607 -0.5571 -0.4654  0.3666
 7977TIP3    H145346   2.978   1.422  11.525  1.0799 -1.9323  0.0430
 7977TIP3    H245347   3.020   1.375  11.663  2.9221 -0.9331 -0.1517
 7978TIP3   OH245348   3.050   1.801   5.213  0.4784 -0.1349 -0.2706
 7978TIP3    H145349   3.026   1.862   5.143  0.3614 -0.0820 -0.1859
 7978TIP3    H245350   2.966   1.768   5.245  0.3664  1.5222  1.3426
 7979TIP3   OH245351   5.847   5.868  12.812 -0.2744 -0.1481  0.1445
 7979TIP3    H145352   5.853   5.947  12.757 -1.1751 -0.5609 -0.5742
 7979TIP3    H245353   5.896   5.802  12.764  0.8615  0.0714  0.9659
 7980TIP3   OH245354   0.968   3.557   0.327  0.6593 -0.1765  0.1504
 7980TIP3    H145355   1.030   3.623   0.295  0.4023  0.4193  0.8796
 7980TIP3    H245356   0.980   3.556   0.422  1.4556 -1.9788  0.0804
 7981TIP3   OH245357   4.719   3.884   0.585 -0.0187 -0.3741  0.5190
 7981TIP3    H145358   4.645   3.938   0.556 -1.7633 -3.5173 -1.4812
 7981TIP3    H245359   4.691   3.848   0.669 -0.5104 -0.9817  0.1091
 7982TIP3   OH245360   6.560   5.949  14.559 -0.3856  0.4131  0.2891
 7982TIP3    H145361   6.486   5.983  14.509  0.6180 -0.5237 -1.9461
 7982TIP3    H245362   6.634   6.002  14.531  0.2209 -0.1738  0.7544
 7983TIP3   OH245363   3.654   0.170   3.935 -0.3706 -0.0183 -0.1914
 7983TIP3    H145364   3.725   0.135   3.882  0.5909  2.2797 -0.4984
 7983TIP3    H245365   3.585   0.190   3.873  1.5178  4.6971 -1.2038
 7984TIP3   OH245366   1.460   1.847  13.318 -0.7594  0.2596 -0.1168
 7984TIP3    H145367   1.552   1.850  13.292 -0.3870  0.5137  1.1689
 7984TIP3    H245368   1.427   1.935  13.299 -0.5165  0.4126  0.1579
 7985TIP3   OH245369   4.628   5.181   0.401  0.5217  0.2798 -0.2260
 7985TIP3    H145370   4.626   5.260   0.455 -0.2726  0.7030 -0.8602
 7985TIP3    H245371   4.583   5.115   0.453 -2.0314  1.2034 -1.1147
 7986TIP3   OH245372   0.041   6.286   3.819 -0.2336  0.8698 -0.8790
 7986TIP3    H145373   0.004   6.328   3.742 -0.4994  3.0239  0.3341
 7986TIP3    H245374   0.136   6.296   3.809 -0.2807  1.4704 -0.7811
 7987TIP3   OH245375   3.726   1.947   6.422 -0.0378  0.1553 -0.3507
 7987TIP3    H145376   3.751   1.872   6.369  2.0800  0.6718 -0.1846
 7987TIP3    H245377   3.791   1.949   6.493 -1.2448  0.9858  0.7816
 7988TIP3   OH245378   3.852   0.064   2.663  0.0126  0.3296  0.3451
 7988TIP3    H145379   3.822   0.155   2.674 -0.0498  0.3773 -0.1890
 7988TIP3    H245380   3.793   0.028   2.597 -0.1854 -0.2096  0.8123
 7989TIP3   OH245381   0.469   4.666   2.467 -0.1087  0.5774  0.2241
 7989TIP3    H145382   0.546   4.622   2.431 -0.4184  0.2140 -0.0042
 7989TIP3    H245383   0.422   4.597   2.514  0.0413  0.9425  0.9231
 7990TIP3   OH245384   6.536   1.755   5.041 -0.3068 -0.5755 -0.3448
 7990TIP3    H145385   6.499   1.691   4.980 -0.1999 -1.2815  0.3121
 7990TIP3    H245386   6.608   1.796   4.993  0.8177 -2.2578 -0.1647
 7991TIP3   OH245387   4.971   4.364   2.351  0.2591 -0.4557  0.5685
 7991TIP3    H145388   4.964   4.423   2.426 -1.0355  2.7968 -1.8504
 7991TIP3    H245389   4.885   4.321   2.347 -0.5044  1.0192 -0.1487
 7992TIP3   OH245390   3.862   1.440  15.646 -0.1970  0.3652  0.3524
 7992TIP3    H145391   3.811   1.360  15.662  0.9471 -0.0108  2.6825
 7992TIP3    H245392   3.945   1.408  15.612 -0.3168  0.7015 -0.2605
 7993TIP3   OH245393   2.748   4.603   5.178 -0.3506 -0.0439  0.0484
 7993TIP3    H145394   2.687   4.676   5.183 -1.0325 -0.6369  0.8745
 7993TIP3    H245395   2.692   4.525   5.172  0.3638 -0.4749 -1.6421
 7994TIP3   OH245396   4.275   4.448  12.197  0.2113  0.1381  0.2192
 7994TIP3    H145397   4.209   4.517  12.202 -1.0032 -0.9505 -0.3657
 7994TIP3    H245398   4.358   4.495  12.208 -0.4171  2.0146 -2.0242
 7995TIP3   OH245399   3.652   5.440   5.373 -0.0619 -0.2578  0.4243
 7995TIP3    H145400   3.676   5.521   5.329 -3.4316  0.4185 -0.4880
 7995TIP3    H245401   3.687   5.371   5.316  3.2267  0.4174  1.4418
 7996TIP3   OH245402   4.552   3.587   5.007  0.4686 -0.0897  0.0115
 7996TIP3    H145403   4.636   3.589   5.053  0.1379 -3.2366  0.9935
 7996TIP3    H245404   4.570   3.538   4.926  0.2564  2.2981 -1.5837
 7997TIP3   OH245405   1.913   6.404   4.879 -0.1317 -0.2089  0.9539
 7997TIP3    H145406   1.868   6.320   4.887 -1.6531  0.5199  0.5483
 7997TIP3    H245407   1.989   6.387   4.824 -0.0895 -1.4200  1.3652
 7998TIP3   OH245408   4.171   0.089  14.972 -0.6955  0.3126  0.7879
 7998TIP3    H145409   4.203   0.031  14.903 -0.6343  1.4788 -0.2032
 7998TIP3    H245410   4.077   0.095  14.957 -0.5314  1.5158 -0.0060
 7999TIP3   OH245411   2.097   6.742  14.522  0.1836  0.1465  0.4742
 7999TIP3    H145412   2.022   6.688  14.497 -2.5569  2.8607  2.1059
 7999TIP3    H245413   2.073   6.831  14.496  2.8835  1.1677  1.0756
 8000TIP3   OH245414   4.583   3.269  12.354  0.1742 -0.2832 -0.0094
 8000TIP3    H145415   4.528   3.330  12.305  0.6776  1.5907  1.6265
 8000TIP3    H245416   4.621   3.212  12.287 -1.6578  0.0848 -1.4321
 8001TIP3   OH245417   5.436   0.480   3.827 -0.3681 -0.5829  0.6905
 8001TIP3    H145418   5.505   0.428   3.786 -1.2051 -0.3546 -1.1006
 8001TIP3    H245419   5.465   0.493   3.917  2.7177  0.8680 -0.3854
 8002TIP3   OH245420   5.370   2.625  14.349  0.1966  0.5551  0.2758
 8002TIP3    H145421   5.385   2.677  14.429  0.0617  0.1622  0.5586
 8002TIP3    H245422   5.278   2.598  14.355  0.5163 -0.5078  0.6057
 8003TIP3   OH245423   5.995   5.758  13.891 -0.4186  0.1976 -0.3187
 8003TIP3    H145424   6.078   5.716  13.867 -0.3883 -0.5341  0.9319
 8003TIP3    H245425   6.011   5.791  13.980 -1.5777 -0.3023  0.0924
 8004TIP3   OH245426   2.704   0.572   1.810 -0.6300 -0.3014 -0.4302
 8004TIP3    H145427   2.636   0.506   1.799 -0.6650 -0.3805  0.2700
 8004TIP3    H245428   2.786   0.524   1.796 -0.7006 -0.2374 -1.1157
 8005TIP3   OH245429   2.208   3.466  16.788 -0.4760 -0.8187 -0.3872
 8005TIP3    H145430   2.215   3.558  16.763  0.8249 -1.0004 -0.7348
 8005TIP3    H245431   2.114   3.451  16.798 -0.7536  0.3314 -1.1240
 8006TIP3   OH245432   0.069   3.058  13.075  0.1569  0.0441  0.2481
 8006TIP3    H145433   0.133   3.112  13.028  2.0285 -1.0951  1.3217
 8006TIP3    H245434   0.110   3.042  13.160 -0.1890 -3.1113 -0.0496
 8007TIP3   OH245435   2.328   3.520  12.036 -0.0129 -0.2049 -0.8921
 8007TIP3    H145436   2.395   3.521  12.105 -0.1028  0.9186 -0.7979
 8007TIP3    H245437   2.314   3.428  12.018  0.0494 -0.5303  0.5739
 8008TIP3   OH245438   0.642   0.073   5.233  0.1506  0.1878 -0.7633
 8008TIP3    H145439   0.575   0.054   5.168 -0.9544 -0.3315  0.4685
 8008TIP3    H245440   0.696  -0.006   5.237  1.2521  0.8284 -2.1858
 8009TIP3   OH245441   2.910   6.040   4.834 -0.1320  0.0296 -0.1724
 8009TIP3    H145442   2.899   5.982   4.909 -0.3635 -0.2038 -0.3872
 8009TIP3    H245443   2.954   5.987   4.767  1.4565  0.6578  0.3089
 8010TIP3   OH245444   2.070   2.787  16.892 -0.2962 -0.1736  0.1831
 8010TIP3    H145445   2.141   2.752  16.838  0.1030 -2.4375  2.0226
 8010TIP3    H245446   1.997   2.800  16.832  0.4772 -1.4923 -1.0853
 8011TIP3   OH245447   2.716   6.707   3.564  0.1359 -0.0920 -0.2446
 8011TIP3    H145448   2.623   6.700   3.583  0.2419  1.2896  1.0128
 8011TIP3    H245449   2.759   6.676   3.644  0.7443 -0.2819 -0.6391
 8012TIP3   OH245450   5.115   0.704   5.753  0.2008  0.4576 -0.5193
 8012TIP3    H145451   5.105   0.726   5.661  0.5999  0.5232 -0.5453
 8012TIP3    H245452   5.059   0.627   5.765 -1.7735  1.8543 -0.2715
 8013TIP3   OH245453   5.689   6.405  15.258  0.4296 -0.4658 -0.6364
 8013TIP3    H145454   5.626   6.394  15.186 -0.1903 -1.2592  0.0081
 8013TIP3    H245455   5.688   6.499  15.276 -0.8278 -0.5012 -0.4261
 8014TIP3   OH245456   1.797   2.293   0.691 -0.6690  0.0159 -0.3217
 8014TIP3    H145457   1.892   2.288   0.684 -0.6210 -0.1594  0.3656
 8014TIP3    H245458   1.770   2.349   0.618  0.1946  2.1463  0.8987
 8015TIP3   OH245459   0.939   2.172   4.223 -0.5070  0.1272  0.5284
 8015TIP3    H145460   1.013   2.189   4.165 -0.3304 -0.1930  0.6526
 8015TIP3    H245461   0.962   2.089   4.266 -0.9050  0.0647  0.6189
 8016TIP3   OH245462   3.037   0.195   2.982 -0.2840  0.0425  0.8224
 8016TIP3    H145463   3.070   0.130   2.920 -0.4513  1.2540 -0.5823
 8016TIP3    H245464   3.107   0.260   2.988 -0.8343  0.6404  0.8503
 8017TIP3   OH245465   4.476   0.644   3.652 -0.3171  0.1004  0.1486
 8017TIP3    H145466   4.450   0.721   3.703  0.4179 -0.0960  0.8500
 8017TIP3    H245467   4.515   0.585   3.717 -2.6390 -1.7234 -0.0162
 8018TIP3   OH245468   1.134   4.090  13.596  0.3124 -0.0736  0.1280
 8018TIP3    H145469   1.100   4.061  13.680  2.3235 -0.0357  1.0159
 8018TIP3    H245470   1.191   4.019  13.567 -0.0029  0.1112 -0.9927
 8019TIP3   OH245471   0.072   2.614   1.826  0.0751  0.4777  0.0107
 8019TIP3    H145472   0.110   2.564   1.899 -2.5378  0.6585  1.6088
 8019TIP3    H245473   0.019   2.550   1.778 -0.8579  1.0558  0.2575
 8020TIP3   OH245474   5.265   5.659  11.763  0.1473  0.9166  0.7154
 8020TIP3    H145475   5.194   5.722  11.754  0.3203  1.3405  2.1654
 8020TIP3    H245476   5.336   5.694  11.709  0.2108  1.9437  1.4448
 8021TIP3   OH245477   5.447   1.346   3.598  0.4941  0.0331 -0.1553
 8021TIP3    H145478   5.503   1.369   3.671  2.6106 -1.3045 -1.2445
 8021TIP3    H245479   5.422   1.429   3.558 -0.0140  0.7307  1.5444
 8022TIP3   OH245480   5.847   4.918   3.427 -0.8593 -0.0505 -0.3307
 8022TIP3    H145481   5.859   4.876   3.513 -0.9332  0.2354 -0.1790
 8022TIP3    H245482   5.853   5.012   3.445  0.9236 -0.0083 -0.9184
 8023TIP3   OH245483   3.822   5.338  11.790 -0.2781 -0.7914 -0.4159
 8023TIP3    H145484   3.734   5.328  11.753 -0.6470  0.6714  0.0240
 8023TIP3    H245485   3.836   5.433  11.792  0.2198 -0.8699  2.0479
 8024TIP3   OH245486   1.198   2.856  12.953  0.1408 -0.0986  0.3648
 8024TIP3    H145487   1.160   2.908  12.882  1.0506  0.2478  0.1225
 8024TIP3    H245488   1.242   2.784  12.909 -0.7785 -0.8885  0.6817
 8025TIP3   OH245489   1.629   0.995   0.111 -0.6261 -0.1488  0.2717
 8025TIP3    H145490   1.661   1.004   0.201 -0.9312 -0.5798  0.4295
 8025TIP3    H245491   1.563   0.926   0.116 -0.8768  0.0470 -0.2268
 8026TIP3   OH245492   3.601   5.937   0.660  0.4237  0.1422 -0.0573
 8026TIP3    H145493   3.667   6.003   0.682 -0.8067  1.6710 -0.7699
 8026TIP3    H245494   3.566   5.910   0.745 -0.5668  2.0563  0.2133
 8027TIP3   OH245495   4.077   0.103   0.071 -0.7874  0.1543 -0.0068
 8027TIP3    H145496   4.052   0.011   0.077 -0.7730  0.1265 -0.3627
 8027TIP3    H245497   4.029   0.136  -0.004 -0.5460  0.3571 -0.0732
 8028TIP3   OH245498   6.773   4.338   4.326  0.2459  0.2365 -0.0035
 8028TIP3    H145499   6.838   4.389   4.277  2.0364 -0.8313  1.1540
 8028TIP3    H245500   6.703   4.401   4.345  0.6269  1.2720 -1.8122
 8029TIP3   OH245501   3.456   6.456   4.565 -1.1201  0.0408  0.0905
 8029TIP3    H145502   3.409   6.493   4.639 -1.1826  0.0699  0.0356
 8029TIP3    H245503   3.402   6.383   4.535 -0.4211 -0.8641  0.9520
 8030TIP3   OH245504   3.022   0.046   3.312 -0.2016  0.6564 -0.0971
 8030TIP3    H145505   3.114   0.051   3.286  0.3924 -0.2611  1.7228
 8030TIP3    H245506   2.993  -0.040   3.281 -0.4179  0.8787 -0.5250
 8031TIP3   OH245507   1.733   5.256   1.991  0.3685  0.2871 -0.0331
 8031TIP3    H145508   1.788   5.314   1.938 -3.2870  3.8439 -0.4917
 8031TIP3    H245509   1.712   5.184   1.933  1.2253  0.9991 -1.2853
 8032TIP3   OH245510   0.765   1.251  15.654  0.0246 -0.0275  0.0073
 8032TIP3    H145511   0.671   1.253  15.673  0.0123  1.0765 -0.1069
 8032TIP3    H245512   0.772   1.283  15.564  0.6363  1.6040  0.6071
 8033TIP3   OH245513   1.515   0.403   2.403 -0.0108 -0.6409  0.4611
 8033TIP3    H145514   1.578   0.355   2.457  0.9852 -1.6065 -1.4387
 8033TIP3    H245515   1.465   0.455   2.465  1.3081 -1.3959  2.2584
 8034TIP3   OH245516   5.464   3.133   4.233  0.4839 -0.2118 -0.3387
 8034TIP3    H145517   5.500   3.179   4.309 -0.8845  0.0148  0.2061
 8034TIP3    H245518   5.521   3.058   4.221  3.1250  1.8325 -1.5676
 8035TIP3   OH245519   5.959   2.293  13.576 -0.3553 -0.8778  0.0589
 8035TIP3    H145520   5.959   2.334  13.663  0.2406 -2.5876  0.9101
 8035TIP3    H245521   6.002   2.357  13.519  1.5136 -0.6873  1.5614
 8036TIP3   OH245522   2.086   0.496  16.372 -0.4600  0.1519  0.4390
 8036TIP3    H145523   2.111   0.562  16.437  0.6749  0.0648  0.1084
 8036TIP3    H245524   2.126   0.415  16.403 -0.0814  0.0682 -0.2654
 8037TIP3   OH245525   1.940   4.207   4.259 -0.2923  0.5975  0.6236
 8037TIP3    H145526   2.017   4.152   4.245 -0.3996  0.8933 -1.6049
 8037TIP3    H245527   1.975   4.291   4.288  0.2715  0.7711 -0.4958
 8038TIP3   OH245528   3.143   4.274   1.046  0.2378 -0.2735  0.4046
 8038TIP3    H145529   3.128   4.213   1.118 -0.2748  1.5803  1.9618
 8038TIP3    H245530   3.101   4.233   0.971 -0.1859 -1.7671  1.4133
 8039TIP3   OH245531   1.883   1.562   5.720  0.1364 -0.3350  0.0455
 8039TIP3    H145532   1.923   1.485   5.678 -1.5400 -0.0043 -2.3236
 8039TIP3    H245533   1.954   1.627   5.722  0.3770 -0.4265 -2.2114
 8040TIP3   OH245534   2.201   3.775  16.818  0.4165 -0.1013  0.1340
 8040TIP3    H145535   2.183   3.865  16.846 -2.2270 -0.8346  1.0121
 8040TIP3    H245536   2.138   3.759  16.748 -0.9976 -2.0688  1.7514
 8041TIP3   OH245537   5.327   3.695   5.537  0.1964 -0.3557  0.1475
 8041TIP3    H145538   5.351   3.778   5.495  0.6044 -0.4271  0.2397
 8041TIP3    H245539   5.273   3.721   5.612 -0.2335 -0.2105 -0.2048
 8042TIP3   OH245540   0.633   1.772  16.526 -0.6186  0.5383  0.2348
 8042TIP3    H145541   0.560   1.833  16.531 -0.2144  0.9818  0.9685
 8042TIP3    H245542   0.706   1.819  16.566  0.1085  0.1497 -0.5977
 8043TIP3   OH245543   3.856   6.758   2.311 -0.1205  0.0312  0.2451
 8043TIP3    H145544   3.876   6.846   2.280  0.0916 -0.1527 -0.1476
 8043TIP3    H245545   3.761   6.754   2.314 -0.2030 -0.3307 -1.5431
 8044TIP3   OH245546   0.209   0.331  13.442 -0.3501  0.1350  0.4318
 8044TIP3    H145547   0.198   0.298  13.353  0.0242 -0.8379  0.7370
 8044TIP3    H245548   0.175   0.421  13.438 -0.9643 -0.1225 -0.5205
 8045TIP3   OH245549   4.376   5.158  15.182 -0.4959 -0.4412 -0.6628
 8045TIP3    H145550   4.396   5.165  15.275 -1.3839  0.3672 -0.5105
 8045TIP3    H245551   4.347   5.246  15.157 -0.4748 -0.7023 -1.6503
 8046TIP3   OH245552   4.464   2.729  15.461  0.8211  0.3057 -0.0403
 8046TIP3    H145553   4.477   2.794  15.529  1.4674  1.9401 -1.6638
 8046TIP3    H245554   4.370   2.733  15.442  0.5619 -0.4401  0.9701
 8047TIP3   OH245555   3.302   6.375  14.852 -0.5680 -0.5981 -0.9450
 8047TIP3    H145556   3.286   6.356  14.760  2.6136  0.2741 -1.8207
 8047TIP3    H245557   3.370   6.443  14.851  3.0664 -3.7262  1.9173
 8048TIP3   OH245558   0.570   4.278   0.616 -0.2064  0.3223 -0.1779
 8048TIP3    H145559   0.630   4.215   0.654 -1.6230 -2.8300 -2.7166
 8048TIP3    H245560   0.505   4.293   0.684  0.2908 -0.7870  0.5725
 8049TIP3   OH245561   1.176   5.695  11.320  0.7501  0.1196 -0.0317
 8049TIP3    H145562   1.082   5.714  11.321  1.1519  2.3538  0.1126
 8049TIP3    H245563   1.183   5.609  11.361 -1.1421  0.4288  1.0663
 8050TIP3   OH245564   4.410   4.496   4.580  0.5209 -0.1341 -0.2102
 8050TIP3    H145565   4.456   4.417   4.609  1.1804  0.5573  0.6956
 8050TIP3    H245566   4.471   4.568   4.600 -0.3495  0.6692 -0.3759
 8051TIP3   OH245567   6.063   1.543   6.515 -0.4253 -0.0504  0.4985
 8051TIP3    H145568   6.096   1.622   6.556  0.6346 -0.3714  0.2874
 8051TIP3    H245569   6.022   1.493   6.586 -0.0816  0.1590  0.8427
 8052TIP3   OH245570   5.676   6.675   3.145  0.4907 -0.0952  0.3699
 8052TIP3    H145571   5.765   6.642   3.135  0.1483 -0.9708  0.0733
 8052TIP3    H245572   5.620   6.600   3.125 -0.3203  0.5387  0.1818
 8053TIP3   OH245573   4.162   3.604   1.106  0.1703  0.3005 -0.6091
 8053TIP3    H145574   4.187   3.623   1.197  1.1989 -0.4100 -0.7198
 8053TIP3    H245575   4.122   3.684   1.074 -1.2519  0.2073  0.8206
 8054TIP3   OH245576   0.147   2.542   4.350  0.0640 -0.0953 -0.5779
 8054TIP3    H145577   0.140   2.471   4.413 -1.3794 -0.9685 -1.6728
 8054TIP3    H245578   0.211   2.512   4.286 -0.4682 -0.3778 -0.9832
 8055TIP3   OH245579   2.140   4.470   4.877 -0.5195 -0.4881  0.1900
 8055TIP3    H145580   2.123   4.564   4.866  0.4220 -0.2562  0.5756
 8055TIP3    H245581   2.078   4.427   4.818 -0.7588  0.3906 -0.2172
 8056TIP3   OH245582   0.639   3.160  12.108 -0.2870 -0.1520  0.6483
 8056TIP3    H145583   0.598   3.130  12.028  0.1007  1.5610 -0.2484
 8056TIP3    H245584   0.733   3.150  12.092 -0.2390 -1.8627  1.7770
 8057TIP3   OH245585   1.702   4.016  13.358 -0.2823  0.1567  0.2810
 8057TIP3    H145586   1.676   4.058  13.276 -0.1651 -1.4696 -0.6339
 8057TIP3    H245587   1.783   3.970  13.336  0.9673  1.4472  1.9024
 8058TIP3   OH245588   5.716   4.955   3.910 -0.2106 -0.0894  0.6211
 8058TIP3    H145589   5.771   4.980   3.835 -1.5939  2.0968  0.2454
 8058TIP3    H245590   5.725   5.028   3.971 -2.6288  0.3596  0.5326
 8059TIP3   OH245591   4.830   6.698  12.873 -0.5688 -0.3217  0.2117
 8059TIP3    H145592   4.891   6.628  12.851 -1.5606 -0.9527 -0.6230
 8059TIP3    H245593   4.758   6.653  12.917 -0.4719  0.4067  1.1415
 8060TIP3   OH245594   0.176   5.099  16.994 -0.2106 -0.0937  0.1382
 8060TIP3    H145595   0.149   5.152  17.069 -0.2658 -1.3243  1.0165
 8060TIP3    H245596   0.254   5.143  16.961  0.0871  0.2183  1.2115
 8061TIP3   OH245597   5.014   5.041  16.477 -0.6983  0.2182 -0.5307
 8061TIP3    H145598   4.975   4.978  16.539 -0.0282  0.6765  0.3717
 8061TIP3    H245599   5.051   5.109  16.532  0.5126  0.3002 -1.4155
 8062TIP3   OH245600   6.617   2.593  12.802  0.6307  0.2824  0.2402
 8062TIP3    H145601   6.570   2.573  12.883  1.9746 -0.3928  0.8904
 8062TIP3    H245602   6.549   2.619  12.741 -0.4289  0.7886  1.5773
 8063TIP3   OH245603   6.318   0.211  15.621  0.3213 -0.3391 -0.2490
 8063TIP3    H145604   6.264   0.132  15.626  0.6811 -0.6417 -1.0139
 8063TIP3    H245605   6.255   0.283  15.623 -0.0199 -0.6398  0.2873
 8064TIP3   OH245606   1.019   3.087   4.948  0.0690  0.4611  0.2888
 8064TIP3    H145607   1.086   3.156   4.953  1.0971 -0.5631  1.3293
 8064TIP3    H245608   1.065   3.007   4.975 -0.5543 -1.0433 -2.6367
 8065TIP3   OH245609   2.377   6.090  11.451  0.8790  0.2464  0.5357
 8065TIP3    H145610   2.326   6.015  11.482 -0.2209  0.8977  0.3506
 8065TIP3    H245611   2.377   6.080  11.355  1.0141  0.2929  0.5315
 8066TIP3   OH245612   6.537   3.423   1.076  0.0594 -0.5712  0.0414
 8066TIP3    H145613   6.523   3.404   1.169 -0.0736 -0.7535 -0.0147
 8066TIP3    H245614   6.591   3.502   1.075 -1.2418  0.3592  0.2645
 8067TIP3   OH245615   1.175   3.790   1.198  1.0378  0.3710  0.2801
 8067TIP3    H145616   1.092   3.751   1.227  0.2016  2.3473  0.7313
 8067TIP3    H245617   1.205   3.733   1.127 -0.7818 -0.3279  0.0199
 8068TIP3   OH245618   6.456   3.158   3.748 -0.1135  0.5318 -0.1454
 8068TIP3    H145619   6.471   3.236   3.801 -1.4964  0.9234 -0.2854
 8068TIP3    H245620   6.361   3.158   3.731  0.1378 -0.1143 -1.7837
 8069TIP3   OH245621   0.310   1.689   2.487 -0.2873 -0.0456  0.2279
 8069TIP3    H145622   0.226   1.731   2.508 -0.5342  0.1871 -1.1811
 8069TIP3    H245623   0.285   1.606   2.447  0.1802 -0.4200  0.7037
 8070TIP3   OH245624   6.741   0.581   4.579  0.6882 -0.2729 -0.1609
 8070TIP3    H145625   6.795   0.521   4.528 -0.8526 -0.5208 -1.5751
 8070TIP3    H245626   6.670   0.605   4.520 -0.7901 -0.0074  1.6511
 8071TIP3   OH245627   6.489   1.897   4.131  0.6742  0.0974  0.4786
 8071TIP3    H145628   6.512   1.852   4.212 -0.8201 -2.8111 -0.5480
 8071TIP3    H245629   6.553   1.866   4.067  1.0475  1.3479  0.2122
 8072TIP3   OH245630   4.869   1.620  10.837 -0.4652  0.3094  0.3359
 8072TIP3    H145631   4.928   1.685  10.798 -0.6833  0.2172 -0.1592
 8072TIP3    H245632   4.797   1.613  10.774 -0.5044 -0.3166  0.4499
 8073TIP3   OH245633   3.840   5.149   3.184  0.0767  0.6802 -0.0160
 8073TIP3    H145634   3.823   5.211   3.255 -0.9246  0.9264 -0.4623
 8073TIP3    H245635   3.754   5.128   3.149  0.3901 -1.0169  0.1539
 8074TIP3   OH245636   5.262   0.969  15.499  0.0111 -0.2311  0.3330
 8074TIP3    H145637   5.206   0.938  15.427 -0.6825 -0.6077  1.0285
 8074TIP3    H245638   5.202   1.008  15.562  0.6323  0.2099  0.6602
 8075TIP3   OH245639   1.564   5.287  11.914  0.1742 -0.0111 -0.5392
 8075TIP3    H145640   1.590   5.376  11.887  0.9191 -0.2493 -0.6168
 8075TIP3    H245641   1.481   5.273  11.868 -0.6679  1.1607  0.5486
 8076TIP3   OH245642   5.322   4.102   4.381 -0.1513 -0.8600  0.2299
 8076TIP3    H145643   5.418   4.099   4.379 -0.1651 -2.0235  0.6640
 8076TIP3    H245644   5.296   4.069   4.295 -0.1697  0.4878 -0.3063
 8077TIP3   OH245645   5.727   0.076   3.608 -0.6232  0.1801 -0.2035
 8077TIP3    H145646   5.671   0.110   3.539  0.0768  1.3206 -0.2325
 8077TIP3    H245647   5.674   0.009   3.651 -1.1597 -0.3715 -1.6652
 8078TIP3   OH245648   5.930   3.874  11.272 -0.0145 -0.7867 -0.0597
 8078TIP3    H145649   6.019   3.850  11.247 -0.8230 -0.7502 -3.4270
 8078TIP3    H245650   5.880   3.794  11.260 -0.7756 -0.2946 -0.2142
 8079TIP3   OH245651   3.442   4.617   4.328 -0.3429 -0.4713 -0.3368
 8079TIP3    H145652   3.458   4.616   4.422 -1.2227 -1.9549 -0.1606
 8079TIP3    H245653   3.441   4.710   4.304  1.0297 -0.1056  0.8882
 8080TIP3   OH245654   6.160   5.691   2.249  0.4396  0.3076 -0.2928
 8080TIP3    H145655   6.179   5.785   2.250  0.7078  0.2473  0.3260
 8080TIP3    H245656   6.156   5.669   2.156 -0.6835  1.1448 -0.4695
 8081TIP3   OH245657   1.413   4.329  14.698  0.3989 -0.0277  0.1518
 8081TIP3    H145658   1.389   4.356  14.787 -1.1245 -1.1191  0.1069
 8081TIP3    H245659   1.471   4.399  14.667 -0.0277  0.9926  1.5515
 8082TIP3   OH245660   0.858   5.192   4.062 -0.6034 -0.2374  0.2441
 8082TIP3    H145661   0.885   5.104   4.036  0.4836 -0.1860  1.1309
 8082TIP3    H245662   0.931   5.248   4.037 -1.9936  0.7680 -1.9836
 8083TIP3   OH245663   1.864   6.064  15.807  0.0952 -0.1736 -0.2969
 8083TIP3    H145664   1.903   5.977  15.798 -0.7876 -0.4765 -1.4570
 8083TIP3    H245665   1.931   6.117  15.850 -0.0281 -1.8874  2.2251
 8084TIP3   OH245666   2.802   4.217   4.346  0.0887 -0.5868  0.2691
 8084TIP3    H145667   2.783   4.149   4.283  3.1437 -0.7489 -0.6553
 8084TIP3    H245668   2.781   4.299   4.301  1.2562 -0.7515 -0.6306
 8085TIP3   OH245669   0.934   6.037   4.102  0.3620 -0.4284 -0.7086
 8085TIP3    H145670   0.875   6.017   4.174 -0.1804  1.3828 -0.5933
 8085TIP3    H245671   1.001   6.094   4.141  0.7795 -0.4514 -1.3734
 8086TIP3   OH245672   1.809   4.575   6.010 -0.2970 -0.2735 -0.0101
 8086TIP3    H145673   1.801   4.480   6.004 -0.6501 -0.3482  1.3207
 8086TIP3    H245674   1.899   4.590   6.039 -0.1759 -0.1734 -0.4186
 8087TIP3   OH245675   2.962   0.491  12.422  0.5250  0.2574 -0.1229
 8087TIP3    H145676   2.899   0.441  12.370 -0.7416  1.9407 -0.3080
 8087TIP3    H245677   2.919   0.503  12.506  0.1556  2.1308 -0.5175
 8088TIP3   OH245678   3.127   0.523   2.759  0.1539  0.2713  0.1185
 8088TIP3    H145679   3.095   0.510   2.670 -0.3922  0.2419  0.3158
 8088TIP3    H245680   3.180   0.602   2.754 -0.9900  1.0544  0.0459
 8089TIP3   OH245681   5.812   4.513   2.097 -0.2020 -0.1843  0.1351
 8089TIP3    H145682   5.757   4.590   2.083  1.6932  0.9188 -2.0068
 8089TIP3    H245683   5.765   4.442   2.054 -0.6438  0.4105 -0.3868
 8090TIP3   OH245684   1.679   1.647   5.142  0.4896 -0.9136  0.4313
 8090TIP3    H145685   1.771   1.672   5.151  0.4447 -0.4027 -0.4360
 8090TIP3    H245686   1.676   1.597   5.060 -0.7058  2.9046 -2.1389
 8091TIP3   OH245687   6.763   1.754  14.419 -0.2594  0.3713 -0.1413
 8091TIP3    H145688   6.720   1.839  14.405 -2.5636 -0.2816  2.0972
 8091TIP3    H245689   6.693   1.690  14.410  1.4139 -1.3388 -1.6436
 8092TIP3   OH245690   5.323   4.940   2.313 -0.0493 -0.3794 -0.2045
 8092TIP3    H145691   5.418   4.938   2.307 -0.0698 -0.4120 -0.5477
 8092TIP3    H245692   5.294   4.967   2.226 -0.3618 -0.5794 -0.1628
 8093TIP3   OH245693   3.359   1.801  13.981  0.1107  0.2445  0.4400
 8093TIP3    H145694   3.350   1.714  13.942  1.2425  0.6710 -0.8969
 8093TIP3    H245695   3.423   1.845  13.924 -0.5101  1.9739  1.0237
 8094TIP3   OH245696   5.102   4.347   1.080 -0.0149  0.2445 -0.1726
 8094TIP3    H145697   5.034   4.280   1.090 -0.3419  0.8692  2.5855
 8094TIP3    H245698   5.176   4.300   1.041 -0.9588 -1.1872 -0.3219
 8095TIP3   OH245699   2.668   5.001   3.125 -0.4326 -0.4357 -0.3012
 8095TIP3    H145700   2.602   4.941   3.160 -0.9443  1.1362  1.6026
 8095TIP3    H245701   2.630   5.088   3.136  1.3498  0.4182 -0.5783
 8096TIP3   OH245702   6.325   0.548   5.498  0.1229 -0.6153 -0.0177
 8096TIP3    H145703   6.313   0.608   5.571 -2.2173  1.2904 -1.7893
 8096TIP3    H245704   6.381   0.596   5.437 -0.9309 -0.6125 -1.0160
 8097TIP3   OH245705   3.376   2.415  11.487  0.3732 -0.1205  0.1845
 8097TIP3    H145706   3.445   2.365  11.530 -0.0088  0.0176  0.9695
 8097TIP3    H245707   3.383   2.503  11.525 -1.8007 -0.7101  2.1314
 8098TIP3   OH245708   4.608   6.695  13.737 -0.5183  0.1043 -0.1001
 8098TIP3    H145709   4.534   6.640  13.762 -1.1361  0.3640 -1.2656
 8098TIP3    H245710   4.654   6.644  13.670  0.8839 -0.4272  1.2278
 8099TIP3   OH245711   4.926   4.929  11.155 -0.5804  0.1495 -0.0564
 8099TIP3    H145712   5.015   4.926  11.190 -0.5426  0.6402 -0.1090
 8099TIP3    H245713   4.925   4.863  11.085 -0.2641  0.1391 -0.0515
 8100TIP3   OH245714   3.346   4.538   0.735 -0.2340 -0.3282  0.5561
 8100TIP3    H145715   3.258   4.548   0.697  0.1941 -1.0536 -0.6902
 8100TIP3    H245716   3.400   4.508   0.662  0.8386 -0.8625  1.5429
 8101TIP3   OH245717   6.512   0.072   0.869 -0.0313 -0.6821 -0.1173
 8101TIP3    H145718   6.568   0.101   0.941  0.6636 -2.3638  0.0865
 8101TIP3    H245719   6.423   0.082   0.902  0.2691 -1.1698  0.8946
 8102TIP3   OH245720   3.860   5.709   0.915 -0.1983  0.1333  0.7220
 8102TIP3    H145721   3.895   5.778   0.971 -0.0919  0.5795  0.1101
 8102TIP3    H245722   3.779   5.681   0.959  0.3824 -0.1993  1.5999
 8103TIP3   OH245723   2.997   0.842   0.234  0.3453  0.5017 -0.0569
 8103TIP3    H145724   2.940   0.806   0.166  1.5452 -0.1287 -0.7836
 8103TIP3    H245725   3.073   0.784   0.234  0.8975  1.1883  1.0161
 8104TIP3   OH245726   2.873   4.769   4.475  0.0355 -0.2226  0.2234
 8104TIP3    H145727   2.827   4.771   4.558 -0.9841  2.4693 -0.3022
 8104TIP3    H245728   2.890   4.676   4.459  0.4313 -0.8192  3.4582
 8105TIP3   OH245729   0.925   1.573  11.842 -0.0359 -0.2975  0.1656
 8105TIP3    H145730   0.954   1.494  11.889  0.2785 -0.2308  0.0829
 8105TIP3    H245731   0.946   1.645  11.902  1.1121 -0.1352 -0.4024
 8106TIP3   OH245732   5.914   3.110  14.076 -0.5227 -0.0570 -1.0728
 8106TIP3    H145733   5.914   3.186  14.018  1.3543  0.6946 -0.1527
 8106TIP3    H245734   6.002   3.106  14.112 -1.0957 -1.5972  0.3224
 8107TIP3   OH245735   4.602   3.691  11.795  0.3603 -0.5410  0.2708
 8107TIP3    H145736   4.514   3.674  11.762 -0.6616  2.3030  1.2285
 8107TIP3    H245737   4.625   3.613  11.844 -1.1477 -1.7834 -0.9009
 8108TIP3   OH245738   5.895   3.643   4.496 -0.1983 -0.1797  0.1962
 8108TIP3    H145739   5.980   3.612   4.528  0.6324 -0.9305 -2.4932
 8108TIP3    H245740   5.911   3.734   4.468 -0.5828  0.0542  0.7226
 8109TIP3   OH245741   1.231   5.223  16.776 -0.5232 -0.1411  0.6321
 8109TIP3    H145742   1.319   5.225  16.737 -2.1216 -0.8309 -3.5890
 8109TIP3    H245743   1.199   5.313  16.767 -0.7477 -0.1955  0.8750
 8110TIP3   OH245744   3.386   4.291   4.591  0.5361 -0.5409 -0.1713
 8110TIP3    H145745   3.376   4.386   4.581 -2.0059 -0.8323 -0.9283
 8110TIP3    H245746   3.471   4.281   4.636  1.0369  2.0412 -0.3793
 8111TIP3   OH245747   2.107   4.440   4.406 -0.2937 -0.2154 -0.2801
 8111TIP3    H145748   2.041   4.475   4.466  0.1480 -1.1631  0.7878
 8111TIP3    H245749   2.082   4.474   4.320 -1.7863 -0.0342  0.2100
 8112TIP3   OH245750   5.826   6.357   2.985  0.2932 -0.7116  0.2372
 8112TIP3    H145751   5.743   6.400   2.965  0.2496 -1.0232 -0.2900
 8112TIP3    H245752   5.864   6.337   2.899  1.3790  0.2882  0.4577
 8113TIP3   OH245753   5.210   3.925   2.941 -0.7512  0.2624 -1.1507
 8113TIP3    H145754   5.239   3.852   2.886  0.4269  0.8016 -1.2780
 8113TIP3    H245755   5.273   3.927   3.014 -0.7849  1.1259 -1.1313
 8114TIP3   OH245756   4.557   3.391   2.411  0.0730 -0.3609 -0.0158
 8114TIP3    H145757   4.591   3.318   2.462 -0.6610 -0.0232  0.9958
 8114TIP3    H245758   4.617   3.399   2.337  0.9823 -1.0737  0.6269
 8115TIP3   OH245759   6.729   0.082   1.026 -0.2272 -0.0204 -0.4915
 8115TIP3    H145760   6.813   0.124   1.008 -0.8327  1.4832  0.0066
 8115TIP3    H245761   6.748   0.021   1.097  1.0453 -2.0298 -2.4245
 8116TIP3   OH245762   1.764   1.858   1.836 -0.3151  0.0534 -0.4623
 8116TIP3    H145763   1.824   1.813   1.777 -0.8571  1.3195 -2.0715
 8116TIP3    H245764   1.731   1.790   1.894  2.5084 -0.7170  0.4021
 8117TIP3   OH245765   1.661   5.474  14.952 -0.2831  0.2313  0.6494
 8117TIP3    H145766   1.619   5.422  14.884 -1.0224 -1.3626  2.2487
 8117TIP3    H245767   1.747   5.433  14.963  0.7299  1.8625 -0.8043
 8118TIP3   OH245768   3.452   6.382  17.153 -0.2886 -0.5115  0.1226
 8118TIP3    H145769   3.386   6.341  17.098 -1.0141 -0.5489  1.0047
 8118TIP3    H245770   3.454   6.328  17.232 -1.3340  1.1687  1.3511
 8119TIP3   OH245771   2.065   0.182  15.733  0.0312  0.4366 -0.3316
 8119TIP3    H145772   2.117   0.152  15.659  0.7624  1.6577 -0.3508
 8119TIP3    H245773   2.101   0.136  15.809 -1.0125 -1.1503 -0.7632
 8120TIP3   OH245774   0.951   4.674  16.531 -0.4264 -0.3645  0.4608
 8120TIP3    H145775   1.000   4.721  16.599 -0.9302  0.6236  0.1595
 8120TIP3    H245776   1.018   4.637  16.474  0.0037 -1.1959  1.4813
 8121TIP3   OH245777   4.537   6.002   6.446  0.8871  0.2093 -0.3417
 8121TIP3    H145778   4.617   5.951   6.456  0.3746 -1.3506 -3.2554
 8121TIP3    H245779   4.563   6.080   6.397  0.5875 -0.6634 -1.9673
 8122TIP3   OH245780   0.319   3.430   1.124 -0.4238  0.0310  0.8130
 8122TIP3    H145781   0.340   3.504   1.067  0.0773 -0.7912 -0.1006
 8122TIP3    H245782   0.336   3.462   1.212  2.0059  0.3121  0.3097
 8123TIP3   OH245783   2.039   3.445   3.755  0.7146 -0.5221 -0.1767
 8123TIP3    H145784   2.053   3.424   3.847 -0.6128  1.4427  0.5378
 8123TIP3    H245785   1.964   3.504   3.755  0.6234 -0.5433 -2.5451
 8124TIP3   OH245786   5.931   3.703   3.838  0.4414  0.1191 -0.4218
 8124TIP3    H145787   5.899   3.695   3.748 -0.5145 -1.2251  0.0089
 8124TIP3    H245788   6.024   3.680   3.832  0.0021 -1.7610 -0.8422
 8125TIP3   OH245789   6.655   6.567  13.425 -0.4557 -1.1239  0.0785
 8125TIP3    H145790   6.574   6.530  13.391  0.0269  0.4816 -3.2462
 8125TIP3    H245791   6.723   6.505  13.397 -0.1691 -0.3625 -0.9878
 8126TIP3   OH245792   2.847   5.532  11.391 -0.0575  0.0825 -0.1912
 8126TIP3    H145793   2.864   5.578  11.309 -1.9256  0.3746 -0.4598
 8126TIP3    H245794   2.773   5.474  11.371 -1.2587  0.9229  1.5202
 8127TIP3   OH245795   1.056   6.369  15.984  0.1233  0.0522 -0.5868
 8127TIP3    H145796   1.006   6.394  15.906  1.4112 -1.7252 -2.0693
 8127TIP3    H245797   1.135   6.327  15.949  0.6096 -1.0557  1.6918
 8128TIP3   OH245798   0.355   0.516  16.185  0.3306 -0.1037 -0.3849
 8128TIP3    H145799   0.440   0.541  16.222  0.5114 -0.7173 -0.3645
 8128TIP3    H245800   0.358   0.544  16.094  0.4218  0.1844 -0.2913
 8129TIP3   OH245801   2.421   5.571  12.489  0.1303  0.0354 -0.0093
 8129TIP3    H145802   2.490   5.575  12.423 -1.5153 -0.6888 -1.8575
 8129TIP3    H245803   2.396   5.663  12.502  1.1804  0.2722  0.4209
 8130TIP3   OH245804   6.281   4.679  13.453 -0.9823 -0.0918  0.7933
 8130TIP3    H145805   6.266   4.722  13.537  2.1085  3.2692 -0.1256
 8130TIP3    H245806   6.364   4.633  13.464 -1.1029 -0.5488 -0.1149
 8131TIP3   OH245807   6.694   2.297  13.038 -0.0053  0.4278 -0.2320
 8131TIP3    H145808   6.770   2.247  13.066 -0.4715  0.5355  1.3332
 8131TIP3    H245809   6.692   2.287  12.943 -0.7026 -3.4207  0.0290
 8132TIP3   OH245810   6.242   3.520  14.927 -0.1128  0.2557 -0.4689
 8132TIP3    H145811   6.314   3.574  14.893  0.4485  0.9440  1.6949
 8132TIP3    H245812   6.189   3.581  14.978  0.9106 -1.2323  2.6349
 8133TIP3   OH245813   4.488   1.226   3.819 -0.8773  0.1673  0.1340
 8133TIP3    H145814   4.520   1.213   3.908  2.0761 -0.1738 -0.8450
 8133TIP3    H245815   4.476   1.321   3.812 -0.1564  0.3025  0.6122
 8134TIP3   OH245816   3.245   1.587   0.321  0.1925  0.3805  0.1843
 8134TIP3    H145817   3.248   1.659   0.385 -0.0958  0.5926 -0.0360
 8134TIP3    H245818   3.324   1.597   0.269 -1.1155  2.1908 -1.6066
 8135TIP3   OH245819   0.248   5.743   0.205 -0.5522 -0.5466 -0.3719
 8135TIP3    H145820   0.318   5.680   0.193 -0.9201 -1.0713  0.1455
 8135TIP3    H245821   0.292   5.824   0.232 -0.1348 -0.8129 -0.2524
 8136TIP3   OH245822   2.501   1.269   5.072  0.2672 -0.1017 -0.1674
 8136TIP3    H145823   2.434   1.331   5.101 -0.9671 -1.5607  0.3038
 8136TIP3    H245824   2.554   1.252   5.150  0.0216 -0.3060 -0.0392
 8137TIP3   OH245825   3.677   4.780  17.128 -0.0236  0.5455  0.9188
 8137TIP3    H145826   3.656   4.734  17.209  1.4867  1.0040  1.5946
 8137TIP3    H245827   3.651   4.871  17.144 -0.5400  0.4685  0.5533
 8138TIP3   OH245828   6.392   2.259  16.093  0.4311  0.0039  0.6725
 8138TIP3    H145829   6.459   2.197  16.121  1.2605  0.8098  0.5223
 8138TIP3    H245830   6.404   2.335  16.151  1.0984  1.0316 -0.7663
 8139TIP3   OH245831   4.549   6.577  14.557 -0.1747  0.1622 -0.1389
 8139TIP3    H145832   4.597   6.495  14.557 -2.8389 -1.5189  0.1965
 8139TIP3    H245833   4.479   6.564  14.621  0.8858  3.7635  2.0729
 8140TIP3   OH245834   1.839   0.656   3.642  0.1611  0.3241 -0.3812
 8140TIP3    H145835   1.866   0.716   3.712 -0.8340 -0.1548  0.4553
 8140TIP3    H245836   1.786   0.590   3.687 -0.1293 -0.2522 -1.5304
 8141TIP3   OH245837   6.253   2.815  11.442  0.3370  0.1732 -0.5774
 8141TIP3    H145838   6.326   2.876  11.449 -0.2224  1.1392 -2.4708
 8141TIP3    H245839   6.257   2.763  11.522  3.7287 -0.5270 -1.0333
 8142TIP3   OH245840   1.232   6.768   4.739 -0.2259  0.0518  0.2579
 8142TIP3    H145841   1.327   6.777   4.746 -0.0071 -2.6216  2.3028
 8142TIP3    H245842   1.197   6.844   4.785  0.9682 -0.0537  1.3886
 8143TIP3   OH245843   5.996   4.766  12.980  0.4649  0.2626  0.5134
 8143TIP3    H145844   6.070   4.726  12.936 -0.6187 -1.0507 -0.2100
 8143TIP3    H245845   6.022   4.769  13.073  0.8998 -1.4736  0.4877
 8144TIP3   OH245846   1.823   0.978  15.350  0.2427  0.1083 -0.0493
 8144TIP3    H145847   1.783   1.064  15.365  2.7053  1.2816  0.1528
 8144TIP3    H245848   1.750   0.923  15.320 -1.3071  2.3827 -0.6994
 8145TIP3   OH245849   4.746   2.199  12.999 -0.0952  0.1319 -0.3557
 8145TIP3    H145850   4.725   2.107  13.013 -1.0391  0.3880 -0.0341
 8145TIP3    H245851   4.722   2.242  13.081  0.6164  0.6216 -0.3974
 8146TIP3   OH245852   0.131   4.798   4.818  0.1573  0.1456  0.2823
 8146TIP3    H145853   0.154   4.778   4.909 -1.2549 -0.3780  0.5547
 8146TIP3    H245854   0.086   4.719   4.787  1.6828 -0.1702 -1.2810
 8147TIP3   OH245855   4.693   2.236  16.051  0.0972 -0.2525  0.2699
 8147TIP3    H145856   4.763   2.173  16.066 -0.4637 -0.6581  1.3168
 8147TIP3    H245857   4.633   2.192  15.992  0.9485  0.2903 -1.0465
 8148TIP3   OH245858   0.376   5.320   5.177 -0.1990 -0.0358  0.3202
 8148TIP3    H145859   0.385   5.394   5.116  3.5257  1.0340  1.8482
 8148TIP3    H245860   0.409   5.245   5.128 -0.7376  0.0071 -0.1251
 8149TIP3   OH245861   6.167   3.847  13.029  0.2057 -0.3927 -0.0433
 8149TIP3    H145862   6.095   3.891  12.983 -1.1203 -1.9541  0.4389
 8149TIP3    H245863   6.201   3.913  13.089 -1.2082  0.2337  0.1137
 8150TIP3   OH245864   3.099   1.530   2.246 -0.1923 -0.3227  0.2624
 8150TIP3    H145865   3.154   1.609   2.242  0.3194 -0.7140 -0.4926
 8150TIP3    H245866   3.143   1.474   2.311  1.2976 -1.3585 -1.5524
 8151TIP3   OH245867   3.008   5.714  15.971  0.5638  0.0817  0.4347
 8151TIP3    H145868   3.077   5.691  16.033 -0.2305 -1.2125  0.8741
 8151TIP3    H245869   3.053   5.765  15.903  2.7190 -3.3718 -1.0268
 8152TIP3   OH245870   4.136   6.550   1.870 -0.0120  0.1440 -0.1948
 8152TIP3    H145871   4.147   6.536   1.964 -0.8780  1.6745  0.1606
 8152TIP3    H245872   4.042   6.545   1.856 -0.0658  1.7746 -0.6375
 8153TIP3   OH245873   2.058   4.499   1.275  0.4484  0.0295 -0.0165
 8153TIP3    H145874   2.010   4.548   1.208  0.1914  0.4791  0.4814
 8153TIP3    H245875   1.990   4.453   1.324  0.7836 -2.1353 -1.4451
 8154TIP3   OH245876   5.637   4.760   4.891 -0.1439  0.1242 -0.4759
 8154TIP3    H145877   5.676   4.787   4.974 -1.5758  0.8886 -0.0212
 8154TIP3    H245878   5.683   4.813   4.826 -1.4731  2.2457  0.2138
 8155TIP3   OH245879   0.701   5.605   5.153 -0.0777  0.0243  0.0934
 8155TIP3    H145880   0.606   5.620   5.158 -0.3141 -1.6964  2.4714
 8155TIP3    H245881   0.739   5.677   5.203 -0.0806  0.6740 -0.8004
 8156TIP3   OH245882   2.824   0.723   4.413  0.0289  0.1649  0.4722
 8156TIP3    H145883   2.829   0.701   4.321 -2.0717 -0.5408  0.4698
 8156TIP3    H245884   2.896   0.675   4.454 -0.1046 -0.9432 -0.5521
 8157TIP3   OH245885   5.989   2.985   3.171 -0.1108  0.0872 -0.2203
 8157TIP3    H145886   5.955   2.895   3.172 -0.4028  0.0931  2.8876
 8157TIP3    H245887   6.059   2.984   3.107  0.2716 -2.5498  0.1294
 8158TIP3   OH245888   3.957   4.385  16.633 -0.0060  0.0243  0.3213
 8158TIP3    H145889   4.016   4.453  16.664 -0.1068 -0.0571  0.6976
 8158TIP3    H245890   4.012   4.307  16.625  0.0297  0.0562  0.2589
 8159TIP3   OH245891   1.028   2.513   0.630 -0.2158 -0.2488  0.0199
 8159TIP3    H145892   0.953   2.465   0.666  1.4036 -1.2502  2.2446
 8159TIP3    H245893   1.105   2.470   0.667  1.5230  0.7233 -2.2109
 8160TIP3   OH245894   5.038   0.469   0.309 -0.3916 -0.0430  0.3129
 8160TIP3    H145895   5.004   0.465   0.398  0.7114 -0.0631  0.7456
 8160TIP3    H245896   5.114   0.411   0.309  0.7122  1.3561 -0.1400
 8161TIP3   OH245897   1.616   1.171  15.324 -0.2954 -0.2188 -1.0670
 8161TIP3    H145898   1.552   1.141  15.258 -1.4212  1.1892 -0.6813
 8161TIP3    H245899   1.628   1.264  15.304 -0.0440  0.0437  0.2175
 8162TIP3   OH245900   0.412   5.321   1.684 -0.1578  0.4713  0.5798
 8162TIP3    H145901   0.327   5.294   1.718  0.2563 -0.6333  0.8036
 8162TIP3    H245902   0.401   5.322   1.589  0.2240 -2.2359  0.4259
 8163TIP3   OH245903   5.501   5.635   2.420 -0.3256 -0.3643  0.5836
 8163TIP3    H145904   5.490   5.604   2.510 -1.7182 -0.3434  0.4503
 8163TIP3    H245905   5.453   5.717   2.416  0.5162  0.1188  0.0543
 8164TIP3   OH245906   0.220   0.045   6.391  0.1507 -0.8692 -0.2502
 8164TIP3    H145907   0.245  -0.037   6.347  1.3969 -1.1430  0.8959
 8164TIP3    H245908   0.285   0.056   6.461 -0.3306  0.8094 -0.0088
 8165TIP3   OH245909   6.777   0.333  16.122  0.5202  0.2777 -0.0129
 8165TIP3    H145910   6.741   0.417  16.093 -1.5258 -0.4895  0.1603
 8165TIP3    H245911   6.865   0.330  16.084  1.2358  3.1124  1.1575
 8166TIP3   OH245912   6.081   6.023   5.052  0.3146 -0.2715 -0.2947
 8166TIP3    H145913   5.999   5.978   5.028  0.3503 -0.3749 -0.2243
 8166TIP3    H245914   6.109   6.066   4.971  0.4836 -0.6947 -0.4672
 8167TIP3   OH245915   1.431   6.099  11.608  0.7277  0.0846  0.4054
 8167TIP3    H145916   1.489   6.051  11.667  0.6467 -0.6104 -0.0602
 8167TIP3    H245917   1.489   6.143  11.547  0.7813 -0.3167  0.1620
 8168TIP3   OH245918   6.535   0.829  15.081  0.4384  0.4511  0.0760
 8168TIP3    H145919   6.619   0.782  15.084  0.8524  1.1263 -0.5747
 8168TIP3    H245920   6.511   0.829  14.989  0.7430  2.0053 -0.0358
 8169TIP3   OH245921   5.506   1.584  14.086 -0.5964 -0.1228  0.2432
 8169TIP3    H145922   5.487   1.647  14.017 -1.3648  1.4221  1.8133
 8169TIP3    H245923   5.471   1.501  14.053  1.2493 -0.0253 -2.2616
 8170TIP3   OH245924   2.833   5.401  12.780 -0.0797  0.3057  0.3055
 8170TIP3    H145925   2.831   5.313  12.744  1.5518  0.2130  0.3700
 8170TIP3    H245926   2.801   5.391  12.869 -1.4654  0.0769 -0.1881
 8171TIP3   OH245927   3.331   5.246  13.953  0.2726  0.1353  0.4504
 8171TIP3    H145928   3.246   5.206  13.973  0.6084  0.0684  1.8678
 8171TIP3    H245929   3.388   5.172  13.933  0.4993 -0.0083  1.5444
 8172TIP3   OH245930   4.925   4.570  15.469 -0.4777 -0.1754 -0.0690
 8172TIP3    H145931   4.850   4.523  15.506 -0.6875 -1.2458 -1.7192
 8172TIP3    H245932   4.885   4.638  15.414 -0.2018  0.4267  0.4690
 8173TIP3   OH245933   6.677   3.229   3.096 -0.1729 -0.1566 -0.1286
 8173TIP3    H145934   6.618   3.275   3.155 -0.6880  0.2904 -0.9697
 8173TIP3    H245935   6.765   3.246   3.131 -0.1814  2.7807 -1.2242
 8174TIP3   OH245936   6.398   2.890   2.013  0.7651  0.5137 -0.3983
 8174TIP3    H145937   6.471   2.878   2.073 -0.3621 -1.3604  0.7220
 8174TIP3    H245938   6.432   2.866   1.927  1.5704  0.0123  0.0523
 8175TIP3   OH245939   6.670   5.877  17.003  0.3599  0.1171 -0.0151
 8175TIP3    H145940   6.688   5.890  16.910 -0.9990  1.5442 -0.1231
 8175TIP3    H245941   6.728   5.938  17.047 -0.3864  0.8892 -0.0684
 8176TIP3   OH245942   1.436   2.694  12.870 -0.3111 -0.0114 -0.8491
 8176TIP3    H145943   1.491   2.631  12.823  1.3230  0.8458 -0.1524
 8176TIP3    H245944   1.437   2.772  12.814  1.1248  0.7947  0.2447
 8177TIP3   OH245945   1.888   1.164   2.793  0.2881 -0.4674  0.5100
 8177TIP3    H145946   1.954   1.231   2.774 -1.1429  0.8624  0.0024
 8177TIP3    H245947   1.909   1.093   2.733  0.4649  0.5080 -0.6364
 8178TIP3   OH245948   2.933   0.247  16.148 -0.2846  0.4183 -0.2068
 8178TIP3    H145949   2.852   0.273  16.103 -0.7251 -1.6712 -0.7234
 8178TIP3    H245950   2.988   0.210  16.079  0.1359 -0.3564  0.5334
 8179TIP3   OH245951   2.324   0.448  15.038 -0.2799  0.1526 -0.1875
 8179TIP3    H145952   2.418   0.444  15.053 -0.2600  1.4373  0.1383
 8179TIP3    H245953   2.286   0.409  15.117 -0.0362 -3.4027 -1.6412
 8180TIP3   OH245954   6.495   3.463   1.836 -0.1650 -0.2284  0.1571
 8180TIP3    H145955   6.561   3.441   1.770 -0.1257 -0.7489  0.3637
 8180TIP3    H245956   6.459   3.547   1.808  0.7773  0.1959  0.1835
 8181TIP3   OH245957   4.427   5.095   3.122 -0.3355  0.2845  0.0434
 8181TIP3    H145958   4.506   5.129   3.162  0.6110 -0.9196 -0.7328
 8181TIP3    H245959   4.367   5.080   3.196  0.4155  0.5414  0.7165
 8182TIP3   OH245960   6.687   3.196  15.344  0.9015  0.1499  0.5259
 8182TIP3    H145961   6.707   3.181  15.436  1.2403 -1.2934  0.2454
 8182TIP3    H245962   6.766   3.236  15.309  0.8280  0.5622  0.8270
 8183TIP3   OH245963   5.873   0.972   1.598 -0.9747 -0.4512  0.2540
 8183TIP3    H145964   5.958   1.015   1.595 -1.4155  0.4064 -0.5382
 8183TIP3    H245965   5.857   0.957   1.691 -0.3552  0.1955  0.4743
 8184TIP3   OH245966   6.640   2.820   3.559  0.1892 -0.0514  0.3197
 8184TIP3    H145967   6.602   2.741   3.599 -1.3186  0.6838  0.4255
 8184TIP3    H245968   6.576   2.889   3.577  0.8032  0.9035 -0.9895
 8185TIP3   OH245969   2.992   1.262  14.135  0.3089  0.4284  0.1688
 8185TIP3    H145970   2.964   1.176  14.166 -0.9298 -0.0670 -2.0662
 8185TIP3    H245971   3.087   1.257  14.132  0.3032 -0.4604  1.1283
 8186TIP3   OH245972   2.684   5.619  12.366 -0.0875  0.1886  0.3577
 8186TIP3    H145973   2.745   5.626  12.440 -0.3500 -0.7219  0.6670
 8186TIP3    H245974   2.717   5.545  12.315 -1.0929 -0.5125  0.6906
 8187TIP3   OH245975   1.730   5.190  15.210  0.0225  0.3973  0.4548
 8187TIP3    H145976   1.671   5.176  15.284  0.5230 -0.3454  0.7337
 8187TIP3    H245977   1.744   5.102  15.174 -0.8292  0.8347 -1.0248
 8188TIP3   OH245978   1.106   5.465  16.811 -0.2392 -0.5646  0.4943
 8188TIP3    H145979   1.019   5.447  16.776 -0.7181 -1.4294  2.0433
 8188TIP3    H245980   1.090   5.497  16.899  1.0061 -0.2680  0.6315
 8189TIP3   OH245981   5.086   0.459  13.492  0.3324  0.7269 -0.5547
 8189TIP3    H145982   5.170   0.417  13.478  0.8942  2.1215 -1.7155
 8189TIP3    H245983   5.038   0.401  13.550  1.3425 -1.0843 -1.4639
 8190TIP3   OH245984   3.896   4.746  14.808  0.4388 -0.0541 -0.0013
 8190TIP3    H145985   3.865   4.774  14.722 -0.8382 -0.7192  0.2213
 8190TIP3    H245986   3.832   4.781  14.870  1.3634  0.4398  0.6935
 8191TIP3   OH245987   1.436   5.850   4.278 -0.0096  0.2944  0.1329
 8191TIP3    H145988   1.384   5.929   4.264 -0.5435  0.1262  1.0787
 8191TIP3    H245989   1.523   5.872   4.244 -0.1900  1.2341  0.2494
 8192TIP3   OH245990   5.714   1.991   5.609 -0.0537  0.0535  0.3603
 8192TIP3    H145991   5.680   1.909   5.574 -1.6099  0.1514  1.5338
 8192TIP3    H245992   5.637   2.043   5.629  0.8999  1.7594 -0.1884
 8193TIP3   OH245993   1.791   0.643   0.573  0.1415 -0.4550  0.1112
 8193TIP3    H145994   1.842   0.581   0.625  0.6626  0.2431  0.4566
 8193TIP3    H245995   1.734   0.686   0.636  2.0959  1.7406  0.5160
 8194TIP3   OH245996   1.416   2.708  11.377  0.3785 -0.5953  0.1084
 8194TIP3    H145997   1.354   2.725  11.306  0.5443  1.9507  0.5099
 8194TIP3    H245998   1.403   2.615  11.397 -0.6660 -1.0506 -2.2739
 8195TIP3   OH245999   1.853   3.600  12.234 -0.2562  0.1983 -0.4549
 8195TIP3    H146000   1.931   3.601  12.178 -0.5890  0.8933 -0.9214
 8195TIP3    H246001   1.780   3.587  12.173 -0.5241 -0.2761 -0.0397
 8196TIP3   OH246002   3.072   6.180   2.797 -0.2762  0.6899 -0.2211
 8196TIP3    H146003   3.056   6.178   2.702  0.6269  1.4440 -0.3997
 8196TIP3    H246004   3.166   6.165   2.805 -0.2729  1.1063  0.5360
 8197TIP3   OH246005   4.814   5.296   3.023 -0.4691  0.1271 -0.7921
 8197TIP3    H146006   4.904   5.292   3.057 -0.3254 -0.3303 -1.2227
 8197TIP3    H246007   4.771   5.361   3.079 -0.3869 -0.9917  0.6508
 8198TIP3   OH246008   2.597   2.285  12.792 -0.5884 -0.0231  0.8115
 8198TIP3    H146009   2.688   2.301  12.815 -0.3697 -0.2907  0.1546
 8198TIP3    H246010   2.600   2.253  12.702 -1.5056  2.1731 -0.0852
 8199TIP3   OH246011   4.728   2.497   4.448 -0.3248  0.6290 -0.0190
 8199TIP3    H146012   4.702   2.413   4.486 -0.6499  0.4562 -0.5957
 8199TIP3    H246013   4.671   2.561   4.490 -1.4844  0.2961 -1.0119
 8200TIP3   OH246014   0.038   0.574   1.399 -0.1329 -0.4591 -0.1280
 8200TIP3    H146015   0.074   0.589   1.486  0.4657 -3.1592  0.1715
 8200TIP3    H246016  -0.057   0.583   1.411  0.0132  0.2976  0.5331
 8201TIP3   OH246017   6.783   3.718  11.258  0.8365  0.7089  0.1078
 8201TIP3    H146018   6.747   3.763  11.181  0.9404  1.2264  0.3574
 8201TIP3    H246019   6.850   3.659  11.223  0.0649  0.0672 -0.3176
 8202TIP3   OH246020   1.367   2.131  15.795 -0.0589 -0.4434 -0.6521
 8202TIP3    H146021   1.276   2.151  15.819 -0.6400 -0.6783 -2.4433
 8202TIP3    H246022   1.388   2.052  15.843  0.1893  1.0448  1.8873
 8203TIP3   OH246023   2.359   1.781   2.016 -0.2399  0.0709 -0.3074
 8203TIP3    H146024   2.285   1.807   2.071 -0.5699 -0.3660 -0.5393
 8203TIP3    H246025   2.434   1.786   2.074 -0.6453 -0.8130  0.3239
 8204TIP3   OH246026   4.166   3.098   5.115  0.0702  0.1116 -0.6269
 8204TIP3    H146027   4.259   3.119   5.103 -0.3878  2.6643 -0.3369
 8204TIP3    H246028   4.123   3.137   5.038 -0.8196 -0.6427 -0.5291
 8205TIP3   OH246029   6.163   3.755  10.580 -0.1971  0.1830 -0.7065
 8205TIP3    H146030   6.193   3.802  10.502  0.0003  0.6256 -0.3729
 8205TIP3    H246031   6.166   3.821  10.650 -0.0030 -0.3055 -0.2475
 8206TIP3   OH246032   2.500   5.178  16.590  0.4982  0.1392 -0.0213
 8206TIP3    H146033   2.463   5.264  16.571  0.6212  0.1651 -0.1470
 8206TIP3    H246034   2.483   5.126  16.512  1.3892  0.3763 -0.3941
 8207TIP3   OH246035   0.507   0.442   5.353 -0.3880  0.0172  0.0062
 8207TIP3    H146036   0.519   0.416   5.445 -1.0999 -0.8234 -0.1298
 8207TIP3    H246037   0.575   0.393   5.306 -1.2500 -1.0559 -0.1525
 8208TIP3   OH246038   6.396   3.940  12.835 -0.3034  0.1054 -0.1016
 8208TIP3    H146039   6.410   3.894  12.918 -1.2049 -2.0703 -1.0924
 8208TIP3    H246040   6.484   3.961  12.805  0.0992 -0.2608  0.7707
 8209TIP3   OH246041   2.928   6.585  16.149  0.3597  0.1953  0.3363
 8209TIP3    H146042   3.006   6.639  16.164  0.2850  1.3507 -2.7390
 8209TIP3    H246043   2.924   6.574  16.054 -1.8490 -1.9933  0.5779
 8210TIP3   OH246044   1.704   6.782   3.121  0.3111  0.2972 -0.3552
 8210TIP3    H146045   1.719   6.845   3.191  2.6073  0.0051 -0.5260
 8210TIP3    H246046   1.662   6.707   3.164  0.8365  0.5088  0.5415
 8211TIP3   OH246047   1.753   0.595  11.361  0.1003  0.2373  0.3031
 8211TIP3    H146048   1.668   0.632  11.340 -0.2641 -0.0421  1.2203
 8211TIP3    H246049   1.757   0.597  11.457 -0.2128 -2.6356  0.4541
 8212TIP3   OH246050   2.108   2.900   2.054 -0.0230  0.2463  0.5859
 8212TIP3    H146051   2.163   2.856   2.119  0.4954  1.1670  0.7944
 8212TIP3    H246052   2.135   2.992   2.058  0.9115  0.1475 -1.7899
 8213TIP3   OH246053   5.557   2.092  15.866 -0.9046 -0.8985 -0.2502
 8213TIP3    H146054   5.580   2.183  15.882 -0.2562 -0.9274 -0.9612
 8213TIP3    H246055   5.559   2.050  15.952  1.1206 -0.7605 -0.1881
 8214TIP3   OH246056   2.499   3.255   0.514 -0.4202 -0.2572  0.4745
 8214TIP3    H146057   2.456   3.322   0.566  1.2044 -0.8079  2.6829
 8214TIP3    H246058   2.589   3.286   0.503 -0.6769 -0.1940 -2.0536
 8215TIP3   OH246059   2.405   4.324  11.336 -0.0508 -0.6164 -0.7058
 8215TIP3    H146060   2.401   4.265  11.412 -1.5796  0.1619 -0.1281
 8215TIP3    H246061   2.343   4.286  11.274  0.5654 -0.7804 -1.2308
 8216TIP3   OH246062   5.796   5.118  12.890  0.3448 -0.6400 -0.2797
 8216TIP3    H146063   5.874   5.148  12.935 -0.8931  1.6809  0.4970
 8216TIP3    H246064   5.774   5.035  12.933  1.5717 -0.6200  0.4350
 8217TIP3   OH246065   0.859   4.998  11.412 -0.6346  0.3753 -0.0386
 8217TIP3    H146066   0.892   4.909  11.411 -0.1387  0.5328 -1.7913
 8217TIP3    H246067   0.832   5.013  11.503  1.5007 -0.7195  0.8447
 8218TIP3   OH246068   0.308   5.718  13.559 -0.1080  0.8578 -0.0144
 8218TIP3    H146069   0.292   5.808  13.530 -0.6988  0.3941 -1.2050
 8218TIP3    H246070   0.374   5.684  13.498 -1.6573 -0.2644 -1.1465
 8219TIP3   OH246071   1.405   5.309  11.530  0.3081 -0.0526  0.6869
 8219TIP3    H146072   1.417   5.233  11.587  1.7379  0.6558  1.3691
 8219TIP3    H246073   1.455   5.288  11.451  2.9176  1.1834  1.8952
 8220TIP3   OH246074   4.242   5.266   3.597 -0.2226 -0.4740  0.1327
 8220TIP3    H146075   4.190   5.188   3.612 -1.0017 -0.8284 -3.3806
 8220TIP3    H246076   4.319   5.256   3.652 -0.4184 -3.6172 -0.0046
 8221TIP3   OH246077   3.029   5.742  11.180 -0.1883  0.1568  0.4369
 8221TIP3    H146078   2.997   5.739  11.089  1.2359  1.2491 -0.1316
 8221TIP3    H246079   2.970   5.802  11.224 -0.9899 -0.5021  0.2883
 8222TIP3   OH246080   6.014   2.448   4.372 -0.3566 -0.2178 -0.0441
 8222TIP3    H146081   6.068   2.383   4.326 -0.6105 -1.3438  1.1684
 8222TIP3    H246082   5.928   2.406   4.379 -0.4158  0.0661  1.1150
 8223TIP3   OH246083   5.203   0.677  12.521 -0.2432 -0.1377  0.2150
 8223TIP3    H146084   5.244   0.727  12.450 -0.9037 -0.5787 -0.5063
 8223TIP3    H246085   5.198   0.738  12.594  1.2799  0.0475  0.1846
 8224TIP3   OH246086   2.866   5.590  14.103  0.5173 -0.4033  0.3347
 8224TIP3    H146087   2.814   5.621  14.177  1.6677  1.3288  0.4811
 8224TIP3    H246088   2.894   5.669  14.058  2.0713 -1.2987 -0.3794
 8225TIP3   OH246089   5.260   6.492   0.057 -0.0574  0.2535 -0.0996
 8225TIP3    H146090   5.354   6.495   0.040  0.6841  1.3824  3.3789
 8225TIP3    H246091   5.235   6.401   0.039  2.4933 -1.0304  2.1824
 8226TIP3   OH246092   5.476   5.648   4.769  0.2128  0.1972  0.0374
 8226TIP3    H146093   5.485   5.623   4.861  0.5749  3.1192  0.8946
 8226TIP3    H246094   5.556   5.696   4.749 -1.6408  3.4074 -0.4029
 8227TIP3   OH246095   5.506   5.885  12.418  0.3843  0.1557  0.7257
 8227TIP3    H146096   5.596   5.909  12.393 -0.1049 -0.2309 -1.6483
 8227TIP3    H246097   5.451   5.953  12.378 -0.5511 -1.2358 -0.4594
 8228TIP3   OH246098   0.630   0.070  10.935 -0.1316 -0.6528  0.8898
 8228TIP3    H146099   0.676  -0.003  10.894  0.5255  0.6663 -0.8351
 8228TIP3    H246100   0.537   0.048  10.925  0.0167 -0.5267 -1.1036
 8229TIP3   OH246101   3.819   5.652  16.921  0.1536 -0.1151 -0.3474
 8229TIP3    H146102   3.728   5.661  16.948 -0.1568  0.3419 -1.4865
 8229TIP3    H246103   3.844   5.564  16.948 -0.2246  0.2009  1.0991
 8230TIP3   OH246104   6.286   0.680  15.510  0.3275  0.0626  1.0134
 8230TIP3    H146105   6.265   0.724  15.427 -3.1582  0.4551  1.9871
 8230TIP3    H246106   6.355   0.618  15.486 -0.1357  0.5510 -2.0683
 8231TIP3   OH246107   3.052   4.395   5.149 -0.1018  0.0234 -0.7339
 8231TIP3    H146108   3.072   4.308   5.183 -0.8612  0.3895  0.7411
 8231TIP3    H246109   3.092   4.397   5.062  1.9465 -0.9549  0.1318
 8232TIP3   OH246110   1.184   1.866   1.552 -0.3493 -0.0726  0.8509
 8232TIP3    H146111   1.092   1.841   1.558 -0.2145 -0.6229  0.7110
 8232TIP3    H246112   1.209   1.842   1.462 -0.9149  3.0142 -0.2506
 8233TIP3   OH246113   6.265   4.234   1.326 -0.1780  0.4700 -0.2278
 8233TIP3    H146114   6.329   4.270   1.264  0.3296 -0.7308 -0.4310
 8233TIP3    H246115   6.275   4.139   1.318 -1.4984  0.2679  0.2580
 8234TIP3   OH246116   5.415   3.989   0.590 -0.2054 -0.6184  0.1701
 8234TIP3    H146117   5.426   3.916   0.530 -0.6885 -1.3196  0.9095
 8234TIP3    H246118   5.392   3.948   0.674  0.1528  0.3428  0.7603
 8235TIP3   OH246119   5.433   3.628   2.600 -0.4079  0.3374  0.3418
 8235TIP3    H146120   5.425   3.554   2.540  0.6410 -1.1419  1.9369
 8235TIP3    H246121   5.512   3.673   2.572 -0.5493  0.3229 -0.0873
 8236TIP3   OH246122   3.878   5.140   5.617 -0.2701 -0.1489 -0.3722
 8236TIP3    H146123   3.806   5.092   5.575 -0.0865 -3.3302  2.5807
 8236TIP3    H246124   3.843   5.165   5.702  1.8990 -1.2330  0.8980
 8237TIP3   OH246125   5.829   0.326   6.294  0.2154  0.1929  0.5889
 8237TIP3    H146126   5.753   0.279   6.328 -1.0995  0.3879 -1.8590
 8237TIP3    H246127   5.803   0.418   6.298  0.2225  0.2469 -0.4338
 8238TIP3   OH246128   2.568   2.381  14.538 -0.1924 -0.3418 -0.2701
 8238TIP3    H146129   2.493   2.378  14.478 -0.4607 -1.7373  0.0928
 8238TIP3    H246130   2.594   2.473  14.539 -0.7446 -0.1311 -1.8277
 8239TIP3   OH246131   4.103   2.817   5.070  0.7432 -0.3842  0.3257
 8239TIP3    H146132   4.142   2.881   5.129  1.7559 -0.3217 -0.3919
 8239TIP3    H246133   4.050   2.761   5.127 -0.2833  1.1472  0.9576
 8240TIP3   OH246134   3.954   3.326  15.997  0.6522 -0.3102 -0.2227
 8240TIP3    H146135   3.870   3.361  16.025  1.1224  0.1294  0.6774
 8240TIP3    H246136   3.937   3.292  15.909 -0.0182  1.5238 -0.8697
 8241TIP3   OH246137   0.850   0.572   5.564  0.2669  0.1982 -0.3724
 8241TIP3    H146138   0.792   0.497   5.582 -1.5854  1.3432 -1.2993
 8241TIP3    H246139   0.853   0.620   5.647  1.7219 -0.9968  0.3266
 8242TIP3   OH246140   0.211   2.643   3.278 -0.1868 -0.1599  0.0064
 8242TIP3    H146141   0.289   2.611   3.324 -0.7369  0.3143  1.3101
 8242TIP3    H246142   0.210   2.737   3.296 -0.4218  0.0500 -1.0140
 8243TIP3   OH246143   5.230   5.075   2.522 -0.0904 -0.1681  0.1211
 8243TIP3    H146144   5.211   5.154   2.470  1.2829 -0.1568 -0.4173
 8243TIP3    H246145   5.275   5.017   2.460 -0.4983 -1.1085  0.6966
 8244TIP3   OH246146   3.826   5.272  15.070 -0.2043  0.7168 -0.4773
 8244TIP3    H146147   3.740   5.247  15.037 -1.0234  2.4976  0.1916
 8244TIP3    H246148   3.815   5.361  15.103  1.7203  0.7261  0.3104
 8245TIP3   OH246149   2.786   1.945  14.338  0.0889 -0.1934  0.2968
 8245TIP3    H146150   2.801   2.025  14.287  2.9941 -0.9976 -0.3114
 8245TIP3    H246151   2.865   1.935  14.391  0.3327 -3.1626 -0.4136
 8246TIP3   OH246152   3.112   5.542   5.240  0.4635  0.3278 -0.1744
 8246TIP3    H146153   3.016   5.545   5.235  0.4877 -0.3216 -1.3838
 8246TIP3    H246154   3.142   5.590   5.163  1.0787 -0.7670 -0.6459
 8247TIP3   OH246155   4.494   4.973  11.713 -0.8488 -0.1589 -0.0258
 8247TIP3    H146156   4.454   5.033  11.650 -1.8416 -0.2565  0.4900
 8247TIP3    H246157   4.440   4.982  11.792  0.1564 -0.3027  0.6939
 8248TIP3   OH246158   2.606   0.636   5.378  0.3004  0.3235  0.1765
 8248TIP3    H146159   2.519   0.676   5.379  0.4176  1.0734 -3.4665
 8248TIP3    H246160   2.591   0.545   5.401 -1.5348  0.3847 -0.5884
 8249TIP3   OH246161   2.038   6.331  16.129 -0.0182 -0.2410 -0.1856
 8249TIP3    H146162   1.958   6.314  16.179  0.9808 -0.8566  1.2907
 8249TIP3    H246163   2.044   6.426  16.126 -0.9246 -0.1819 -0.5277
 8250TIP3   OH246164   5.513   1.390   4.414  0.0736 -0.6655 -0.2371
 8250TIP3    H146165   5.599   1.373   4.376 -0.3257  0.8954 -1.9932
 8250TIP3    H246166   5.454   1.395   4.338 -1.2329  0.1180  0.7834
 8251TIP3   OH246167   4.200   0.769  15.367 -0.1583  0.4682 -0.1545
 8251TIP3    H146168   4.209   0.675  15.348 -1.8667 -0.2939  2.1582
 8251TIP3    H246169   4.288   0.798  15.391 -0.1228 -1.5193  2.5739
 8252TIP3   OH246170   5.305   0.995   0.596 -0.5403 -0.2018 -0.0378
 8252TIP3    H146171   5.380   0.939   0.615 -1.4165 -1.0627  1.0162
 8252TIP3    H246172   5.311   1.066   0.660  0.2038  0.5896 -0.9500
 8253TIP3   OH246173   5.084   4.049   6.884 -0.5595 -0.5783  0.4194
 8253TIP3    H146174   5.012   4.032   6.824 -0.5999 -0.5079  0.4475
 8253TIP3    H246175   5.041   4.068   6.968 -0.6641  2.6211 -0.2596
 8254TIP3   OH246176   3.827   6.763   4.967 -0.4622  0.7939  0.1820
 8254TIP3    H146177   3.851   6.841   4.917 -2.8594  1.7136  0.3563
 8254TIP3    H246178   3.779   6.708   4.905 -0.7710  0.5240  0.6489
 8255TIP3   OH246179   4.817   6.767  13.193 -0.4629  0.1846  0.6107
 8255TIP3    H146180   4.858   6.771  13.107 -0.4708 -4.2367  0.1400
 8255TIP3    H246181   4.725   6.787  13.177 -0.6476 -1.4548 -0.7232
 8256TIP3   OH246182   5.001   1.188  15.508  0.2517  0.7791 -0.0689
 8256TIP3    H146183   4.916   1.231  15.494  0.6986  2.9832  3.0284
 8256TIP3    H246184   5.055   1.216  15.434 -1.3935 -0.0143 -1.6637
 8257TIP3   OH246185   2.636   6.537   0.877 -0.8035  0.4206  0.1370
 8257TIP3    H146186   2.576   6.537   0.952 -0.9507 -0.9190  0.0445
 8257TIP3    H246187   2.584   6.574   0.806 -0.8272  1.2296  0.5612
 8258TIP3   OH246188   1.938   5.085   3.679  0.1301 -0.0899  0.0223
 8258TIP3    H146189   2.015   5.111   3.627  0.2214  0.2946  0.3421
 8258TIP3    H246190   1.927   4.992   3.661  1.0589 -0.2963  0.4616
 8259TIP3   OH246191   6.777   6.245   5.639  0.2083  0.4085 -0.0869
 8259TIP3    H146192   6.688   6.209   5.649  0.1408  0.9093  1.2791
 8259TIP3    H246193   6.787   6.304   5.713  1.6868  0.3711 -0.2381
 8260TIP3   OH246194   6.326   0.752  15.258 -0.0217 -0.5661  0.5935
 8260TIP3    H146195   6.260   0.789  15.199  1.5176  0.7871 -0.3582
 8260TIP3    H246196   6.387   0.706  15.200  4.2229  4.6150  0.1178
 8261TIP3   OH246197   0.026   1.604  14.704  0.1308  0.7540 -0.3642
 8261TIP3    H146198   0.020   1.586  14.610  0.5153  0.9656 -0.4299
 8261TIP3    H246199   0.008   1.697  14.713  0.1859  0.7529 -0.2356
 8262TIP3   OH246200   3.449   4.366   6.517  0.4007  0.2001 -0.4775
 8262TIP3    H146201   3.475   4.292   6.571 -1.1187  0.1811  0.2980
 8262TIP3    H246202   3.359   4.346   6.491  0.6275  0.8671 -1.8789
 8263TIP3   OH246203   0.157   2.651  13.084  0.0931  0.0306 -0.5334
 8263TIP3    H146204   0.179   2.593  13.157  0.5858 -1.6373 -1.9123
 8263TIP3    H246205   0.065   2.674  13.097  0.2611  0.0225  0.7541
 8264TIP3   OH246206   1.698   4.933  15.133 -0.5194  0.0689 -0.3696
 8264TIP3    H146207   1.632   4.913  15.199 -2.4141  0.2613 -2.0828
 8264TIP3    H246208   1.670   4.884  15.055 -0.0179  2.0358 -1.8710
 8265TIP3   OH246209   1.000   0.109   4.418  0.1721 -0.1706  0.5907
 8265TIP3    H146210   0.981   0.029   4.467  0.7772 -0.6495  0.0669
 8265TIP3    H246211   1.093   0.103   4.396  0.0695  0.3476 -0.0424
 8266TIP3   OH246212   0.226   5.599  10.392  0.1610 -0.1508  0.4581
 8266TIP3    H146213   0.248   5.690  10.413  2.3910 -0.6642  0.5856
 8266TIP3    H246214   0.153   5.606  10.331  1.6733  1.8338 -1.2690
 8267TIP3   OH246215   1.814   6.264   4.567  0.3346  0.9295  0.4949
 8267TIP3    H146216   1.762   6.244   4.489  1.3529  2.2572 -0.5771
 8267TIP3    H246217   1.830   6.179   4.608 -1.2139  0.3270 -0.0761
 8268TIP3   OH246218   0.692   2.481  15.038 -0.5089 -0.3283 -0.1306
 8268TIP3    H146219   0.697   2.412  14.972  0.0043  0.2212 -0.6840
 8268TIP3    H246220   0.600   2.485  15.063 -0.5666 -1.1223 -0.1752
 8269TIP3   OH246221   0.242   0.064   3.984  1.0345  0.1933 -0.2314
 8269TIP3    H146222   0.195   0.127   4.039 -0.9053 -0.2830 -1.2295
 8269TIP3    H246223   0.183  -0.012   3.979  2.1325 -0.6326 -1.1690
 8270TIP3   OH246224   5.677   1.402   5.707  0.5374 -0.4711 -0.3729
 8270TIP3    H146225   5.704   1.375   5.620 -1.1999 -2.1901 -0.4532
 8270TIP3    H246226   5.758   1.410   5.756  1.6645  1.7168 -2.3908
 8271TIP3   OH246227   1.160   6.019   3.900  0.3819  0.5282  0.1098
 8271TIP3    H146228   1.127   5.951   3.842 -0.6234  1.1915 -0.1061
 8271TIP3    H246229   1.180   5.972   3.981  0.6779 -0.1973 -0.3647
 8272TIP3   OH246230   4.870   3.785  10.933  0.3031 -0.0834 -0.2777
 8272TIP3    H146231   4.896   3.718  10.870  0.1558 -0.4830  0.0794
 8272TIP3    H246232   4.944   3.846  10.936  0.0659  0.2774 -1.2780
 8273TIP3   OH246233   1.602   0.412  13.566  0.2722 -0.1862 -0.1966
 8273TIP3    H146234   1.571   0.359  13.640  0.8258 -1.0927 -0.5980
 8273TIP3    H246235   1.697   0.404  13.569  0.4404  1.5606  0.2734
 8274TIP3   OH246236   1.817   1.945  17.026 -0.1941 -0.5971  0.0955
 8274TIP3    H146237   1.796   1.861  17.067 -0.6216 -0.4038  0.2825
 8274TIP3    H246238   1.854   1.922  16.941  0.0080 -0.9836  0.2845
 8275TIP3   OH246239   5.811   0.136   3.302 -0.2993  0.2610 -0.0091
 8275TIP3    H146240   5.839   0.170   3.217  2.4004 -0.7794  0.3525
 8275TIP3    H246241   5.754   0.062   3.281 -0.5428  0.6899 -0.8882
 8276TIP3   OH246242   1.944   4.171  14.704  0.1569  0.2273  0.4153
 8276TIP3    H146243   1.935   4.266  14.690 -1.2032 -0.0599 -0.9886
 8276TIP3    H246244   2.022   4.147  14.654 -0.6051  0.3382 -0.8774
 8277TIP3   OH246245   2.557   4.989  15.425  0.4180  0.6164  0.2191
 8277TIP3    H146246   2.499   4.913  15.425  1.3104 -0.0839 -0.4827
 8277TIP3    H246247   2.498   5.064  15.418 -0.3963 -0.0964 -0.8861
 8278TIP3   OH246248   1.638   0.522   6.848  0.3906  0.3380  0.3311
 8278TIP3    H146249   1.568   0.487   6.793  0.5390  0.0313  0.3395
 8278TIP3    H246250   1.692   0.446   6.870  1.8074  0.8376 -1.2052
 8279TIP3   OH246251   2.695   0.792  10.795 -0.0229 -0.0667  0.3338
 8279TIP3    H146252   2.656   0.712  10.829 -0.2102 -1.2472 -2.4151
 8279TIP3    H246253   2.645   0.813  10.716  2.0887  0.8333 -0.8745
 8280TIP3   OH246254   4.336   3.845  10.866  0.0663  0.6180 -0.0892
 8280TIP3    H146255   4.401   3.844  10.937 -0.1276  1.2576  0.1048
 8280TIP3    H246256   4.322   3.753  10.845  0.7186  0.4562  0.1636
 8281TIP3   OH246257   2.128   3.251  14.459 -0.3760  0.2650 -0.1132
 8281TIP3    H146258   2.034   3.235  14.448  0.0053 -1.0491 -1.7115
 8281TIP3    H246259   2.166   3.164  14.468  0.8416  0.7100 -0.8217
 8282TIP3   OH246260   5.279   0.811  10.850  0.8483  0.2772  0.1672
 8282TIP3    H146261   5.322   0.730  10.875  0.8502  0.2749  0.1573
 8282TIP3    H246262   5.323   0.837  10.768  1.3645  0.6882  0.5661
 8283TIP3   OH246263   3.237   6.028   3.418  0.6285 -0.0098  0.0878
 8283TIP3    H146264   3.207   6.024   3.509 -1.3334  0.9149 -0.4675
 8283TIP3    H246265   3.189   5.959   3.373  1.1748 -0.1048 -0.3672
 8284TIP3   OH246266   6.177   2.551  15.993  0.4072 -0.3848  0.2909
 8284TIP3    H146267   6.258   2.603  15.989 -1.1174  2.1771  0.4811
 8284TIP3    H246268   6.205   2.466  16.027  3.0208  0.3588  0.2416
 8285TIP3   OH246269   0.862   0.202  11.943  0.3521  0.2320  0.3139
 8285TIP3    H146270   0.856   0.240  12.031  0.8852 -1.4229  1.1022
 8285TIP3    H246271   0.926   0.132  11.952 -2.6860 -2.8601 -0.3062
 8286TIP3   OH246272   4.640   5.331   6.069  0.3007  0.1564 -0.1706
 8286TIP3    H146273   4.733   5.352   6.076  0.5054 -0.3904 -1.1282
 8286TIP3    H246274   4.595   5.415   6.084  0.7876 -0.0356  3.0880
 8287TIP3   OH246275   6.580   1.963   1.772  0.1600 -0.0798  0.4074
 8287TIP3    H146276   6.509   1.998   1.826 -0.6125 -0.4842 -0.3118
 8287TIP3    H246277   6.623   2.040   1.735 -0.7103  0.1527 -0.1416
 8288TIP3   OH246278   0.554   4.366   4.840  0.1176 -0.4825  0.3176
 8288TIP3    H146279   0.485   4.319   4.792 -0.1987 -0.3386  0.6255
 8288TIP3    H246280   0.608   4.296   4.878 -0.9591 -0.6379  1.6561
 8289TIP3   OH246281   3.961   2.883  10.776  0.6120 -0.8237  0.2278
 8289TIP3    H146282   4.030   2.869  10.840 -0.6919  2.6703  2.7082
 8289TIP3    H246283   3.882   2.846  10.817 -0.4987  2.5854  1.4989
 8290TIP3   OH246284   2.433   3.741   3.673  0.1423 -0.2238  0.1154
 8290TIP3    H146285   2.463   3.685   3.602  1.0739 -0.5692  0.7571
 8290TIP3    H246286   2.513   3.761   3.722 -0.1011  1.9210 -0.2682
 8291TIP3   OH246287   0.213   2.268  15.977  0.0788  0.0047  0.1355
 8291TIP3    H146288   0.242   2.308  16.059 -0.9820  0.8962  0.0964
 8291TIP3    H246289   0.220   2.338  15.912  0.8201 -0.6640 -0.5344
 8292TIP3   OH246290   2.533   5.117  15.783 -0.3734  0.0252 -0.0313
 8292TIP3    H146291   2.462   5.135  15.721 -0.4264  0.6883  0.2143
 8292TIP3    H246292   2.557   5.026  15.766 -0.0905  0.3269 -1.3131
 8293TIP3   OH246293   3.289   4.243  10.688 -0.6078  0.2636 -0.6079
 8293TIP3    H146294   3.296   4.193  10.606  0.9162 -0.8383  0.1392
 8293TIP3    H246295   3.379   4.270  10.708 -1.2327  2.3164 -0.3412
 8294TIP3   OH246296   0.399   1.088  13.787  0.6677 -0.4525  0.5359
 8294TIP3    H146297   0.397   1.183  13.771 -1.3691 -0.5929 -0.3485
 8294TIP3    H246298   0.310   1.068  13.817  1.1413 -2.0659  0.9210
 8295TIP3   OH246299   6.274   3.549  10.783  0.4610  0.2084 -0.1329
 8295TIP3    H146300   6.180   3.566  10.785  0.4084 -0.1172  0.5969
 8295TIP3    H246301   6.315   3.634  10.799  0.2531  0.1439  0.8461
 8296TIP3   OH246302   3.932   3.968   3.711  0.3995 -0.1006  0.2718
 8296TIP3    H146303   4.021   3.997   3.690  0.1228 -0.1120 -1.0041
 8296TIP3    H246304   3.907   3.913   3.636 -0.6242 -0.2169  0.6898
 8297TIP3   OH246305   4.788   2.874  14.686 -0.5445  0.8033  0.2430
 8297TIP3    H146306   4.761   2.957  14.647 -0.2416  1.2163  0.9016
 8297TIP3    H246307   4.858   2.897  14.747  0.9193 -0.1839 -1.0043
 8298TIP3   OH246308   0.785   3.802   4.073 -0.3149 -0.4230  0.3692
 8298TIP3    H146309   0.868   3.844   4.052 -0.7016  0.7819  1.1467
 8298TIP3    H246310   0.738   3.799   3.990  0.6965 -1.6194 -0.1925
 8299TIP3   OH246311   1.390   0.279  14.005 -0.2626 -0.1106 -0.2959
 8299TIP3    H146312   1.417   0.364  13.969 -0.2963  0.2485  0.4962
 8299TIP3    H246313   1.426   0.214  13.945 -0.4388  0.4732 -1.0458
 8300TIP3   OH246314   0.771   1.046  15.398  0.0063  0.2876 -0.1039
 8300TIP3    H146315   0.828   0.970  15.394 -1.0172 -0.4573 -0.8738
 8300TIP3    H246316   0.712   1.028  15.471  1.0089  1.2744  1.0037
 8301TIP3   OH246317   5.043   4.593   4.548  0.5853  0.0010  0.5279
 8301TIP3    H146318   5.040   4.557   4.459  0.8190  0.4987  0.3135
 8301TIP3    H246319   5.063   4.519   4.604  1.6406 -0.1055  0.0352
 8302TIP3   OH246320   0.010   5.420   4.319  0.2557 -0.4780  0.0934
 8302TIP3    H146321   0.094   5.377   4.305 -0.7047 -1.8151 -2.2152
 8302TIP3    H246322  -0.048   5.380   4.254 -2.5154 -0.5493  2.4359
 8303TIP3   OH246323   6.573   4.258   3.058  0.2312  0.2258  0.3618
 8303TIP3    H146324   6.518   4.314   3.003 -0.3719 -0.9949 -0.3297
 8303TIP3    H246325   6.597   4.185   3.000 -1.1701 -1.5856  1.9239
 8304TIP3   OH246326   4.749   5.031  17.041 -0.3740 -0.2412 -0.1095
 8304TIP3    H146327   4.761   5.107  17.098 -1.3062 -0.6351  0.6385
 8304TIP3    H246328   4.826   4.976  17.058  0.2145  0.4313 -0.5210
 8305TIP3   OH246329   1.285   6.121   3.619  0.2025 -0.1554  0.2517
 8305TIP3    H146330   1.247   6.122   3.707 -1.1211 -0.2061 -0.3063
 8305TIP3    H246331   1.329   6.036   3.614 -1.1575 -0.8793  0.2786
 8306TIP3   OH246332   4.580   2.732   4.475 -0.2650 -0.5905 -0.7522
 8306TIP3    H146333   4.506   2.719   4.534  0.4232 -0.5241  0.1432
 8306TIP3    H246334   4.551   2.802   4.416 -0.6674 -0.0816  0.0277
 8307TIP3   OH246335   4.514   5.441   4.030  0.6193  0.6055 -0.0547
 8307TIP3    H146336   4.502   5.536   4.021 -0.4057  0.3506 -1.8214
 8307TIP3    H246337   4.537   5.429   4.122 -0.0977  2.4865  0.4271
 8308TIP3   OH246338   3.066   6.230  15.220  0.1332  0.7181 -0.3753
 8308TIP3    H146339   3.080   6.268  15.307 -1.8212 -0.2387  0.4146
 8308TIP3    H246340   2.971   6.220  15.214  0.4194 -2.1360 -1.3442
 8309TIP3   OH246341   2.045   0.569  16.799 -0.5952 -0.0965  0.2584
 8309TIP3    H146342   2.141   0.569  16.805 -0.4509  1.8490 -1.1041
 8309TIP3    H246343   2.017   0.640  16.856 -1.1522  0.0122 -0.1417
 8310TIP3   OH246344   5.938   1.765   2.969  0.0522  0.5625 -0.6465
 8310TIP3    H146345   5.913   1.770   2.876  0.8331 -2.7823 -1.1744
 8310TIP3    H246346   6.032   1.747   2.967 -0.1533 -0.7831  0.7187
 8311TIP3   OH246347   5.861   0.655  12.555  0.2492 -0.4560  0.4121
 8311TIP3    H146348   5.836   0.570  12.591 -0.8750 -2.1045 -3.7553
 8311TIP3    H246349   5.788   0.713  12.576 -1.3009 -1.8845 -0.7877
 8312TIP3   OH246350   5.825   4.470  12.137 -0.2246 -0.1370 -0.3387
 8312TIP3    H146351   5.733   4.443  12.133  0.0398 -1.1406  0.0213
 8312TIP3    H246352   5.848   4.460  12.230  0.8915 -2.1480 -0.7934
 8313TIP3   OH246353   2.418   6.245   1.251  0.1208 -0.4093 -0.0604
 8313TIP3    H146354   2.345   6.183   1.240 -1.1757  0.9785  0.4290
 8313TIP3    H246355   2.430   6.283   1.164  0.7151 -1.1139 -0.2921
 8314TIP3   OH246356   2.881   3.261  13.877  0.7124 -0.1731 -0.4639
 8314TIP3    H146357   2.837   3.284  13.795  2.6532  1.8777 -1.0325
 8314TIP3    H246358   2.868   3.337  13.933 -0.9984 -1.7441  1.4106
 8315TIP3   OH246359   3.036   6.675   1.081  0.2567  0.3043 -0.0241
 8315TIP3    H146360   2.962   6.619   1.105  0.1293 -0.4391 -1.9160
 8315TIP3    H246361   3.104   6.613   1.054  0.9916  1.0151  0.1945
 8316TIP3   OH246362   2.989   4.624   5.281  0.2473  0.4951  0.3853
 8316TIP3    H146363   2.906   4.635   5.234  1.6873  1.2588 -2.1702
 8316TIP3    H246364   3.025   4.542   5.247  0.5017  0.0800  1.5960
 8317TIP3   OH246365   0.448   2.277  14.602 -0.4249 -0.5202  0.3312
 8317TIP3    H146366   0.458   2.357  14.551 -0.8895 -0.6017  0.1075
 8317TIP3    H246367   0.535   2.261  14.640 -0.2491 -0.0957  0.1076
 8318TIP3   OH246368   5.385   2.321   4.690 -0.1936 -0.6637  0.5060
 8318TIP3    H146369   5.357   2.233   4.664 -0.6539 -0.7965  1.4008
 8318TIP3    H246370   5.303   2.368   4.704  0.0518 -0.0840  0.0431
 8319TIP3   OH246371   2.302   4.954  15.041 -0.2824  0.2580 -0.2660
 8319TIP3    H146372   2.251   4.921  14.968 -1.1402  1.5359 -0.2739
 8319TIP3    H246373   2.237   4.989  15.103  0.4549 -0.2122  0.8133
 8320TIP3   OH246374   1.313   5.139   3.872  0.0707 -0.3473  0.1457
 8320TIP3    H146375   1.247   5.208   3.877 -0.0328 -0.3781 -0.6527
 8320TIP3    H246376   1.268   5.066   3.829  1.2896  0.4960 -2.8106
 8321TIP3   OH246377   6.568   0.677   6.312 -0.6561  0.5898 -0.1009
 8321TIP3    H146378   6.491   0.671   6.368  0.0673  0.2715  0.8853
 8321TIP3    H246379   6.548   0.748   6.251 -1.5316  0.8235  0.4432
 8322TIP3   OH246380   3.783   5.740  12.028  0.2378  0.1522 -0.3139
 8322TIP3    H146381   3.703   5.710  11.986  0.1046 -0.2466  0.2123
 8322TIP3    H246382   3.770   5.834  12.042 -0.8402 -0.1965  1.2685
 8323TIP3   OH246383   5.294   1.006  12.486 -0.1014 -0.4802  0.3177
 8323TIP3    H146384   5.337   1.034  12.567 -1.0532 -1.6940  1.2812
 8323TIP3    H246385   5.206   0.980  12.512 -0.5901 -0.4608 -1.1943
 8324TIP3   OH246386   1.520   4.863  11.842  0.4941  0.0345  0.0043
 8324TIP3    H146387   1.554   4.924  11.907 -0.1378  0.2859  0.0969
 8324TIP3    H246388   1.590   4.798  11.832  0.1138 -0.7118  1.8439
 8325TIP3   OH246389   6.737   4.216   2.225  0.1625 -0.1869 -0.3945
 8325TIP3    H146390   6.759   4.126   2.245  1.0056 -0.2137 -1.3567
 8325TIP3    H246391   6.812   4.249   2.176  0.2899  1.3419  0.7510
 8326TIP3   OH246392   2.076   6.725  13.885  0.1780  0.0746  0.1564
 8326TIP3    H146393   2.042   6.651  13.836  0.4507  0.8448 -1.2291
 8326TIP3    H246394   1.997   6.772  13.915  0.0001  0.4237 -0.8357
 8327TIP3   OH246395   3.341   4.031  13.585  0.3018 -0.7154 -0.2748
 8327TIP3    H146396   3.308   3.964  13.645  0.9498 -0.2747  0.5985
 8327TIP3    H246397   3.409   3.987  13.535  1.2426 -0.5394  0.8111
 8328TIP3   OH246398   3.942   0.163   2.103  0.5598 -0.0058  0.0526
 8328TIP3    H146399   3.884   0.108   2.051 -0.4717 -1.1041  2.2118
 8328TIP3    H246400   3.902   0.250   2.100  0.0461 -0.2505 -0.2967
 8329TIP3   OH246401   5.570   4.764   0.614  0.0896 -0.1716  0.3787
 8329TIP3    H146402   5.500   4.714   0.573  0.1350  0.5761 -0.6639
 8329TIP3    H246403   5.524   4.824   0.674 -0.4026  1.6009 -1.6287
 8330TIP3   OH246404   2.521   0.958   3.149  0.1888  0.2721 -0.1560
 8330TIP3    H146405   2.574   0.892   3.104 -0.1292  0.9636 -1.6157
 8330TIP3    H246406   2.563   1.041   3.127 -0.5218  0.7016  0.0743
 8331TIP3   OH246407   5.948   1.344   2.707 -0.2213 -0.3805  0.3793
 8331TIP3    H146408   6.040   1.363   2.690  0.0766 -1.9907  0.0429
 8331TIP3    H246409   5.932   1.381   2.795  0.1319  1.7353 -0.3760
 8332TIP3   OH246410   4.530   6.719   2.787  0.1023  0.1419  0.1849
 8332TIP3    H146411   4.624   6.701   2.784 -0.2474 -1.7319 -0.9578
 8332TIP3    H246412   4.523   6.798   2.842  2.1949 -0.5130  1.5277
 8333TIP3   OH246413   2.307   3.992  11.520 -0.9814  0.1643 -0.0827
 8333TIP3    H146414   2.402   3.985  11.524 -0.8717  1.6383  0.1110
 8333TIP3    H246415   2.282   3.928  11.452  0.0381 -0.8848  0.4865
 8334TIP3   OH246416   1.072   0.103   5.392 -0.5903  0.4822 -0.5981
 8334TIP3    H146417   1.027   0.187   5.402 -1.4669 -0.1309  1.0016
 8334TIP3    H246418   1.156   0.115   5.434  0.2015  1.1725 -2.2721
 8335TIP3   OH246419   1.296   5.676  12.523  0.5849 -0.0337 -0.6655
 8335TIP3    H146420   1.230   5.668  12.454  0.5803 -0.4132 -0.6233
 8335TIP3    H246421   1.245   5.689  12.603  0.6139  1.1104 -0.8228
 8336TIP3   OH246422   5.371   1.867   0.056 -0.4699  0.2360  0.6864
 8336TIP3    H146423   5.376   1.963   0.057  1.9876  0.1683  0.2565
 8336TIP3    H246424   5.314   1.848  -0.019 -1.5117  1.3389  1.1562
 8337TIP3   OH246425   4.085   0.784  14.778 -0.1368 -0.4578  0.2538
 8337TIP3    H146426   4.057   0.807  14.689 -0.2836  1.2380  0.6947
 8337TIP3    H246427   4.084   0.689  14.780 -0.8612 -0.5128 -1.3379
 8338TIP3   OH246428   3.788   0.052   5.516  0.2133 -0.7887  0.1042
 8338TIP3    H146429   3.867   0.023   5.562  0.5726 -1.8870 -1.1465
 8338TIP3    H246430   3.726  -0.021   5.526 -0.2747 -0.3656  0.2066
 8339TIP3   OH246431   6.320   5.293   3.977  0.1280  0.0330  0.1087
 8339TIP3    H146432   6.395   5.251   4.019 -0.0220 -1.5906 -1.1247
 8339TIP3    H246433   6.332   5.276   3.884 -1.2339  0.6489 -0.2035
 8340TIP3   OH246434   1.260   3.943   1.792  0.3345 -0.2253  0.1121
 8340TIP3    H146435   1.308   3.864   1.766 -0.3269 -0.3151 -0.9072
 8340TIP3    H246436   1.316   3.985   1.856  1.6696 -0.4649 -0.8577
 8341TIP3   OH246437   1.161   4.018  12.142 -0.0994  0.3504 -0.4984
 8341TIP3    H146438   1.120   4.090  12.190  0.3287  0.4148 -0.2279
 8341TIP3    H246439   1.255   4.031  12.154 -0.0181 -1.3583  1.2394
 8342TIP3   OH246440   6.462   5.648   2.944  0.1438  0.0515  0.1898
 8342TIP3    H146441   6.535   5.637   3.004 -0.3556 -1.4986  0.5735
 8342TIP3    H246442   6.485   5.593   2.869 -0.7966 -0.8078  0.5056
 8343TIP3   OH246443   6.670   4.502   3.532  0.0537 -0.3512 -0.3884
 8343TIP3    H146444   6.735   4.552   3.482  0.1737 -0.3578 -0.2384
 8343TIP3    H246445   6.656   4.422   3.480  2.6382 -1.9523  1.1760
 8344TIP3   OH246446   1.533   2.540  11.665 -0.0755 -0.1819 -0.1015
 8344TIP3    H146447   1.456   2.514  11.714  0.0167 -1.3641 -0.5536
 8344TIP3    H246448   1.517   2.510  11.575  0.1214  1.1962 -0.6276
 8345TIP3   OH246449   0.058   2.357  13.615  0.8518  0.0470  0.2956
 8345TIP3    H146450   0.048   2.378  13.707  0.3925 -0.8094  0.4542
 8345TIP3    H246451   0.138   2.402  13.589 -0.2995  2.3599  0.4567
 8346TIP3   OH246452   0.204   3.495   4.275  0.3363  0.0362 -0.4618
 8346TIP3    H146453   0.143   3.551   4.324 -0.5646 -1.3436  0.0526
 8346TIP3    H246454   0.251   3.447   4.342 -0.8258 -1.7920 -0.8975
 8347TIP3   OH246455   3.519   5.263  14.993  0.2709  0.3294  0.0585
 8347TIP3    H146456   3.509   5.198  15.062  1.3394 -0.2991 -0.3486
 8347TIP3    H246457   3.429   5.288  14.970 -0.4235 -3.3774 -1.9792
 8348TIP3   OH246458   1.662   6.755   4.901  0.6803  0.1328 -0.2711
 8348TIP3    H146459   1.675   6.663   4.923  2.3716 -0.0126 -1.6859
 8348TIP3    H246460   1.681   6.802   4.982  0.4355 -0.7128  0.2945
 8349TIP3   OH246461   1.281   2.635  12.490 -0.1689 -0.4264  0.2126
 8349TIP3    H146462   1.245   2.565  12.544 -0.8083 -0.6332 -0.4583
 8349TIP3    H246463   1.375   2.618  12.488 -0.3718 -1.6055 -0.3963
 8350TIP3   OH246464   2.064   2.239  11.275 -0.3252 -0.6991  0.2257
 8350TIP3    H146465   2.100   2.245  11.363 -1.5271 -2.2748  0.8660
 8350TIP3    H246466   2.131   2.193  11.224 -0.3794 -1.4054  0.7830
 8351TIP3   OH246467   6.650   4.056  12.228  0.7658 -0.1091  0.0411
 8351TIP3    H146468   6.644   4.146  12.195 -0.1231 -0.2237 -0.1439
 8351TIP3    H246469   6.621   4.063  12.319 -0.4794 -0.3847 -0.3179
 8352TIP3   OH246470   3.252   4.390   1.913 -0.3686  0.4184  0.5750
 8352TIP3    H146471   3.322   4.451   1.890  2.9816 -3.9750 -2.7436
 8352TIP3    H246472   3.181   4.412   1.853 -0.2595  2.3808  1.0945
 8353TIP3   OH246473   1.350   2.558   5.498 -0.1637  0.8575  0.0569
 8353TIP3    H146474   1.440   2.559   5.531  0.2183  1.7482 -0.9676
 8353TIP3    H246475   1.358   2.581   5.405 -1.4139  0.5466 -0.1467
 8354TIP3   OH246476   5.518   3.808   4.294  0.4093 -0.1144 -0.2459
 8354TIP3    H146477   5.478   3.745   4.354 -2.1189  1.2728 -0.3595
 8354TIP3    H246478   5.538   3.757   4.216 -1.6384 -0.8357 -0.3659
 8355TIP3   OH246479   1.360   4.000  15.780  0.0996  0.3548  0.4604
 8355TIP3    H146480   1.365   4.094  15.797 -1.1574  1.1026 -2.6882
 8355TIP3    H246481   1.451   3.970  15.785  0.7483  2.1108 -0.1532
 8356TIP3   OH246482   2.632   3.149   4.490  0.0890  0.0995 -0.0085
 8356TIP3    H146483   2.621   3.243   4.503  0.3532 -0.0946  1.8581
 8356TIP3    H246484   2.689   3.142   4.413  2.2471  1.5565  1.3466
 8357TIP3   OH246485   1.730   2.488  12.430 -0.1945  0.6574 -0.2129
 8357TIP3    H146486   1.650   2.435  12.435  1.4736 -1.9410  0.8274
 8357TIP3    H246487   1.744   2.519  12.520  1.3333 -1.1966  0.2561
 8358TIP3   OH246488   4.088   0.944  16.228  0.2458  0.1659 -0.3232
 8358TIP3    H146489   4.113   0.963  16.138  1.2630  1.7869  0.2556
 8358TIP3    H246490   4.120   0.855  16.244  0.9732  0.2546 -1.2314
 8359TIP3   OH246491   6.392   3.201  17.188  0.4939  0.1013 -0.2433
 8359TIP3    H146492   6.340   3.130  17.150 -1.9667  0.9365  1.3176
 8359TIP3    H246493   6.406   3.262  17.115  0.7023 -0.9092 -1.0700
 8360TIP3   OH246494   6.541   3.023   2.978  0.0072 -0.0323 -0.0642
 8360TIP3    H146495   6.574   2.943   3.019 -1.5461 -0.4086  0.5241
 8360TIP3    H246496   6.607   3.089   2.997  1.0288 -1.0303 -0.0395
 8361TIP3   OH246497   4.748   2.499   5.065  0.3286 -0.3762 -0.7364
 8361TIP3    H146498   4.674   2.559   5.070  1.0234  0.5042 -0.6936
 8361TIP3    H246499   4.820   2.552   5.030  0.7204 -1.4234 -1.5836
 8362TIP3   OH246500   0.884   0.238   4.637 -0.1678  0.7559 -0.0368
 8362TIP3    H146501   0.929   0.194   4.564  0.7971  2.1164 -0.3159
 8362TIP3    H246502   0.837   0.310   4.596 -0.1618  1.1381  0.6171
 8363TIP3   OH246503   1.034   1.225   1.405  0.0728 -0.1015  0.2464
 8363TIP3    H146504   1.085   1.144   1.400  0.4448  0.2188 -1.9560
 8363TIP3    H246505   0.955   1.200   1.454  1.2242 -1.1822  1.6493
 8364TIP3   OH246506   0.766   5.096   4.306  0.0454  0.1103  0.1846
 8364TIP3    H146507   0.854   5.078   4.340  0.0237  1.5833  1.1228
 8364TIP3    H246508   0.781   5.149   4.228  0.0790 -2.9800 -2.1107
 8365TIP3   OH246509   0.324   4.218  16.841 -0.4414  0.5341 -0.1464
 8365TIP3    H146510   0.386   4.162  16.795 -1.0498 -1.3223  1.1856
 8365TIP3    H246511   0.284   4.272  16.773  1.6870  0.8907 -1.1887
 8366TIP3   OH246512   5.225   4.607   5.066 -0.2372  0.5083 -0.8059
 8366TIP3    H146513   5.319   4.606   5.081 -0.1727 -0.5424 -1.2202
 8366TIP3    H246514   5.201   4.699   5.076  0.7612  0.7336 -0.3111
 8367TIP3   OH246515   6.094   4.061   5.507  0.2354 -0.1164 -0.7613
 8367TIP3    H146516   6.002   4.087   5.499 -0.2200 -1.7200 -1.1172
 8367TIP3    H246517   6.119   4.088   5.596 -0.9432 -0.6946 -0.2272
 8368TIP3   OH246518   1.451   5.199  16.592 -0.1461  0.1979  0.0583
 8368TIP3    H146519   1.429   5.111  16.559 -0.2200  0.6533 -1.1759
 8368TIP3    H246520   1.424   5.258  16.521  1.7474  1.0695  0.0021
 8369TIP3   OH246521   5.344   5.207   1.665  0.0757  0.1014 -0.4350
 8369TIP3    H146522   5.320   5.115   1.677  1.6537 -0.4793 -1.4074
 8369TIP3    H246523   5.300   5.253   1.736  0.5615 -1.6588  1.0845
 8370TIP3   OH246524   0.706   2.366  12.353 -0.1015  0.0643 -0.2038
 8370TIP3    H146525   0.648   2.406  12.289 -1.2940 -0.5770  0.4428
 8370TIP3    H246526   0.665   2.282  12.374 -0.0936  0.5051  1.8091
 8371TIP3   OH246527   4.660   0.394   4.966  0.6440  0.2236  0.1773
 8371TIP3    H146528   4.574   0.365   4.935 -1.4141  1.5814  3.9300
 8371TIP3    H246529   4.720   0.326   4.936 -1.2292  0.1256 -4.2508
 8372TIP3   OH246530   6.404   0.723  12.174  0.5394  0.5448 -0.7576
 8372TIP3    H146531   6.491   0.754  12.149  0.0450  0.4407 -2.7790
 8372TIP3    H246532   6.349   0.743  12.099 -1.0793  0.0893  0.2559
 8373TIP3   OH246533   0.871   1.050   6.477 -0.6705 -0.0505  0.3035
 8373TIP3    H146534   0.864   1.118   6.411 -1.8062  1.1395  1.5805
 8373TIP3    H246535   0.915   0.977   6.433 -0.8980  0.8998 -1.5649
 8374TIP3   OH246536   3.104   6.292  15.490  0.4625 -0.0021 -0.4750
 8374TIP3    H146537   3.153   6.340  15.556  1.7544 -1.0027 -0.6627
 8374TIP3    H246538   3.013   6.311  15.508  0.7693 -0.4010  1.7276
 8375TIP3   OH246539   6.548   2.153   4.300  0.3764  0.2078 -0.2437
 8375TIP3    H146540   6.456   2.175   4.288  0.2725  0.0208  0.1758
 8375TIP3    H246541   6.552   2.058   4.291  0.0354 -0.1694  2.4971
 8376TIP3   OH246542   1.095   5.074  15.842 -0.2436  0.3545  0.1945
 8376TIP3    H146543   1.058   5.092  15.929  0.5809  0.6475  0.4911
 8376TIP3    H246544   1.112   4.980  15.842  3.4382  0.8428  1.8846
 8377TIP3   OH246545   6.520   0.396   1.044  0.0589 -0.6484  0.3253
 8377TIP3    H146546   6.521   0.350   1.128  2.1308 -2.7597 -0.7388
 8377TIP3    H246547   6.445   0.359   0.997 -1.3387  0.8091  1.2797
 8378TIP3   OH246548   5.335   0.462   1.066 -0.4044 -0.4080  0.2846
 8378TIP3    H146549   5.339   0.433   0.975 -2.9433 -0.0357 -0.0271
 8378TIP3    H246550   5.329   0.382   1.117 -0.6586 -0.5769 -0.0106
 8379TIP3   OH246551   3.272   2.889   6.256  0.1027 -0.9108  0.0024
 8379TIP3    H146552   3.333   2.953   6.293 -0.6877 -0.7844  1.1548
 8379TIP3    H246553   3.280   2.812   6.312  0.2445 -1.4161 -0.7066
 8380TIP3   OH246554   3.808   0.854  16.568 -0.1531 -0.6147 -0.0584
 8380TIP3    H146555   3.714   0.835  16.563  0.0742 -1.7239 -0.4245
 8380TIP3    H246556   3.848   0.792  16.508  0.7687  0.3049 -0.4167
 8381TIP3   OH246557   3.263   5.858  12.569  0.3984 -0.0895  0.7838
 8381TIP3    H146558   3.275   5.915  12.493 -1.6328  0.6173  0.9304
 8381TIP3    H246559   3.255   5.770  12.532 -1.4484  0.3482  0.0364
 8382TIP3   OH246560   5.405   5.300  15.336  0.1590  0.1692  0.1845
 8382TIP3    H146561   5.352   5.226  15.309  0.1076 -0.0026  0.7392
 8382TIP3    H246562   5.452   5.269  15.413  1.0028  0.3466 -0.2424
 8383TIP3   OH246563   2.993   0.591   6.220  0.3112  0.4407 -0.1572
 8383TIP3    H146564   2.946   0.663   6.264 -0.3258  0.8153 -1.3974
 8383TIP3    H246565   2.933   0.517   6.226 -0.0480  0.6635 -0.9251
 8384TIP3   OH246566   4.997   1.282   6.065  0.2752 -0.3064  0.3146
 8384TIP3    H146567   4.955   1.286   6.151 -2.7668  0.7910 -1.1026
 8384TIP3    H246568   5.032   1.371   6.052 -2.7582  0.8265 -1.0659
 8385TIP3   OH246569   3.636   0.947  11.884  0.0680  0.2052 -0.0711
 8385TIP3    H146570   3.543   0.966  11.867  0.7311  1.5897 -2.8977
 8385TIP3    H246571   3.673   1.033  11.905  0.6092 -0.4889  2.0301
 8386TIP3   OH246572   3.143   3.482  15.492 -0.4644  0.3767 -0.4761
 8386TIP3    H146573   3.165   3.389  15.490  2.1668  0.8814  0.8098
 8386TIP3    H246574   3.177   3.516  15.409  1.4285  0.6766  0.3712
 8387TIP3   OH246575   6.233   4.712  16.273 -0.8118  0.4651 -0.0043
 8387TIP3    H146576   6.286   4.728  16.195 -0.1418 -1.3325  0.0332
 8387TIP3    H246577   6.158   4.662  16.241 -0.6446 -0.0957  0.4713
 8388TIP3   OH246578   0.296   1.689   1.497 -0.5433  0.2594  0.2812
 8388TIP3    H146579   0.259   1.677   1.585 -1.5151 -1.3222 -0.2938
 8388TIP3    H246580   0.384   1.652   1.503 -0.9293 -0.6790  0.3911
 8389TIP3   OH246581   0.237   0.622   4.169 -0.0378 -0.6905  0.3044
 8389TIP3    H146582   0.232   0.643   4.075  1.1072 -2.4953 -0.2106
 8389TIP3    H246583   0.282   0.538   4.172  1.6682  0.2048  2.5999
 8390TIP3   OH246584   6.333   3.659  13.142 -0.3495 -0.0266 -0.1248
 8390TIP3    H146585   6.267   3.694  13.082 -0.0878  0.5083 -0.1071
 8390TIP3    H246586   6.381   3.594  13.091 -0.6931 -0.1948 -0.2309
 8391TIP3   OH246587   5.220   3.679  12.064 -0.4792  0.0882 -0.3315
 8391TIP3    H146588   5.278   3.640  11.998 -1.2490 -0.8343 -0.4751
 8391TIP3    H246589   5.135   3.640  12.047 -1.1284  1.3282 -0.0235
 8392TIP3   OH246590   2.318   4.061   3.930 -0.6061  0.5900 -0.7673
 8392TIP3    H146591   2.298   4.142   3.883  0.5198  1.3153 -0.0487
 8392TIP3    H246592   2.407   4.073   3.961 -1.2209  0.0879  1.4069
 8393TIP3   OH246593   5.723   1.063  11.481 -0.6917  0.4896  0.4096
 8393TIP3    H146594   5.675   1.106  11.551  0.3796  1.2559  0.6992
 8393TIP3    H246595   5.797   1.021  11.525 -0.6722 -0.0528 -0.1193
 8394TIP3   OH246596   1.874   1.564  14.287 -0.0504  0.1988 -0.7258
 8394TIP3    H146597   1.938   1.529  14.349 -0.4233  0.4179 -0.2110
 8394TIP3    H246598   1.927   1.609  14.221  0.3449  0.0524 -0.5138
 8395TIP3   OH246599   0.597   0.046  14.825 -0.1108 -0.3693  0.0411
 8395TIP3    H146600   0.662  -0.006  14.779  1.0981  2.4428 -1.7303
 8395TIP3    H246601   0.568   0.111  14.760 -1.4069  1.2342  2.0883
 8396TIP3   OH246602   0.484   2.515  14.368 -0.2507 -0.0153  0.2242
 8396TIP3    H146603   0.448   2.434  14.333  0.9249 -1.1156  1.4554
 8396TIP3    H246604   0.573   2.519  14.335 -0.0889  0.4516  0.6900
 8397TIP3   OH246605   6.444   5.222   5.245 -0.3069 -0.1999 -0.0590
 8397TIP3    H146606   6.404   5.282   5.308 -0.6201  0.2519 -0.6793
 8397TIP3    H246607   6.525   5.264   5.219  0.4303 -0.9574  0.9403
 8398TIP3   OH246608   3.589   6.418  12.903 -0.6115 -0.3460  0.8104
 8398TIP3    H146609   3.509   6.445  12.858  0.0072  1.9470  0.9687
 8398TIP3    H246610   3.558   6.377  12.984 -1.6745  1.6552  1.4895
 8399TIP3   OH246611   2.736   0.000   0.202 -0.1577  0.1652 -0.0258
 8399TIP3    H146612   2.660   0.044   0.162  0.2247  0.3787 -0.5202
 8399TIP3    H246613   2.805   0.066   0.199 -0.2062  0.3069  1.2961
 8400TIP3   OH246614   5.031   1.782   5.298  0.6633  0.0534  0.1858
 8400TIP3    H146615   4.975   1.756   5.371  2.7791 -1.0025  1.5298
 8400TIP3    H246616   4.972   1.827   5.237 -1.2912  0.4370  2.2379
 8401TIP3   OH246617   5.223   6.244  15.219 -0.1298  0.4638 -0.1438
 8401TIP3    H146618   5.175   6.217  15.298 -2.0867  1.2221 -1.0087
 8401TIP3    H246619   5.233   6.339  15.229  4.2559  0.0716  1.5704
 8402TIP3   OH246620   5.194   6.416   3.179 -0.3118  0.5941  0.7122
 8402TIP3    H146621   5.224   6.359   3.249 -2.3425  0.7071  1.7535
 8402TIP3    H246622   5.198   6.362   3.100 -2.6065 -1.2203  1.7350
 8403TIP3   OH246623   0.180   0.166  11.215 -1.0548  0.0224  0.1906
 8403TIP3    H146624   0.222   0.091  11.174 -0.0089  0.8047 -0.2259
 8403TIP3    H246625   0.141   0.132  11.295 -0.9073 -1.0235 -0.1702
 8404TIP3   OH246626   6.497   3.507   5.851  0.4561 -0.3660 -0.5130
 8404TIP3    H146627   6.455   3.592   5.842 -0.4469 -0.9060 -1.6396
 8404TIP3    H246628   6.426   3.443   5.841  0.9478 -1.2624  1.2448
 8405TIP3   OH246629   6.742   4.697   1.339  0.2133 -0.4257 -0.2081
 8405TIP3    H146630   6.798   4.725   1.266  1.1451 -0.1456  0.5924
 8405TIP3    H246631   6.729   4.603   1.324  0.7769 -0.4630 -0.5003
 8406TIP3   OH246632   1.139   4.963   2.400  0.0043  0.2837 -0.3103
 8406TIP3    H146633   1.139   4.868   2.408  0.0617  0.1767 -1.3989
 8406TIP3    H246634   1.089   4.980   2.320 -0.5242  1.2091  0.1959
 8407TIP3   OH246635   4.455   1.108   0.319  0.0366  0.0632 -0.4172
 8407TIP3    H146636   4.529   1.058   0.284 -0.3622 -0.6252 -0.2933
 8407TIP3    H246637   4.402   1.128   0.242  0.0272  0.0137 -0.4235
 8408TIP3   OH246638   3.484   1.268  16.315 -0.8604 -0.2262 -0.0390
 8408TIP3    H146639   3.536   1.188  16.320 -1.1812 -0.6027 -1.9921
 8408TIP3    H246640   3.419   1.251  16.247 -1.1457  1.5862 -0.2841
 8409TIP3   OH246641   5.857   3.476  13.686  0.0706  0.6072  0.5823
 8409TIP3    H146642   5.838   3.441  13.773  1.8531  1.2075  1.2615
 8409TIP3    H246643   5.788   3.541  13.671 -1.2683 -0.7075  0.7636
 8410TIP3   OH246644   6.638   2.921   4.029  0.1236  0.0619  0.0638
 8410TIP3    H146645   6.630   2.892   4.120  1.0844 -1.0092 -0.1546
 8410TIP3    H246646   6.585   2.859   3.979  0.3823  0.0422 -0.1932
 8411TIP3   OH246647   0.686   4.931  12.442 -0.5452 -0.3395 -0.3547
 8411TIP3    H146648   0.594   4.947  12.461 -0.7506 -1.2322 -0.5189
 8411TIP3    H246649   0.706   4.850  12.490  0.8003  1.0803  1.6186
 8412TIP3   OH246650   4.484   4.692  15.084  0.9907  0.1539  0.6730
 8412TIP3    H146651   4.520   4.671  15.170  3.0980  0.7150 -0.0158
 8412TIP3    H246652   4.529   4.633  15.024 -1.5966 -1.3412  0.0636
 8413TIP3   OH246653   1.239   0.275  11.546  0.4439 -0.0955 -0.1361
 8413TIP3    H146654   1.302   0.308  11.610 -1.0198  1.6003  0.5222
 8413TIP3    H246655   1.188   0.352  11.521 -0.6221 -1.1919 -1.5150
 8414TIP3   OH246656   0.701   6.054   4.989  0.0980  0.6260 -0.1854
 8414TIP3    H146657   0.742   6.007   4.916  0.2847  0.0703  0.2700
 8414TIP3    H246658   0.771   6.063   5.054 -0.2118  0.6423  0.1479
 8415TIP3   OH246659   3.268   1.923   6.265  0.3632 -0.4274  0.7288
 8415TIP3    H146660   3.181   1.945   6.298  0.0397  0.0269 -0.3613
 8415TIP3    H246661   3.291   1.841   6.310 -1.0906 -1.1401  0.2640
 8416TIP3   OH246662   4.520   5.545  11.247  0.4016 -0.0360  0.2509
 8416TIP3    H146663   4.536   5.518  11.157 -0.3068  0.6644 -0.0946
 8416TIP3    H246664   4.460   5.619  11.240  1.2978  0.8189  1.2378
 8417TIP3   OH246665   4.776   0.584  15.426  0.2386 -0.5886 -0.0337
 8417TIP3    H146666   4.811   0.495  15.426 -0.4084 -0.8576  0.6275
 8417TIP3    H246667   4.827   0.631  15.360  0.2974 -1.5666 -0.6976
 8418TIP3   OH246668   5.453   0.298  16.166 -0.4373 -0.0462 -0.6156
 8418TIP3    H146669   5.484   0.380  16.203  0.5403  0.5241 -2.5467
 8418TIP3    H246670   5.358   0.301  16.176 -0.2162 -0.3182  2.4539
 8419TIP3   OH246671   0.725   5.941   0.152 -0.9608 -0.0359  0.5096
 8419TIP3    H146672   0.701   6.018   0.205 -1.7125 -0.1841  0.3825
 8419TIP3    H246673   0.718   5.971   0.062 -1.8371 -0.4205  0.4436
 8420TIP3   OH246674   3.611   4.221  14.533  0.0865 -0.7343 -0.0144
 8420TIP3    H146675   3.632   4.161  14.462  0.3171 -1.4127  0.6139
 8420TIP3    H246676   3.520   4.247  14.517  0.7601  0.8046 -1.7397
 8421TIP3   OH246677   3.921   0.889  13.749 -0.3013  0.8007  0.1580
 8421TIP3    H146678   3.871   0.807  13.755  0.0740  0.5698  0.1848
 8421TIP3    H246679   3.855   0.957  13.737 -0.6539  0.5514  0.6517
 8422TIP3   OH246680   5.182   3.674   1.173  0.0156  0.7706 -0.2825
 8422TIP3    H146681   5.194   3.580   1.186 -0.6421  0.8615  1.2184
 8422TIP3    H246682   5.266   3.704   1.140  0.3324 -0.2974 -0.4989
 8423TIP3   OH246683   1.386   0.846   2.216  0.1139  0.0622 -0.1405
 8423TIP3    H146684   1.297   0.827   2.247 -0.4060  2.7487  0.1912
 8423TIP3    H246685   1.435   0.863   2.296  1.2651 -2.2951 -0.2420
 8424TIP3   OH246686   3.512   5.734   2.896  0.2976  0.8007  0.4883
 8424TIP3    H146687   3.466   5.692   2.969  0.6107  1.1528  0.8928
 8424TIP3    H246688   3.604   5.712   2.909  0.1967 -0.4158 -0.6654
 8425TIP3   OH246689   2.576   5.256  16.038  0.1250 -0.5099 -0.2609
 8425TIP3    H146690   2.498   5.285  15.990 -0.1095 -0.8838 -0.1114
 8425TIP3    H246691   2.582   5.315  16.113  0.4590  0.0409 -0.7100
 8426TIP3   OH246692   4.688   4.479  14.680  0.2056  0.2539  0.0196
 8426TIP3    H146693   4.595   4.480  14.702 -0.1042  0.9185 -1.2506
 8426TIP3    H246694   4.710   4.386  14.675 -0.8906  0.0577 -1.6281
 8427TIP3   OH246695   3.767   2.775  15.230  0.3347 -0.4379  0.2708
 8427TIP3    H146696   3.680   2.744  15.206 -0.7306  0.8957  2.1479
 8427TIP3    H246697   3.784   2.735  15.316  1.2334 -0.0287  0.3014
 8428TIP3   OH246698   5.076   0.920  15.287 -0.3818 -0.0162 -0.1723
 8428TIP3    H146699   5.051   0.858  15.218 -1.8252  0.3266 -0.0086
 8428TIP3    H246700   4.994   0.936  15.334 -0.3868  2.9900 -1.0186
 8429TIP3   OH246701   4.309   5.600  11.811 -0.1695  0.0819 -0.8355
 8429TIP3    H146702   4.251   5.660  11.763 -1.1793 -0.3954 -0.2655
 8429TIP3    H246703   4.257   5.520  11.821  1.0242 -0.7717 -1.2700
 8430TIP3   OH246704   5.010   5.926   3.763  0.3156  0.5376 -0.0439
 8430TIP3    H146705   4.949   5.955   3.695 -1.3731  1.4024  1.7579
 8430TIP3    H246706   5.028   6.005   3.814  2.2912  0.1053  0.0061
 8431TIP3   OH246707   1.690   5.228  11.606 -0.4583 -0.1914 -0.0148
 8431TIP3    H146708   1.682   5.200  11.515 -2.0834  1.2638 -0.3835
 8431TIP3    H246709   1.611   5.195  11.648 -0.2321  0.0501  0.6111
 8432TIP3   OH246710   4.445   5.089  16.611 -0.8833  0.3440 -0.4438
 8432TIP3    H146711   4.521   5.132  16.571 -0.2388 -1.3939 -1.1737
 8432TIP3    H246712   4.387   5.162  16.635  0.1539  1.6207 -1.6013
 8433TIP3   OH246713   5.959   5.825  11.476  0.0200  0.2828  0.3210
 8433TIP3    H146714   5.874   5.786  11.496  0.3671 -0.1176  1.0736
 8433TIP3    H246715   6.023   5.760  11.508  0.6053  0.5859 -0.2103
 8434TIP3   OH246716   1.820   4.468   2.451  0.1514 -0.0131  0.7586
 8434TIP3    H146717   1.845   4.417   2.374 -2.3342 -0.2764  0.0532
 8434TIP3    H246718   1.886   4.447   2.516  2.0857 -0.1454 -1.1169
 8435TIP3   OH246719   0.117   3.749   2.662 -0.2785 -0.6521  0.4667
 8435TIP3    H146720   0.134   3.744   2.756 -1.2102 -0.9454  0.6292
 8435TIP3    H246721   0.099   3.659   2.637 -0.4481 -0.5153  0.0940
 8436TIP3   OH246722   4.228   0.175   6.017 -0.2901  0.2187 -0.6901
 8436TIP3    H146723   4.284   0.134   6.083 -0.7224 -1.8105 -1.5095
 8436TIP3    H246724   4.144   0.188   6.060 -0.5689 -1.0943 -0.8046
 8437TIP3   OH246725   0.697   2.561  17.152 -0.1302  0.4700 -0.0136
 8437TIP3    H146726   0.770   2.547  17.092 -0.0786 -0.8922  0.3295
 8437TIP3    H246727   0.733   2.546  17.239 -1.0033 -1.2608  0.1009
 8438TIP3   OH246728   5.066   0.675   4.779  0.1453  0.0616 -0.6622
 8438TIP3    H146729   5.016   0.601   4.745  1.5309 -0.4859 -1.5942
 8438TIP3    H246730   5.157   0.646   4.777  0.8080  1.9657 -1.6181
 8439TIP3   OH246731   3.948   0.602   4.572  0.5638  0.4398 -0.1061
 8439TIP3    H146732   3.869   0.551   4.593 -1.1768  1.4284 -3.5189
 8439TIP3    H246733   3.968   0.649   4.652 -0.6286 -1.9005  1.7018
 8440TIP3   OH246734   3.225   2.134   3.978 -0.0498 -0.1745 -0.0364
 8440TIP3    H146735   3.227   2.216   3.928  1.5712 -0.8798 -1.2233
 8440TIP3    H246736   3.203   2.161   4.067 -1.1489  1.3459 -0.7097
 8441TIP3   OH246737   0.634   3.419   3.868 -0.7840  0.2399  0.2347
 8441TIP3    H146738   0.665   3.501   3.907  2.1631  0.0197 -1.3981
 8441TIP3    H246739   0.709   3.361   3.870 -2.4091 -2.0063  0.0685
 8442TIP3   OH246740   3.559   3.992   3.802 -0.0210 -0.2076 -0.2910
 8442TIP3    H146741   3.532   4.020   3.889 -0.9962  0.7967 -0.9009
 8442TIP3    H246742   3.600   4.070   3.763  2.1583 -1.1591 -0.0766
 8443TIP3   OH246743   0.802   2.135  10.419  0.1298  0.8491 -0.4053
 8443TIP3    H146744   0.884   2.085  10.419 -0.4057 -0.0659  0.5965
 8443TIP3    H246745   0.795   2.169  10.509 -1.4207 -0.5124  0.0365
 8444TIP3   OH246746   5.444   1.332   3.149 -0.1134  0.5823 -0.1939
 8444TIP3    H146747   5.406   1.365   3.068 -0.3898 -0.7544 -0.6348
 8444TIP3    H246748   5.522   1.385   3.163  0.2325  0.4716 -1.6223
 8445TIP3   OH246749   2.478   0.814   0.668  0.2604  0.6151  0.1387
 8445TIP3    H146750   2.480   0.796   0.574 -0.0133 -2.3638  0.6191
 8445TIP3    H246751   2.551   0.764   0.705 -3.3514 -3.9509  2.1672
 8446TIP3   OH246752   3.989   1.541   5.561  0.2104 -0.1241  0.2748
 8446TIP3    H146753   3.932   1.489   5.617 -0.4697 -0.8596 -1.0509
 8446TIP3    H246754   4.078   1.514   5.585 -0.0740 -0.5184  0.9012
 8447TIP3   OH246755   4.654   0.864   4.953  0.4635 -0.3543 -0.4855
 8447TIP3    H146756   4.678   0.790   4.897 -0.0536  0.4321 -1.8118
 8447TIP3    H246757   4.560   0.875   4.939  0.4067  0.1413  0.2156
 8448TIP3   OH246758   2.237   6.017   3.946  0.0214 -0.1160 -0.3381
 8448TIP3    H146759   2.230   5.961   4.023 -0.7712  0.6529  0.1683
 8448TIP3    H246760   2.314   5.985   3.900 -0.6224 -1.8633 -0.2725
 8449TIP3   OH246761   3.225   0.518   6.004  0.3603  0.2439  0.8108
 8449TIP3    H146762   3.274   0.556   5.931  1.4221 -0.6672  1.0225
 8449TIP3    H246763   3.145   0.570   6.009  1.5472  2.1670  0.8121
 8450TIP3   OH246764   5.991   2.736   0.014 -0.2790 -0.1535 -0.0074
 8450TIP3    H146765   5.906   2.692   0.020 -0.1431 -0.3860  0.2404
 8450TIP3    H246766   6.054   2.664   0.009 -0.1049  0.0198 -0.2856
 8451TIP3   OH246767   5.988   1.861   0.148 -0.5774  0.1992 -0.1275
 8451TIP3    H146768   6.025   1.780   0.183  0.9522  0.4674 -1.0217
 8451TIP3    H246769   6.060   1.923   0.151 -1.6528  1.4861  0.2935
 8452TIP3   OH246770   2.108   1.450  14.949 -0.3264  0.2054 -0.5364
 8452TIP3    H146771   2.080   1.389  15.018  1.6862  0.1428  0.3221
 8452TIP3    H246772   2.027   1.481  14.909 -1.5432 -0.2421  1.4488
 8453TIP3   OH246773   4.647   4.376  13.331 -0.2628  0.5184  0.3953
 8453TIP3    H146774   4.679   4.443  13.391 -0.0102  0.7996 -0.0470
 8453TIP3    H246775   4.653   4.294  13.381  1.1255  0.5625  0.3368
 8454TIP3   OH246776   1.515   5.904  14.967  0.1130  0.0402  0.5724
 8454TIP3    H146777   1.531   5.892  14.874  1.0223  1.5780  0.4934
 8454TIP3    H246778   1.422   5.884  14.978 -1.0298  3.4333 -1.4267
 8455TIP3   OH246779   2.904   6.589   1.589  0.7414 -1.0698  0.2797
 8455TIP3    H146780   2.890   6.636   1.507 -0.4389  0.5092  1.3277
 8455TIP3    H246781   2.845   6.514   1.583 -0.2920 -0.2789  0.1671
 8456TIP3   OH246782   6.638   4.597  14.500 -0.6754  0.4087 -0.3610
 8456TIP3    H146783   6.612   4.623  14.589 -1.7690 -2.5803  0.3024
 8456TIP3    H246784   6.647   4.680  14.453  0.9698  2.1999  2.7511
 8457TIP3   OH246785   1.644   6.304  14.437  0.0653  0.5934 -0.0284
 8457TIP3    H146786   1.710   6.353  14.486 -0.1013  1.3582 -0.5480
 8457TIP3    H246787   1.561   6.347  14.458 -0.1417  0.2611 -0.1524
 8458TIP3   OH246788   3.012   4.965   4.015 -0.2463  0.3466 -0.2179
 8458TIP3    H146789   3.014   5.001   3.926 -1.3192 -0.8825 -0.7598
 8458TIP3    H246790   3.002   4.871   4.004 -0.1490  0.1324  1.2197
 8459TIP3   OH246791   6.353   2.167   5.848 -0.1211  0.0063  0.2599
 8459TIP3    H146792   6.295   2.150   5.922  0.5320  1.6287  1.1841
 8459TIP3    H246793   6.381   2.081   5.819 -2.1307 -0.7745  0.4583
 8460TIP3   OH246794   5.098   3.196   1.547  0.0590 -0.3188  0.0243
 8460TIP3    H146795   5.055   3.212   1.631  1.2903 -0.6393  0.7329
 8460TIP3    H246796   5.115   3.283   1.512 -1.3093 -0.1829 -0.3660
 8461TIP3   OH246797   5.309   0.152  10.567  0.0191 -0.3382 -0.1870
 8461TIP3    H146798   5.218   0.179  10.580  0.5292  0.7729  1.3451
 8461TIP3    H246799   5.325   0.168  10.474 -1.9873 -2.7257 -1.0840
 8462TIP3   OH246800   2.353   0.900   5.974 -0.2914 -0.3069 -0.5944
 8462TIP3    H146801   2.411   0.975   5.988 -0.7410 -0.4949  3.1121
 8462TIP3    H246802   2.410   0.824   5.978 -0.4866 -0.3966  1.3690
 8463TIP3   OH246803   1.967   4.661  14.167  0.3601 -0.8645 -0.4082
 8463TIP3    H146804   2.013   4.727  14.115 -0.9280  0.2112 -0.2300
 8463TIP3    H246805   1.878   4.661  14.132  0.1661 -2.0511  0.0384
 8464TIP3   OH246806   3.696   4.088  17.111 -0.1797  0.3423 -0.0135
 8464TIP3    H146807   3.773   4.039  17.082 -1.1570  0.1017 -2.5223
 8464TIP3    H246808   3.722   4.180  17.103  0.0578  0.2599 -0.2048
 8465TIP3   OH246809   4.926   2.471  13.151 -0.1627 -0.2235 -0.6205
 8465TIP3    H146810   4.877   2.456  13.232  3.3478 -0.0333  1.7239
 8465TIP3    H246811   4.986   2.396  13.145  1.9059  1.3875 -1.1702
 8466TIP3   OH246812   5.793   0.586  14.450 -0.3070  0.1655 -0.7833
 8466TIP3    H146813   5.783   0.674  14.486 -0.7600 -0.5933  1.0431
 8466TIP3    H246814   5.886   0.565  14.464 -0.0073  0.6378 -1.9620
 8467TIP3   OH246815   3.025   5.664   3.924  0.4397 -0.1663 -0.1684
 8467TIP3    H146816   2.931   5.670   3.940  0.7149  0.7022  1.3130
 8467TIP3    H246817   3.054   5.592   3.980  0.6189 -0.7221 -0.9472
 8468TIP3   OH246818   4.865   3.292  17.005 -0.1823  0.4199  0.4110
 8468TIP3    H146819   4.854   3.387  17.009  2.8832  0.9191 -0.5569
 8468TIP3    H246820   4.837   3.269  16.917  1.9147  0.9690 -0.4536
 8469TIP3   OH246821   0.366   1.857  13.884 -0.2808  0.2618  0.2376
 8469TIP3    H146822   0.350   1.856  13.978 -0.1335 -1.7255  0.2715
 8469TIP3    H246823   0.284   1.892  13.846  0.3760  3.0564  1.1445
 8470TIP3   OH246824   5.543   3.967   6.690  0.4418  0.1369  0.2002
 8470TIP3    H146825   5.577   3.984   6.602 -0.0536  0.0878 -0.0075
 8470TIP3    H246826   5.591   4.026   6.747  1.0411 -0.1034 -0.0511
 8471TIP3   OH246827   5.313   1.667  13.665  0.5725  0.1496  0.5391
 8471TIP3    H146828   5.324   1.582  13.622 -0.5034 -0.1259  0.7735
 8471TIP3    H246829   5.291   1.727  13.593 -0.4509 -0.1507  0.5837
 8472TIP3   OH246830   3.544   4.262   1.606 -0.4930  0.2279 -0.3723
 8472TIP3    H146831   3.599   4.244   1.682  0.4865  2.1558 -0.5595
 8472TIP3    H246832   3.470   4.203   1.615  0.7165 -1.1653  0.8618
 8473TIP3   OH246833   5.924   1.596   1.514  0.2831 -0.1063 -0.0441
 8473TIP3    H146834   5.838   1.594   1.470  0.3725  1.0770 -0.3128
 8473TIP3    H246835   5.904   1.575   1.605 -0.6881  2.4085  0.4184
 8474TIP3   OH246836   0.972   2.797  13.116 -0.2614  0.6673 -0.0510
 8474TIP3    H146837   1.022   2.837  13.046 -0.3620  1.2882  0.2244
 8474TIP3    H246838   0.881   2.801  13.087 -0.0992 -1.3369 -0.9835
 8475TIP3   OH246839   2.712   1.646   4.412  0.5061  0.0374  0.1417
 8475TIP3    H146840   2.738   1.558   4.439  0.7931  0.6128  1.8343
 8475TIP3    H246841   2.788   1.679   4.363 -0.2312 -1.2162 -2.0011
 8476TIP3   OH246842   5.341   4.335  13.055  0.0053  0.0975 -0.0289
 8476TIP3    H146843   5.365   4.425  13.035 -0.8989  0.1875 -0.8036
 8476TIP3    H246844   5.424   4.290  13.073  0.4858  1.0005  0.0236
 8477TIP3   OH246845   4.694   3.096   4.994  0.8109 -0.7174 -0.0524
 8477TIP3    H146846   4.651   3.179   4.974  0.6147 -0.6875  0.4871
 8477TIP3    H246847   4.622   3.033   5.000  1.0090 -1.0703 -1.1347
 8478TIP3   OH246848   5.849   3.643  14.356  0.3850 -0.1763  0.0562
 8478TIP3    H146849   5.857   3.704  14.282 -0.7861 -0.2451 -0.1528
 8478TIP3    H246850   5.787   3.577  14.325  0.0961 -0.3610  1.0017
 8479TIP3   OH246851   5.609   5.630  12.938  0.4462  0.0706  0.7267
 8479TIP3    H146852   5.557   5.574  12.995 -0.2450  0.0454  0.0855
 8479TIP3    H246853   5.565   5.626  12.853  0.8629  0.9310  0.4581
 8480TIP3   OH246854   1.664   1.613   1.259 -0.6982  0.0995 -0.1101
 8480TIP3    H146855   1.596   1.550   1.237 -1.8370  1.0878  0.4202
 8480TIP3    H246856   1.633   1.696   1.222  0.0606  0.6420  0.4172
 8481TIP3   OH246857   5.623   1.197   0.129 -0.1494  0.3078  0.1868
 8481TIP3    H146858   5.670   1.163   0.053  0.0558 -4.1753  1.9981
 8481TIP3    H246859   5.689   1.244   0.179  1.6305 -2.4893  0.7204
 8482TIP3   OH246860   4.151   6.308  11.060 -0.3661  0.4414 -0.7500
 8482TIP3    H146861   4.187   6.362  10.989 -0.2140 -0.0063 -1.0230
 8482TIP3    H246862   4.165   6.218  11.030 -1.9237  0.2447 -0.9615
 8483TIP3   OH246863   4.238   4.579  15.055 -0.3232  0.1074 -0.1469
 8483TIP3    H146864   4.331   4.600  15.059 -0.0274 -0.8216 -1.5334
 8483TIP3    H246865   4.212   4.567  15.147  1.1652 -0.6571  0.2027
 8484TIP3   OH246866   3.456   1.474   5.188  0.3453  0.0087  0.2900
 8484TIP3    H146867   3.476   1.440   5.101  0.3489  0.7952 -0.0320
 8484TIP3    H246868   3.402   1.551   5.171 -2.2006 -1.4886  1.0892
 8485TIP3   OH246869   5.014   5.119   0.422  0.4305  0.2996  0.2847
 8485TIP3    H146870   4.979   5.152   0.505 -0.2425 -2.0325  1.0130
 8485TIP3    H246871   4.969   5.170   0.355  0.4760  1.7596  1.3089
 8486TIP3   OH246872   4.766   5.288  17.196 -0.0973 -0.2939  0.1910
 8486TIP3    H146873   4.727   5.327  17.274  1.1328  0.6139  0.3855
 8486TIP3    H246874   4.760   5.357  17.129  1.5014  0.0188  0.3442
 8487TIP3   OH246875   5.408   1.307  11.360  0.2170  0.4744 -0.1598
 8487TIP3    H146876   5.504   1.309  11.358  0.2256 -0.2567 -1.0650
 8487TIP3    H246877   5.383   1.270  11.276 -0.8414 -0.3405  0.4869
 8488TIP3   OH246878   1.685   4.273   6.125 -0.5932  0.4774 -0.7167
 8488TIP3    H146879   1.730   4.282   6.040 -0.5066 -2.1977 -1.0257
 8488TIP3    H246880   1.640   4.189   6.120 -0.3693  0.1116  2.0217
 8489TIP3   OH246881   3.549   0.306   0.443  0.6178  0.6291 -0.7515
 8489TIP3    H146882   3.464   0.325   0.403 -0.1080  1.1873  0.9353
 8489TIP3    H246883   3.527   0.272   0.530  2.1151 -0.4426 -0.7584
 8490TIP3   OH246884   5.592   3.806   4.592 -0.1279  0.3821  0.1943
 8490TIP3    H146885   5.626   3.750   4.662  0.8529 -0.2315 -0.7544
 8490TIP3    H246886   5.584   3.749   4.516 -0.0075  1.3100 -0.5431
 8491TIP3   OH246887   6.059   0.328  13.366 -0.4281  0.4289  0.0362
 8491TIP3    H146888   6.072   0.266  13.294 -0.8340  0.7062 -0.2867
 8491TIP3    H246889   5.966   0.350  13.362 -0.3404  0.8659  0.2976
 8492TIP3   OH246890   0.990   5.174   5.475 -0.3109 -0.0335  0.2477
 8492TIP3    H146891   0.968   5.103   5.535  2.0552 -0.5788  0.5785
 8492TIP3    H246892   1.069   5.213   5.512 -0.0526  1.0567 -1.3465
 8493TIP3   OH246893   1.265   2.891   5.426 -0.0103 -0.4387  0.6087
 8493TIP3    H146894   1.180   2.881   5.382  0.1842  0.8682 -0.1315
 8493TIP3    H246895   1.280   2.986   5.426  1.7452 -0.6884  0.1766
 8494TIP3   OH246896   4.419   5.401   3.413  0.1697  0.2162  0.3290
 8494TIP3    H146897   4.501   5.351   3.421 -0.2351 -0.4757  0.2701
 8494TIP3    H246898   4.355   5.349   3.461 -0.5601 -0.0205 -0.8667
 8495TIP3   OH246899   1.325   5.283   0.952 -0.2754 -0.2208  0.2175
 8495TIP3    H146900   1.284   5.364   0.983 -0.9903 -0.9484  1.2478
 8495TIP3    H246901   1.322   5.224   1.027  0.7296 -1.0354 -0.3493
 8496TIP3   OH246902   4.441   0.099  15.150  0.1179  0.1886 -0.0155
 8496TIP3    H146903   4.409   0.052  15.228  0.7953 -0.7032 -0.2634
 8496TIP3    H246904   4.361   0.131  15.107 -0.4235 -1.3977 -0.2431
 8497TIP3   OH246905   0.921   0.974  13.923 -0.3778 -0.2383  0.4113
 8497TIP3    H146906   0.921   0.919  14.002 -0.7454 -0.3157  0.3570
 8497TIP3    H246907   0.996   0.941  13.872 -0.7901 -0.9132  0.2258
 8498TIP3   OH246908   3.298   0.750   2.915 -0.3178 -0.3093 -0.2129
 8498TIP3    H146909   3.282   0.709   3.000 -0.7060 -0.0485 -0.1607
 8498TIP3    H246910   3.359   0.690   2.871 -0.9460 -0.9875 -0.1732
 8499TIP3   OH246911   5.778   3.538  12.086 -0.3120 -0.2450  0.2783
 8499TIP3    H146912   5.837   3.603  12.124 -1.1950  0.8264 -0.1082
 8499TIP3    H246913   5.753   3.482  12.159  0.9908 -0.5718  0.4849
 8500TIP3   OH246914   3.751   6.248  11.427 -0.5976  0.4017  0.3650
 8500TIP3    H146915   3.714   6.161  11.443 -1.7321  1.1003  1.7830
 8500TIP3    H246916   3.827   6.232  11.372 -0.8858 -1.4713  0.4503
 8501TIP3   OH246917   2.716   5.250   3.594 -0.0834 -0.2933  0.4401
 8501TIP3    H146918   2.756   5.165   3.580 -0.6342 -0.2719 -1.7727
 8501TIP3    H246919   2.718   5.292   3.507 -0.7244  1.5335  1.2449
 8502TIP3   OH246920   1.811   6.549   0.822 -0.1230  0.2152 -0.4356
 8502TIP3    H146921   1.761   6.608   0.880  1.0010 -0.5783  1.4175
 8502TIP3    H246922   1.881   6.515   0.877  0.6329 -1.0896 -2.1233
 8503TIP3   OH246923   5.951   0.405   5.157  0.0332  0.4668 -0.3186
 8503TIP3    H146924   5.979   0.424   5.067  0.6153 -0.5594 -0.3697
 8503TIP3    H246925   6.016   0.449   5.212  0.6113 -0.2471 -0.4215
 8504TIP3   OH246926   6.492   4.035  14.797  0.1842 -0.0829 -0.3422
 8504TIP3    H146927   6.523   3.946  14.809  0.8574  0.4072  2.1178
 8504TIP3    H246928   6.420   4.044  14.860 -1.0249  0.6224 -1.7680
 8505TIP3   OH246929   2.057   2.658  12.475  0.2351  0.7935 -0.1932
 8505TIP3    H146930   1.994   2.648  12.547  1.1723  0.9102  0.6655
 8505TIP3    H246931   2.042   2.581  12.420 -1.0398  1.1070 -0.3241
 8506TIP3   OH246932   3.975   2.061   3.239  0.0200 -0.3031 -0.5272
 8506TIP3    H146933   4.066   2.085   3.221 -0.1521  1.2039  0.4365
 8506TIP3    H246934   3.966   1.974   3.201  2.4885 -1.4573  1.1844
 8507TIP3   OH246935   2.541   0.335   1.674 -0.1443 -0.7114  0.5691
 8507TIP3    H146936   2.460   0.329   1.725  0.4694  0.4937  1.7532
 8507TIP3    H246937   2.530   0.415   1.622  1.2656  0.9644  2.6677
 8508TIP3   OH246938   1.880   6.103  12.366 -0.0425  0.0805  0.1289
 8508TIP3    H146939   1.841   6.029  12.320  0.9254  0.9497 -2.2254
 8508TIP3    H246940   1.885   6.075  12.458 -3.2519 -1.2140  0.0061
 8509TIP3   OH246941   0.235   4.440  15.219 -0.0670 -0.8565 -0.0540
 8509TIP3    H146942   0.159   4.454  15.163  0.3996 -0.1161 -0.5253
 8509TIP3    H246943   0.200   4.445  15.308 -0.4212  0.5420 -0.2439
 8510TIP3   OH246944   1.029   3.356   0.935 -0.6481  0.6195 -0.3198
 8510TIP3    H146945   1.121   3.362   0.910 -0.9252 -0.5835 -1.7214
 8510TIP3    H246946   1.031   3.348   1.030  0.7216  0.0358 -0.3755
 8511TIP3   OH246947   0.355   4.526   0.842 -0.1260  0.3579  0.2891
 8511TIP3    H146948   0.337   4.603   0.897 -2.0744  1.1667 -1.3505
 8511TIP3    H246949   0.451   4.520   0.840  0.0403  1.4750  2.1136
 8512TIP3   OH246950   3.221   5.284   1.645 -0.4059  0.3639  0.4539
 8512TIP3    H146951   3.316   5.273   1.657 -0.4590 -0.1271  0.4216
 8512TIP3    H246952   3.214   5.361   1.588 -0.0120  0.2237  0.2074
 8513TIP3   OH246953   0.698   0.868   3.015  0.1808  0.0379  0.1249
 8513TIP3    H146954   0.735   0.795   2.965 -0.9320  0.1127 -0.8388
 8513TIP3    H246955   0.663   0.827   3.094 -0.2356 -0.4593 -0.3049
 8514TIP3   OH246956   2.301   3.234  15.553 -0.6438 -0.6596  0.1965
 8514TIP3    H146957   2.370   3.232  15.486 -0.0853 -0.0502  0.7395
 8514TIP3    H246958   2.345   3.204  15.633 -0.5309  1.3786  0.9529
 8515TIP3   OH246959   4.902   5.155  15.586  0.2885  0.9033  0.1527
 8515TIP3    H146960   4.939   5.153  15.674 -0.8495  1.2704  0.6606
 8515TIP3    H246961   4.915   5.066  15.553  1.6606  1.0397  0.2714
 8516TIP3   OH246962   1.003   6.157  15.185  0.0637  0.4161 -0.7093
 8516TIP3    H146963   0.960   6.153  15.100 -1.0414  1.2267 -0.2179
 8516TIP3    H246964   1.081   6.211  15.170  0.9044 -1.0042 -1.5944
 8517TIP3   OH246965   6.625   6.691   3.606  0.2229 -0.0597 -0.0988
 8517TIP3    H146966   6.606   6.750   3.679 -2.0514 -0.0483 -0.6244
 8517TIP3    H246967   6.620   6.747   3.528  0.6149 -0.4673 -0.4206
 8518TIP3   OH246968   2.213   0.291   5.372  0.4618  0.1148 -0.8115
 8518TIP3    H146969   2.158   0.253   5.441 -0.8205 -0.2715 -2.0101
 8518TIP3    H246970   2.237   0.216   5.317  0.9365  0.5084 -1.1428
 8519TIP3   OH246971   6.177   5.197   0.216  0.0376  0.2141  0.1909
 8519TIP3    H146972   6.226   5.270   0.180  1.9930 -0.1257  2.0057
 8519TIP3    H246973   6.128   5.162   0.142 -1.9559  4.0211 -0.5479
 8520TIP3   OH246974   3.497   6.162  16.798 -0.1450  0.0497 -0.4069
 8520TIP3    H146975   3.421   6.132  16.748  0.1222 -1.3046 -0.0341
 8520TIP3    H246976   3.564   6.179  16.732 -0.5154  0.5030 -0.6757
 8521TIP3   OH246977   2.767   4.379  11.406 -0.5019  0.2892  0.3784
 8521TIP3    H146978   2.742   4.295  11.366  0.1157  0.6732 -0.8697
 8521TIP3    H246979   2.757   4.443  11.335  2.3219  0.7360  0.2797
 8522TIP3   OH246980   6.104   6.486   3.824 -0.3581  0.8705  0.2940
 8522TIP3    H146981   6.042   6.542   3.777 -0.9710 -1.1229 -1.4376
 8522TIP3    H246982   6.167   6.458   3.757 -0.5923 -1.1605  0.8537
 8523TIP3   OH246983   4.338   0.012  12.543  0.4976 -0.4658  0.1435
 8523TIP3    H146984   4.403   0.080  12.523 -0.0547  0.4805  1.4061
 8523TIP3    H246985   4.353  -0.009  12.635 -1.3756  0.2400  0.6448
 8524TIP3   OH246986   3.435   0.173  11.740  0.1264  0.1044  0.0535
 8524TIP3    H146987   3.347   0.210  11.735  0.4073  0.8934  0.7804
 8524TIP3    H246988   3.423   0.088  11.782 -0.3146  0.1079 -0.0592
 8525TIP3   OH246989   5.074   1.284   1.784 -0.0599 -0.4730  0.1106
 8525TIP3    H146990   5.112   1.364   1.748 -0.6054 -1.2040 -2.2412
 8525TIP3    H246991   5.148   1.227   1.802  0.2011 -0.2243 -0.1799
 8526TIP3   OH246992   0.117   4.752  12.074 -0.1287 -0.2331  0.0203
 8526TIP3    H146993   0.079   4.811  12.009 -0.8504  0.2389  0.8392
 8526TIP3    H246994   0.210   4.775  12.077 -0.2909  0.4476 -0.1005
 8527TIP3   OH246995   3.169   3.098   5.568 -0.3092  0.3761  0.0973
 8527TIP3    H146996   3.208   3.138   5.490  1.3852  1.0503  1.2317
 8527TIP3    H246997   3.226   3.024   5.589 -2.1768 -1.3740 -0.6983
 8528TIP3   OH246998   0.362   5.146  13.143  0.2677  0.6748 -0.7034
 8528TIP3    H146999   0.434   5.153  13.081  0.1851 -1.7466 -1.1671
 8528TIP3    H247000   0.301   5.084  13.102 -0.8307  0.6714  0.8460
 8529TIP3   OH247001   5.813   2.629   3.793  0.9384  0.5849  0.0425
 8529TIP3    H147002   5.804   2.534   3.784  0.1129  0.7238 -0.7434
 8529TIP3    H247003   5.907   2.644   3.799  1.0379 -0.4017  1.6864
 8530TIP3   OH247004   4.785   0.766   3.744  0.2052  0.3540 -0.1059
 8530TIP3    H147005   4.692   0.750   3.757 -0.0468 -0.0804 -2.1586
 8530TIP3    H247006   4.792   0.862   3.740  0.5092  0.6756  3.9122
 8531TIP3   OH247007   0.763   3.259   5.367  0.6567  0.1056  0.3571
 8531TIP3    H147008   0.845   3.212   5.382  0.0992 -0.6116  1.2621
 8531TIP3    H247009   0.714   3.248   5.448  0.8360  2.9773  0.9508
 8532TIP3   OH247010   6.575   6.065   0.547  0.1840  0.2737 -0.0529
 8532TIP3    H147011   6.481   6.068   0.530  0.2619  0.2491 -0.4935
 8532TIP3    H247012   6.593   5.972   0.563 -0.1147  0.4531  1.5023
 8533TIP3   OH247013   0.319   6.685   2.869  0.2670 -0.0484  0.4169
 8533TIP3    H147014   0.329   6.732   2.952  0.2623  0.0432  0.3650
 8533TIP3    H247015   0.263   6.610   2.892 -0.3302  0.3704  0.3469
 8534TIP3   OH247016   3.466   0.262   2.126 -0.5267 -0.2740  0.0126
 8534TIP3    H147017   3.473   0.332   2.190  1.5445 -0.7905  0.4264
 8534TIP3    H247018   3.504   0.299   2.046  2.8963 -1.5093  0.8576
 8535TIP3   OH247019   5.163   1.602   2.655 -0.0444  0.1802 -0.0489
 8535TIP3    H147020   5.160   1.638   2.566 -2.4620  1.8366  0.5872
 8535TIP3    H247021   5.121   1.516   2.648 -0.9962  0.6581 -0.4051
 8536TIP3   OH247022   6.618   1.423   1.795  0.3535 -0.0630  0.1348
 8536TIP3    H147023   6.614   1.458   1.706  0.9500  0.3365  0.2585
 8536TIP3    H247024   6.564   1.344   1.792 -0.2452  0.3547 -0.3853
 8537TIP3   OH247025   0.104   0.174   3.721  0.2130  0.0796  0.5693
 8537TIP3    H147026   0.130   0.151   3.810  1.0176 -1.3216  0.0004
 8537TIP3    H247027   0.008   0.172   3.722  0.2201  0.1370  1.4102
 8538TIP3   OH247028   4.118   2.570  11.859 -0.1215 -0.2930 -0.2226
 8538TIP3    H147029   4.120   2.538  11.949 -2.2844  0.6815  0.2160
 8538TIP3    H247030   4.146   2.661  11.865  2.2993 -0.9088 -0.9603
 8539TIP3   OH247031   0.041   5.751   2.579 -0.0366  0.4536 -0.3426
 8539TIP3    H147032   0.071   5.828   2.628  0.2831 -1.2024  2.2453
 8539TIP3    H247033   0.056   5.677   2.638  0.8719 -1.8330 -3.1804
 8540TIP3   OH247034   0.430   5.955   0.315  0.2987  0.1525 -0.2851
 8540TIP3    H147035   0.386   6.013   0.254  1.8014  0.9433 -0.6780
 8540TIP3    H247036   0.514   5.998   0.332  0.9740 -1.3388  0.3224
 8541TIP3   OH247037   0.491   0.370  11.440 -0.0967 -0.0373  0.2718
 8541TIP3    H147038   0.435   0.368  11.363 -0.9379  0.8774  0.8466
 8541TIP3    H247039   0.471   0.290  11.487 -1.9223  0.8698  1.1394
 8542TIP3   OH247040   6.204   3.772   2.660 -0.2034  0.0007 -0.2164
 8542TIP3    H147041   6.185   3.690   2.705 -0.3973  0.0013 -0.2949
 8542TIP3    H247042   6.292   3.795   2.689 -0.7855  0.6488  1.1633
 8543TIP3   OH247043   0.919   0.050   1.189 -0.6038 -0.4845  0.0643
 8543TIP3    H147044   0.915  -0.023   1.128 -0.5298 -1.0813  0.7631
 8543TIP3    H247045   0.893   0.126   1.137  0.0650 -0.8739 -0.8755
 8544TIP3   OH247046   6.561   3.020  11.787 -0.1187  0.0984  0.6172
 8544TIP3    H147047   6.654   3.001  11.786 -0.1677 -0.1316  0.1126
 8544TIP3    H247048   6.553   3.100  11.838  0.4015  0.3585  0.2968
 8545TIP3   OH247049   3.555   3.606   3.084 -0.5483 -0.5724 -0.2289
 8545TIP3    H147050   3.568   3.578   3.174 -1.9249 -1.0580 -0.1642
 8545TIP3    H247051   3.520   3.529   3.039 -0.5075 -0.1434 -1.0158
 8546TIP3   OH247052   6.003   2.155   1.377  0.0894 -0.3619 -0.4468
 8546TIP3    H147053   6.052   2.204   1.443  0.6892 -1.4795 -0.0450
 8546TIP3    H247054   5.967   2.080   1.425 -1.1419 -0.1312 -0.9692
 8547TIP3   OH247055   5.822   3.949   0.875 -0.3093 -0.1472 -0.6151
 8547TIP3    H147056   5.888   3.896   0.831 -0.6695 -1.7265  0.6435
 8547TIP3    H247057   5.779   3.888   0.935 -2.5048  0.9644 -0.9627
 8548TIP3   OH247058   5.564   6.650   5.466 -0.0120 -0.2795  0.0305
 8548TIP3    H147059   5.538   6.731   5.510  2.3732 -0.2277  1.5514
 8548TIP3    H247060   5.630   6.677   5.402 -0.4144 -0.8416 -0.6348
 8549TIP3   OH247061   5.807   2.242   3.306  0.4136  0.0821  0.1217
 8549TIP3    H147062   5.840   2.167   3.257  1.4950 -0.3034  1.3638
 8549TIP3    H247063   5.713   2.227   3.313  0.1420  0.3901 -2.1581
 8550TIP3   OH247064   1.276   5.365   2.237 -0.3242 -0.0182  0.2431
 8550TIP3    H147065   1.192   5.320   2.228 -0.5434  0.8497 -3.9701
 8550TIP3    H247066   1.338   5.308   2.193  0.6748  0.8163  0.5412
 8551TIP3   OH247067   5.688   4.178   1.271 -0.0045 -0.1228 -0.1328
 8551TIP3    H147068   5.744   4.170   1.349  0.8101 -0.3907 -0.7296
 8551TIP3    H247069   5.698   4.094   1.226 -2.0259 -0.7545  0.4542
 8552TIP3   OH247070   4.310   1.256  12.961  0.4498 -0.1405 -0.0124
 8552TIP3    H147071   4.243   1.236  13.026 -0.3752  0.2146 -0.7270
 8552TIP3    H247072   4.344   1.171  12.934 -0.1300 -0.3680 -0.0550
 8553TIP3   OH247073   4.083   2.118   4.597 -0.2956 -0.1351 -0.0403
 8553TIP3    H147074   4.017   2.152   4.536 -0.3451  1.2887  0.7640
 8553TIP3    H247075   4.099   2.191   4.657  1.8029 -0.5538 -0.0388
 8554TIP3   OH247076   1.058   3.676   4.040  0.4551 -0.6631 -0.7661
 8554TIP3    H147077   1.034   3.764   4.070  1.1799 -0.2498 -1.3517
 8554TIP3    H247078   1.049   3.679   3.945 -0.4430 -1.5248 -0.7163
 8555TIP3   OH247079   5.016   4.811  10.926  0.0374 -0.0477  0.1159
 8555TIP3    H147080   5.000   4.804  10.832 -2.1088  1.2299  0.3189
 8555TIP3    H247081   4.982   4.729  10.962  1.8078 -0.9994 -0.2680
 8556TIP3   OH247082   5.883   0.434  14.805  0.1921  0.1724  0.0579
 8556TIP3    H147083   5.917   0.347  14.828  0.9297  0.1139 -1.1601
 8556TIP3    H247084   5.899   0.442  14.711 -1.4216  0.9560 -0.1849
 8557TIP3   OH247085   4.220   4.874  17.161  0.7599  0.3223  0.7018
 8557TIP3    H147086   4.130   4.863  17.131  0.6714  0.0282  1.0676
 8557TIP3    H247087   4.252   4.951  17.113 -0.0418  1.1058  1.3818
 8558TIP3   OH247088   3.390   0.653  10.766  0.0828 -0.5095  0.3504
 8558TIP3    H147089   3.481   0.667  10.742 -0.1728  1.6876  0.4541
 8558TIP3    H247090   3.342   0.655  10.683 -0.0595  0.2915  0.4423
 8559TIP3   OH247091   2.756   5.692   3.917  0.2551  0.8849  0.0902
 8559TIP3    H147092   2.724   5.666   3.831 -1.8360  1.2953  0.6990
 8559TIP3    H247093   2.717   5.629   3.977 -0.2439  1.9912  0.9675
 8560TIP3   OH247094   2.842   5.687   1.440  0.8694 -0.3828  0.0000
 8560TIP3    H147095   2.764   5.675   1.493  1.6468  0.6888  1.4403
 8560TIP3    H247096   2.912   5.705   1.503  1.5429  2.4189 -1.4098
 8561TIP3   OH247097   6.307   6.735  11.085  0.0871  0.0370 -0.3871
 8561TIP3    H147098   6.349   6.660  11.128 -1.1548 -0.5353 -0.1216
 8561TIP3    H247099   6.330   6.810  11.139  1.6189 -0.0828 -0.8330
 8562TIP3   OH247100   3.247   0.162  14.168 -0.0270 -0.1071  0.5733
 8562TIP3    H147101   3.153   0.156  14.152  0.2087 -0.5402 -0.7223
 8562TIP3    H247102   3.269   0.082  14.216  0.4711 -2.6417 -3.4075
 8563TIP3   OH247103   1.408   1.173   4.724 -0.2331  0.1495 -0.5329
 8563TIP3    H147104   1.423   1.107   4.657  2.4191  0.6677 -0.5510
 8563TIP3    H247105   1.463   1.145   4.798  0.2496  1.8303 -0.2165
 8564TIP3   OH247106   6.144   0.428  15.675  0.5657 -0.1577 -0.0885
 8564TIP3    H147107   6.070   0.488  15.676  0.6382  0.1279 -3.1520
 8564TIP3    H247108   6.221   0.483  15.690  0.3578 -0.0863  0.7418
 8565TIP3   OH247109   0.512   6.151   1.047 -0.3239  0.1504  0.7370
 8565TIP3    H147110   0.471   6.237   1.037  0.3672  0.6054  1.7375
 8565TIP3    H247111   0.512   6.135   1.141 -0.7164 -1.0963  0.5440
 8566TIP3   OH247112   1.379   1.843  15.912 -0.0090 -0.3371 -0.0651
 8566TIP3    H147113   1.318   1.818  15.843 -1.7465  1.0282  0.8914
 8566TIP3    H247114   1.365   1.777  15.980  2.0596 -1.9769 -1.1140
 8567TIP3   OH247115   1.913   1.467  12.143  0.2291 -0.1876  0.6892
 8567TIP3    H147116   1.992   1.476  12.197  1.3313  0.3064 -0.9251
 8567TIP3    H247117   1.859   1.405  12.191  1.9771 -1.2154  1.4452
 8568TIP3   OH247118   0.009   3.080   4.418 -0.7353  0.8025 -0.2926
 8568TIP3    H147119   0.064   3.066   4.495  0.5260  0.0023 -1.2991
 8568TIP3    H247120  -0.080   3.058   4.448 -0.0544 -1.0279  0.5310
 8569TIP3   OH247121   0.921   0.423  14.074  0.2454 -0.0529  0.4122
 8569TIP3    H147122   0.995   0.481  14.094  0.4339  1.1798 -3.0750
 8569TIP3    H247123   0.962   0.343  14.040 -0.0240 -0.0358  0.0461
 8570TIP3   OH247124   2.639   4.157   0.807 -0.3670  0.5119 -0.5095
 8570TIP3    H147125   2.730   4.132   0.826 -1.1598 -1.9120  0.3638
 8570TIP3    H247126   2.608   4.197   0.888 -0.7226 -0.6662 -0.0537
 8571TIP3   OH247127   1.174   4.043  13.213  0.4862  0.2506 -0.6547
 8571TIP3    H147128   1.222   4.108  13.264  0.8982  0.1655 -0.9326
 8571TIP3    H247129   1.123   4.094  13.150  0.3023  0.3328 -0.4437
 8572TIP3   OH247130   3.444   5.716  13.793 -0.0468  0.1023 -1.1205
 8572TIP3    H147131   3.425   5.648  13.858 -0.1273  1.3832  0.2604
 8572TIP3    H247132   3.510   5.677  13.736  0.7159 -0.7700  0.2973
 8573TIP3   OH247133   5.813   5.009  12.521 -0.2184 -0.0807  0.8766
 8573TIP3    H147134   5.844   5.037  12.435 -0.7209 -0.8626  0.4241
 8573TIP3    H247135   5.742   5.070  12.542  0.2422  0.4242  0.9704
 8574TIP3   OH247136   2.684   4.048  13.701 -0.0396 -0.5428  0.0116
 8574TIP3    H147137   2.631   4.128  13.706 -1.8359 -1.6838  0.1317
 8574TIP3    H247138   2.766   4.071  13.745 -0.9609  0.8786  1.0845
 8575TIP3   OH247139   3.081   5.196  12.966 -0.1428 -0.1973 -0.3957
 8575TIP3    H147140   3.025   5.119  12.972 -1.0221  0.2336 -2.3476
 8575TIP3    H247141   3.157   5.167  12.916  0.5049 -0.2750  0.5917
 8576TIP3   OH247142   4.160   4.245   5.827  0.2048  0.6519 -0.1845
 8576TIP3    H147143   4.240   4.205   5.793 -0.1568 -0.3600  0.1101
 8576TIP3    H247144   4.149   4.325   5.776  0.7838  0.2077 -1.0193
 8577TIP3   OH247145   6.673   6.474  14.694 -0.3292  0.5272  0.0709
 8577TIP3    H147146   6.742   6.432  14.746  1.6158 -1.1479 -3.4853
 8577TIP3    H247147   6.602   6.489  14.756  1.0138 -2.9625  2.7981
 8578TIP3   OH247148   6.444   0.254  12.454 -0.0326 -0.0164  0.6050
 8578TIP3    H147149   6.539   0.255  12.457 -0.0410  1.5543  1.6779
 8578TIP3    H247150   6.421   0.315  12.384 -0.2704 -1.1274 -0.3177
 8579TIP3   OH247151   3.061   6.760  12.179  0.0455  0.6873  0.4848
 8579TIP3    H147152   2.986   6.709  12.147 -0.3820  0.5098  1.7145
 8579TIP3    H247153   3.079   6.723  12.265  1.8296  0.4552  0.0513
 8580TIP3   OH247154   4.540   6.464   3.195  0.2450 -0.1807  0.3744
 8580TIP3    H147155   4.620   6.473   3.143 -0.2382 -0.9796 -0.5254
 8580TIP3    H247156   4.485   6.536   3.166  0.7902  0.6435  1.3177
 8581TIP3   OH247157   4.269   5.361   2.704  0.4841 -0.6718  0.3105
 8581TIP3    H147158   4.323   5.321   2.772 -0.7089  0.9482  2.3529
 8581TIP3    H247159   4.191   5.306   2.700  0.1429 -0.2557  0.9815
 8582TIP3   OH247160   6.270   2.712  14.637 -0.4878 -0.4340 -0.1329
 8582TIP3    H147161   6.216   2.789  14.656  0.5975 -0.0236  1.5941
 8582TIP3    H247162   6.343   2.746  14.585  1.7889  0.5568  3.3097
 8583TIP3   OH247163   2.092   6.486   2.835 -0.1481 -0.1889  0.3894
 8583TIP3    H147164   2.110   6.528   2.751  1.2934 -1.4962  0.0176
 8583TIP3    H247165   2.055   6.557   2.889  0.3339  1.0494 -0.8407
 8584TIP3   OH247166   5.665   6.762  14.316 -0.0067  0.0660 -0.0120
 8584TIP3    H147167   5.732   6.811  14.269  0.1018 -0.1664 -0.1026
 8584TIP3    H247168   5.585   6.814  14.307  0.6495  1.5624  2.0692
 8585TIP3   OH247169   5.361   5.496  11.963  0.1696  0.3540  0.3365
 8585TIP3    H147170   5.340   5.558  11.893 -0.0234  1.6512  1.4994
 8585TIP3    H247171   5.431   5.538  12.012  0.5611 -0.7081  0.7129
 8586TIP3   OH247172   3.784   0.786  13.390 -0.3757 -0.2107 -0.1128
 8586TIP3    H147173   3.812   0.861  13.443  3.4520 -0.6191 -1.2395
 8586TIP3    H247174   3.774   0.822  13.302 -0.1931 -0.6827 -0.3270
 8587TIP3   OH247175   3.447   4.541  13.173 -0.2137 -0.3501 -0.1641
 8587TIP3    H147176   3.480   4.458  13.208  0.7671  0.3022  0.4915
 8587TIP3    H247177   3.361   4.551  13.214  0.9389  0.4383  2.2407
 8588TIP3   OH247178   2.436   5.597  16.888  0.4787 -0.9736  0.1890
 8588TIP3    H147179   2.465   5.605  16.797  0.8021 -2.0383  0.1857
 8588TIP3    H247180   2.349   5.555  16.882  0.2321 -0.4909  0.3439
 8589TIP3   OH247181   5.318   1.595  14.567 -0.1463 -0.2066  0.3669
 8589TIP3    H147182   5.279   1.602  14.653 -0.9281  2.4283 -0.1199
 8589TIP3    H247183   5.265   1.652  14.511  0.6296 -1.4356 -1.7758
 8590TIP3   OH247184   4.794   6.737   2.809  0.0984  0.0710 -0.2932
 8590TIP3    H147185   4.843   6.661   2.775  1.1160 -0.3069  1.8798
 8590TIP3    H247186   4.859   6.805   2.820 -0.8412  1.4068 -2.3865
 8591TIP3   OH247187   3.012   6.307   6.034  0.0402  0.1381 -0.6822
 8591TIP3    H147188   2.935   6.251   6.047 -0.0985  0.2927 -0.8221
 8591TIP3    H247189   3.013   6.324   5.940 -0.7482  1.5301 -0.4708
 8592TIP3   OH247190   6.055   2.148   6.569 -0.0367  0.0026 -0.1639
 8592TIP3    H147191   6.142   2.122   6.539 -0.1756 -0.9380  0.2091
 8592TIP3    H247192   6.071   2.195   6.651  0.4229  3.4012 -2.0308
 8593TIP3   OH247193   5.098   4.865   4.493 -0.4162 -0.1011 -0.0216
 8593TIP3    H147194   5.137   4.779   4.477 -1.5742 -0.4523 -1.1192
 8593TIP3    H247195   5.005   4.847   4.503 -0.5146  0.8981  1.0373
 8594TIP3   OH247196   2.155   2.824   0.494 -0.1467 -0.3818  0.0490
 8594TIP3    H147197   2.124   2.785   0.412 -1.8460 -5.2702  2.6142
 8594TIP3    H247198   2.242   2.788   0.506  0.8160  1.6812 -0.2266
 8595TIP3   OH247199   0.552   2.091  15.441 -0.0590 -0.4881 -0.2255
 8595TIP3    H147200   0.501   2.171  15.455  1.9497  0.6214  1.3083
 8595TIP3    H247201   0.626   2.120  15.386  0.9873 -1.1321  0.7991
 8596TIP3   OH247202   4.534   1.463   0.620 -0.0588  1.0307 -0.3385
 8596TIP3    H147203   4.593   1.387   0.621 -1.0869  0.2166  0.0416
 8596TIP3    H247204   4.512   1.475   0.528 -0.4439  0.4074 -0.3380
 8597TIP3   OH247205   5.605   2.071  13.579 -0.0149  0.4445 -0.3312
 8597TIP3    H147206   5.633   2.012  13.650 -0.4059  0.6079 -0.0363
 8597TIP3    H247207   5.650   2.037  13.502  2.5244  1.8038  0.4196
 8598TIP3   OH247208   3.860   4.837  11.557 -0.5965 -0.2168  0.2922
 8598TIP3    H147209   3.811   4.911  11.594 -0.4043 -0.1285  0.3702
 8598TIP3    H247210   3.800   4.800  11.492 -0.2615  0.7257 -0.5885
 8599TIP3   OH247211   6.721   3.758   3.831 -0.4049  0.3169  0.1707
 8599TIP3    H147212   6.783   3.792   3.895  0.1865  2.0158 -1.2367
 8599TIP3    H247213   6.747   3.798   3.748 -2.1182 -0.5570 -0.8556
 8600TIP3   OH247214   3.725   3.973   1.831  0.5489  0.4910 -0.1024
 8600TIP3    H147215   3.753   4.049   1.780  2.3416 -0.1258 -0.0969
 8600TIP3    H247216   3.715   4.006   1.920  0.2306  0.9428 -0.3003
 8601TIP3   OH247217   2.900   3.699   4.601  0.1219  0.3438  0.9034
 8601TIP3    H147218   2.923   3.682   4.510 -1.5879 -0.6142  0.6170
 8601TIP3    H247219   2.854   3.782   4.600  0.6885  0.6656  1.0087
 8602TIP3   OH247220   2.267   6.635   3.180 -0.1587  0.7418 -0.3770
 8602TIP3    H147221   2.349   6.678   3.156  0.9949 -0.6155  0.9365
 8602TIP3    H247222   2.265   6.637   3.275 -0.5638 -1.1730 -0.3102
 8603TIP3   OH247223   0.527   5.520   0.326  0.0596 -0.0339  0.8220
 8603TIP3    H147224   0.561   5.601   0.364  1.0671  0.0842 -0.2830
 8603TIP3    H247225   0.564   5.517   0.238 -0.4614 -1.3903  0.6230
 8604TIP3   OH247226   4.721   6.540  11.217  0.6353  0.5557 -0.4053
 8604TIP3    H147227   4.666   6.536  11.139  2.1653 -0.4988 -1.4884
 8604TIP3    H247228   4.740   6.633  11.229  0.8896  0.6784 -1.6779
 8605TIP3   OH247229   3.643   3.582  15.868 -0.5277  0.1618  0.0434
 8605TIP3    H147230   3.585   3.507  15.860 -0.5462  0.3182 -1.8434
 8605TIP3    H247231   3.721   3.558  15.817 -0.0714  0.9888  0.3211
 8606TIP3   OH247232   3.254   2.823  15.968 -0.1445  0.1597 -0.7886
 8606TIP3    H147233   3.282   2.748  15.916  1.4412  0.4298 -0.3741
 8606TIP3    H247234   3.321   2.890  15.952  0.3053  0.3081  1.4221
 8607TIP3   OH247235   2.254   0.494  12.955  0.3359  0.1184 -0.3996
 8607TIP3    H147236   2.228   0.542  13.034  0.6895  0.3578 -0.4232
 8607TIP3    H247237   2.288   0.411  12.988 -1.4627 -0.6655 -0.4388
 8608TIP3   OH247238   1.986   3.743   6.133  0.0220 -0.1501 -0.1597
 8608TIP3    H147239   1.934   3.761   6.212 -1.4565 -1.6534 -0.7256
 8608TIP3    H247240   2.058   3.689   6.164 -0.8164 -1.1343  0.1273
 8609TIP3   OH247241   2.711   5.318   0.863  0.7637 -0.1767  0.4492
 8609TIP3    H147242   2.712   5.226   0.887  3.1364 -1.4605 -3.5085
 8609TIP3    H247243   2.792   5.354   0.901 -0.5454  0.6193  2.6595
 8610TIP3   OH247244   5.538   6.093  14.423  0.4501  0.1822  0.0531
 8610TIP3    H147245   5.533   6.000  14.400  0.4814  0.5477 -1.5176
 8610TIP3    H247246   5.565   6.093  14.515  2.4773 -1.3606 -0.4589
 8611TIP3   OH247247   1.121   2.166  17.138  0.6031 -0.2254  0.8010
 8611TIP3    H147248   1.202   2.131  17.176  0.4544 -0.4008  0.9599
 8611TIP3    H247249   1.131   2.153  17.044  1.3145  0.9188  0.7007
 8612TIP3   OH247250   1.318   3.018  17.052  0.0455 -0.3380  0.6139
 8612TIP3    H147251   1.253   2.956  17.019  1.1992 -0.6564 -1.1820
 8612TIP3    H247252   1.273   3.103  17.050 -0.0009 -0.3570 -1.7582
 8613TIP3   OH247253   3.060   2.038   5.855  0.4686 -0.2673  0.2523
 8613TIP3    H147254   3.101   2.090   5.786  0.4501 -0.6787 -0.0749
 8613TIP3    H247255   2.992   2.095   5.892  0.2147 -0.1847 -0.3370
 8614TIP3   OH247256   2.720   6.058  14.614  0.2814 -0.1042 -0.0369
 8614TIP3    H147257   2.661   6.117  14.661  0.1032  0.2796 -0.7228
 8614TIP3    H247258   2.720   5.978  14.666 -2.1606 -0.7266 -0.8742
 8615TIP3   OH247259   4.877   6.146  15.615 -0.3335 -0.6311 -0.1036
 8615TIP3    H147260   4.908   6.056  15.624  0.0952 -0.6312 -1.3442
 8615TIP3    H247261   4.880   6.162  15.521 -1.9712  0.1415 -0.0469
 8616TIP3   OH247262   1.065   6.087  14.728 -0.1594 -0.2676  0.4419
 8616TIP3    H147263   1.028   6.011  14.773  1.0506 -1.0561  0.1885
 8616TIP3    H247264   1.141   6.112  14.782 -0.8020  1.0596  0.7579
 8617TIP3   OH247265   4.175   4.648  14.783 -0.1831  0.1588  0.5881
 8617TIP3    H147266   4.192   4.653  14.877  1.0550  3.5758  0.3097
 8617TIP3    H247267   4.084   4.678  14.774 -0.0870  0.4607  0.6326
 8618TIP3   OH247268   2.942   4.668   6.374 -0.2089  0.2940  0.0263
 8618TIP3    H147269   2.891   4.733   6.326 -0.5989  0.3935  0.5607
 8618TIP3    H247270   2.898   4.661   6.459 -1.7452 -2.5454 -0.8582
 8619TIP3   OH247271   2.722   0.764  13.355  0.2998 -0.9147  0.5473
 8619TIP3    H147272   2.745   0.790  13.265 -1.0838  0.1010  0.4526
 8619TIP3    H247273   2.747   0.839  13.409  2.1644 -1.9528  1.2173
 8620TIP3   OH247274   2.661   6.423  12.702 -0.0250  0.5029 -0.3223
 8620TIP3    H147275   2.645   6.330  12.722 -0.5238  0.7274  0.3453
 8620TIP3    H247276   2.756   6.432  12.710 -0.1575  0.5864  2.1754
 8621TIP3   OH247277   4.739   5.687   3.825  0.0079  0.1939  0.1257
 8621TIP3    H147278   4.667   5.665   3.766  0.6335  1.0045 -0.9709
 8621TIP3    H247279   4.817   5.680   3.771  0.6196  0.8237  0.8966
 8622TIP3   OH247280   0.720   6.455   1.312 -0.1114  0.2063 -0.5581
 8622TIP3    H147281   0.650   6.396   1.342  0.0137  0.5681  0.4684
 8622TIP3    H247282   0.688   6.543   1.333  2.1793  0.2861  3.4707
 8623TIP3   OH247283   4.804   4.712  11.831 -0.5452 -0.0918  0.0403
 8623TIP3    H147284   4.870   4.743  11.893 -0.8240 -2.7427  1.8396
 8623TIP3    H247285   4.735   4.674  11.886 -1.7078 -0.8740 -1.8551
 8624TIP3   OH247286   0.579   0.935  15.557 -0.5089  0.2096  0.4719
 8624TIP3    H147287   0.549   0.910  15.470  2.4499  1.8916 -1.1933
 8624TIP3    H247288   0.513   0.996  15.589 -0.9773  0.6325 -1.2037
 8625TIP3   OH247289   1.119   3.875   5.855 -0.0724 -0.2655 -0.6674
 8625TIP3    H147290   1.049   3.940   5.845  0.0808  0.2456  1.2163
 8625TIP3    H247291   1.200   3.926   5.852  0.0129 -0.0998  2.1147
 8626TIP3   OH247292   3.803   0.046  16.084  1.0294 -0.3172  0.1714
 8626TIP3    H147293   3.889   0.036  16.123  0.6802  1.4337  1.4936
 8626TIP3    H247294   3.788   0.140  16.080 -1.3310 -0.5582  1.1938
 8627TIP3   OH247295   3.840   1.279   2.177  0.1884 -1.0701  0.1999
 8627TIP3    H147296   3.889   1.250   2.253  1.5696 -2.1276 -1.0296
 8627TIP3    H247297   3.778   1.343   2.211 -0.3999 -2.7395  2.4400
 8628TIP3   OH247298   5.591   1.893   6.138  0.1551 -0.3004  0.0574
 8628TIP3    H147299   5.683   1.890   6.161  0.4052 -3.7219 -0.8652
 8628TIP3    H247300   5.545   1.903   6.221  1.2830  0.6362  0.6000
 8629TIP3   OH247301   1.321   2.937   1.460  0.4782 -0.4840 -0.3558
 8629TIP3    H147302   1.391   2.915   1.521  1.7126  0.3455 -1.4288
 8629TIP3    H247303   1.359   2.920   1.373 -0.1185  1.3725 -1.0205
 8630TIP3   OH247304   6.236   4.768   4.986 -0.2682 -0.0898 -0.2333
 8630TIP3    H147305   6.149   4.772   5.028 -0.4602  0.2025 -0.6504
 8630TIP3    H247306   6.245   4.854   4.944 -0.1088 -0.4086 -0.8522
 8631TIP3   OH247307   4.399   2.902  15.888  0.4720  0.3481 -0.0383
 8631TIP3    H147308   4.377   2.993  15.910  1.4438  0.4511  0.5753
 8631TIP3    H247309   4.315   2.862  15.865 -0.0950  1.1698  0.5406
 8632TIP3   OH247310   0.067   4.766   3.743  0.2397 -0.1484  0.4421
 8632TIP3    H147311   0.137   4.729   3.689 -0.6256  0.2935 -1.0320
 8632TIP3    H247312   0.094   4.858   3.756  0.1151 -0.0713  0.1692
 8633TIP3   OH247313   0.009   2.965  16.335 -0.5841 -0.3147 -0.0555
 8633TIP3    H147314   0.031   3.050  16.295  0.4892  0.1742  1.4795
 8633TIP3    H247315  -0.076   2.943  16.297 -0.7576  1.3074 -0.7173
 8634TIP3   OH247316   0.434   4.101   3.897  0.3401 -0.0889  0.2536
 8634TIP3    H147317   0.485   4.180   3.918  1.8646 -1.3578  1.6808
 8634TIP3    H247318   0.417   4.061   3.982 -2.2965 -0.2308 -0.2797
 8635TIP3   OH247319   5.016   6.125   2.802 -0.1921 -0.8149  0.6607
 8635TIP3    H147320   4.936   6.176   2.788  0.5017  0.4812  1.2556
 8635TIP3    H247321   4.985   6.039   2.830 -1.3808 -0.4010  0.6758
 8636TIP3   OH247322   3.808   4.954  12.281 -0.3670  0.2965  0.1660
 8636TIP3    H147323   3.846   4.879  12.236 -1.5526 -0.0952 -0.2456
 8636TIP3    H247324   3.882   5.001  12.319  0.4236 -0.8789  0.1148
 8637TIP3   OH247325   6.287   1.932  13.915 -0.4408  0.7594 -0.2897
 8637TIP3    H147326   6.321   2.022  13.919 -1.5172  1.1399  2.7506
 8637TIP3    H247327   6.283   1.912  13.822  2.7892  2.6760 -0.9874
 8638TIP3   OH247328   4.478   5.483  13.233 -0.2200  0.1073  0.8479
 8638TIP3    H147329   4.493   5.509  13.324 -0.5241 -0.7353  1.1504
 8638TIP3    H247330   4.447   5.393  13.238  0.9801 -0.3952 -0.1815
 8639TIP3   OH247331   0.870   2.481   4.072 -0.6930  0.0198 -0.3605
 8639TIP3    H147332   0.865   2.511   3.981 -2.0845  0.5425 -0.1284
 8639TIP3    H247333   0.921   2.400   4.067  1.6841  1.4553 -1.2231
 8640TIP3   OH247334   0.696   0.198   0.615 -0.1597  0.3004  0.0925
 8640TIP3    H147335   0.633   0.188   0.686 -0.9803 -0.7670 -0.7457
 8640TIP3    H247336   0.678   0.125   0.556  2.4288 -0.5347  0.2270
 8641TIP3   OH247337   5.770   5.956  13.758 -0.5336  0.1554  0.6461
 8641TIP3    H147338   5.837   5.911  13.810  1.6186 -0.0798 -2.1076
 8641TIP3    H247339   5.696   5.965  13.818  1.6532 -0.2260  3.6621
 8642TIP3   OH247340   4.557   3.432   0.661 -0.3502 -0.1537  0.7143
 8642TIP3    H147341   4.612   3.408   0.736 -0.5456 -1.1469  0.5574
 8642TIP3    H247342   4.589   3.377   0.589 -0.6044  0.3070  0.2413
 8643TIP3   OH247343   1.739   4.841   3.452 -0.4228  0.1149  0.5839
 8643TIP3    H147344   1.751   4.905   3.382 -0.6577 -1.3689 -0.8609
 8643TIP3    H247345   1.703   4.892   3.525  1.9422  2.1368  0.4589
 8644TIP3   OH247346   4.809   2.965  11.860  0.1049  0.1220 -0.0171
 8644TIP3    H147347   4.806   2.900  11.789  0.3829  1.1770 -1.0289
 8644TIP3    H247348   4.772   3.044  11.821 -0.9501  0.3661  1.4342
 8645TIP3   OH247349   0.067   0.344  13.020  0.1711  0.5738 -0.7140
 8645TIP3    H147350   0.127   0.392  12.963  0.2535  1.0583 -0.2192
 8645TIP3    H247351  -0.012   0.333  12.967  0.0744  1.4387 -0.7584
 8646TIP3   OH247352   6.492   1.228  12.076  0.3563 -0.0553 -0.0657
 8646TIP3    H147353   6.427   1.163  12.106 -0.9269  1.1099 -0.2360
 8646TIP3    H247354   6.533   1.259  12.157 -0.9525  0.8684  0.2758
 8647TIP3   OH247355   6.346   1.260   5.901 -0.5076  0.3540  0.3467
 8647TIP3    H147356   6.417   1.323   5.911 -1.2578  1.6181 -1.6658
 8647TIP3    H247357   6.386   1.186   5.856 -0.0078  0.1394  1.1301
 8648TIP3   OH247358   5.590   3.478  14.823 -0.1861 -0.4101 -0.1753
 8648TIP3    H147359   5.552   3.553  14.869  2.1266 -0.4826  2.1461
 8648TIP3    H247360   5.656   3.516  14.765  1.0162 -0.5448  1.0323
 8649TIP3   OH247361   3.125   5.822  12.976  0.0665  0.0106  0.1567
 8649TIP3    H147362   3.080   5.738  12.970  0.0612  0.0238  0.0018
 8649TIP3    H247363   3.218   5.800  12.978  0.0631 -0.1881  3.0126
 8650TIP3   OH247364   5.225   0.593   2.244  0.6174  0.7689 -0.0314
 8650TIP3    H147365   5.215   0.584   2.338 -0.7227  1.9615 -0.0169
 8650TIP3    H247366   5.303   0.542   2.222 -1.0964 -2.6205  1.1592
 8651TIP3   OH247367   0.575   0.412   1.058  0.0661  0.4541  0.0686
 8651TIP3    H147368   0.535   0.499   1.054  1.4971  1.2022  1.3249
 8651TIP3    H247369   0.653   0.424   1.111  1.0813 -1.3150 -0.9469
 8652TIP3   OH247370   3.596   6.673  15.746  0.0255 -0.0964 -0.4421
 8652TIP3    H147371   3.682   6.710  15.764 -1.2707  2.2636  1.3730
 8652TIP3    H247372   3.536   6.748  15.745 -2.1526 -1.7295 -0.8674
 8653TIP3   OH247373   5.201   6.303   0.781  0.4847  0.0613 -0.4789
 8653TIP3    H147374   5.253   6.297   0.701 -0.1263 -1.6217 -0.7777
 8653TIP3    H247375   5.183   6.397   0.791  0.3442  0.2728 -2.4425
 8654TIP3   OH247376   5.140   6.111   5.880  0.8273 -0.1259 -0.8419
 8654TIP3    H147377   5.197   6.161   5.937 -0.8278  0.0744  0.7250
 8654TIP3    H247378   5.054   6.116   5.922  0.2746 -2.9658 -1.4686
 8655TIP3   OH247379   5.777   3.846   0.576 -0.0856  1.0926  0.0129
 8655TIP3    H147380   5.738   3.932   0.595 -0.8072  0.7206  0.2708
 8655TIP3    H247381   5.855   3.866   0.524 -0.6016  1.8737 -0.4911
 8656TIP3   OH247382   0.728   2.395   1.660  0.0439  0.7294 -0.4040
 8656TIP3    H147383   0.761   2.469   1.609 -0.7915  1.0331 -0.5266
 8656TIP3    H247384   0.718   2.325   1.596 -0.7290  1.0229 -0.6183
 8657TIP3   OH247385   2.065   2.796   5.704 -0.3083 -0.1827 -0.5097
 8657TIP3    H147386   2.077   2.826   5.794  1.5514 -0.4962 -0.6103
 8657TIP3    H247387   1.999   2.727   5.710  0.8808 -1.2767  0.8884
 8658TIP3   OH247388   5.968   3.452   6.840  0.0800  0.4047 -0.1496
 8658TIP3    H147389   6.049   3.456   6.891 -1.7924  1.4773  3.0193
 8658TIP3    H247390   5.995   3.476   6.751  3.3707 -0.3888  0.4983
 8659TIP3   OH247391   3.879   1.015  15.757 -0.4329 -0.3372  0.2466
 8659TIP3    H147392   3.943   1.086  15.749 -0.9257  0.0344 -0.5518
 8659TIP3    H247393   3.892   0.981  15.845  0.8043 -0.2087  0.1348
 8660TIP3   OH247394   6.070   6.208  15.428 -0.3772  0.9573 -0.5487
 8660TIP3    H147395   6.064   6.235  15.520 -0.3523 -0.1731 -0.2045
 8660TIP3    H247396   6.130   6.133  15.429 -0.9646  0.4621 -1.3790
 8661TIP3   OH247397   1.934   2.215  11.817  0.4123 -0.0944  0.2584
 8661TIP3    H147398   1.888   2.248  11.740  1.5867  2.8059  0.6443
 8661TIP3    H247399   1.869   2.219  11.888 -0.1164 -0.8664 -0.1766
 8662TIP3   OH247400   5.723   4.484  12.848  0.6611 -0.6993 -0.3458
 8662TIP3    H147401   5.639   4.519  12.819  2.0275  1.2795 -2.1321
 8662TIP3    H247402   5.730   4.512  12.939  0.0455  0.3995 -0.6196
 8663TIP3   OH247403   3.472   6.710   0.504 -0.0309 -0.2615 -0.1630
 8663TIP3    H147404   3.496   6.625   0.543  1.1765 -1.1639 -2.6708
 8663TIP3    H247405   3.553   6.744   0.469 -1.1391  0.0920 -2.5427
 8664TIP3   OH247406   6.141   3.962   5.824  0.1923  0.3280  0.5131
 8664TIP3    H147407   6.221   3.947   5.875  1.1913  0.2468 -1.0307
 8664TIP3    H247408   6.092   3.880   5.831  1.7855 -0.8454 -1.1588
 8665TIP3   OH247409   2.047   2.022   4.439  0.1649 -0.1929  0.2343
 8665TIP3    H147410   2.033   2.012   4.533  0.0424 -0.6002  0.1741
 8665TIP3    H247411   2.135   2.059   4.432  0.3010 -0.4632  0.4955
 8666TIP3   OH247412   4.270   4.965   3.399 -1.1151  0.3864  0.4130
 8666TIP3    H147413   4.214   5.042   3.391  0.2240  1.5631  1.6953
 8666TIP3    H247414   4.308   4.972   3.487 -1.3185 -2.0104  0.7509
 8667TIP3   OH247415   0.140   3.649   6.041 -0.5637 -0.5581  0.4129
 8667TIP3    H147416   0.144   3.744   6.034 -0.9461 -0.5353  0.4603
 8667TIP3    H247417   0.091   3.621   5.964 -2.6829 -0.5033  1.6745
 8668TIP3   OH247418   0.149   1.836  16.127  0.1092 -0.1052  0.2576
 8668TIP3    H147419   0.134   1.908  16.189  1.2458 -0.2705  0.7550
 8668TIP3    H247420   0.081   1.772  16.148  0.8950 -0.4776  1.8539
 8669TIP3   OH247421   2.559   0.139   4.894  0.3574 -0.3836 -0.0663
 8669TIP3    H147422   2.560   0.149   4.799  1.8396 -1.9575 -0.2688
 8669TIP3    H247423   2.651   0.147   4.920  0.0338 -0.4471  1.1810
 8670TIP3   OH247424   4.804   1.273  16.061 -0.2096 -0.6741 -0.0999
 8670TIP3    H147425   4.738   1.204  16.053 -0.6149 -0.8654  3.2885
 8670TIP3    H247426   4.810   1.289  16.155  2.3135  1.5998 -0.5270
 8671TIP3   OH247427   3.428   5.716   0.886  0.5982  0.2121 -0.4853
 8671TIP3    H147428   3.410   5.622   0.889  0.1552  0.3081  0.5858
 8671TIP3    H247429   3.393   5.749   0.969 -3.6006  2.0888 -2.6981
 8672TIP3   OH247430   3.579   5.244   3.847 -0.2278  0.0013 -0.6966
 8672TIP3    H147431   3.504   5.233   3.789 -1.0459 -2.2978  0.6798
 8672TIP3    H247432   3.587   5.160   3.892  0.9312  1.3921  1.8563
 8673TIP3   OH247433   0.766   1.894   4.128 -0.1006  0.0476  0.1807
 8673TIP3    H147434   0.829   1.829   4.158 -1.1645 -1.4006 -0.6136
 8673TIP3    H247435   0.731   1.932   4.209  1.5825  0.7159  0.6360
 8674TIP3   OH247436   4.760   1.961  17.250 -0.8589  0.1971 -0.1889
 8674TIP3    H147437   4.775   2.048  17.287 -0.7838  0.2125 -0.2560
 8674TIP3    H247438   4.681   1.930  17.293  0.8574 -1.0583  2.3159
 8675TIP3   OH247439   2.719   2.911  15.063  0.5856  0.2555  0.6669
 8675TIP3    H147440   2.661   2.984  15.041  1.2379  0.5120 -0.2578
 8675TIP3    H247441   2.745   2.874  14.979  1.5835  0.0073  1.0636
 8676TIP3   OH247442   1.952   0.153   0.133  0.1321 -0.2277  0.2334
 8676TIP3    H147443   1.914   0.122   0.215  2.3836 -0.5618  1.2072
 8676TIP3    H247444   1.997   0.234   0.157 -1.7953  1.4288 -1.3610
 8677TIP3   OH247445   2.005   0.762  10.330 -0.3388 -0.7808  0.8387
 8677TIP3    H147446   2.036   0.762  10.420 -0.2577  0.0356  0.8199
 8677TIP3    H247447   1.935   0.697  10.328 -1.1569  0.0492  1.7837
 8678TIP3   OH247448   6.456   5.028  15.282 -0.4476  0.2635  0.2921
 8678TIP3    H147449   6.535   5.068  15.248  0.3666 -1.5483 -0.0657
 8678TIP3    H247450   6.429   4.966  15.214 -2.3812  1.0406  0.2657
 8679TIP3   OH247451   1.638   4.576  14.087 -0.1196 -0.1917 -0.2702
 8679TIP3    H147452   1.632   4.545  13.996  1.5834 -1.8572  0.1233
 8679TIP3    H247453   1.564   4.537  14.131  0.6539 -1.8070 -0.3384
 8680TIP3   OH247454   1.941   2.623  13.393 -0.5516 -0.1265 -0.3490
 8680TIP3    H147455   1.906   2.620  13.304  1.7643  0.5707 -1.3468
 8680TIP3    H247456   1.974   2.534  13.409  1.1335  0.3148 -1.1449
 8681TIP3   OH247457   4.955   4.699  14.631  0.2426 -0.5389  0.1289
 8681TIP3    H147458   4.934   4.608  14.610 -4.6020 -0.0272  1.4672
 8681TIP3    H247459   4.992   4.734  14.550 -2.2938 -2.5896 -2.1102
 8682TIP3   OH247460   2.232   1.111  13.307 -0.4428 -0.0685 -0.0008
 8682TIP3    H147461   2.244   1.136  13.399  0.5249 -2.9226  0.7636
 8682TIP3    H247462   2.192   1.187  13.266 -2.1078  0.8537  3.0572
 8683TIP3   OH247463   4.989   3.111   3.194  0.1932 -0.1357 -0.8475
 8683TIP3    H147464   4.916   3.066   3.238 -0.2971 -0.2807 -1.7657
 8683TIP3    H247465   4.993   3.197   3.236 -1.4330  0.4039 -1.6719
 8684TIP3   OH247466   4.982   2.958   4.146  0.7589 -0.0763  0.5861
 8684TIP3    H147467   4.903   2.962   4.200  1.3244  0.6826  1.3888
 8684TIP3    H247468   5.054   2.969   4.207  1.6524 -2.8449  0.1576
 8685TIP3   OH247469   3.591   2.999   0.398  0.4437  0.5013  0.2517
 8685TIP3    H147470   3.651   2.926   0.387  0.2612  0.2118  1.1445
 8685TIP3    H247471   3.506   2.958   0.417  0.1187  0.9223 -0.2468
 8686TIP3   OH247472   2.032   0.774   2.484  0.0220  0.5561  0.1557
 8686TIP3    H147473   2.099   0.720   2.442  0.0268  1.0466 -0.4877
 8686TIP3    H247474   2.068   0.793   2.571  0.2714 -0.0041  0.1777
 8687TIP3   OH247475   3.028   3.149  16.372  0.1198 -0.1156 -0.1438
 8687TIP3    H147476   3.053   3.240  16.354 -0.2981  0.2694  1.0896
 8687TIP3    H247477   2.977   3.154  16.453 -0.2382 -1.4108 -0.2661
 8688TIP3   OH247478   5.304   5.312   2.370  0.3151  0.3900 -0.1023
 8688TIP3    H147479   5.242   5.384   2.367  2.0908  1.9501 -1.2254
 8688TIP3    H247480   5.330   5.299   2.279  1.8139 -0.0327  0.3609
 8689TIP3   OH247481   3.543   5.870  14.983 -0.4000  0.2281  0.3651
 8689TIP3    H147482   3.457   5.834  14.961  0.4774 -1.0999 -1.0726
 8689TIP3    H247483   3.573   5.818  15.057 -0.0327 -0.6232 -0.3672
 8690TIP3   OH247484   3.554   3.908   3.356  0.4043 -0.4279  0.3905
 8690TIP3    H147485   3.463   3.919   3.329  0.7232 -0.3959 -0.7196
 8690TIP3    H247486   3.594   3.994   3.342  1.0391 -0.9009 -0.9491
 8691TIP3   OH247487   3.454   4.293  15.816 -0.2116  0.8589 -0.7698
 8691TIP3    H147488   3.426   4.210  15.776 -1.4356  0.1544  1.3417
 8691TIP3    H247489   3.372   4.337  15.839  0.4197  1.2952  0.7547
 8692TIP3   OH247490   5.314   2.237  15.998  0.3292  0.4930 -0.7255
 8692TIP3    H147491   5.297   2.186  15.919 -1.1214 -0.4017  0.1162
 8692TIP3    H247492   5.363   2.313  15.967  0.0908  0.0072 -2.4258
 8693TIP3   OH247493   5.997   5.041   5.700 -0.0556  0.2770 -0.8763
 8693TIP3    H147494   5.913   4.998   5.717  0.5061 -0.2765  0.6737
 8693TIP3    H247495   5.980   5.098   5.625 -1.9080  0.4488 -0.3726
 8694TIP3   OH247496   0.883   6.737  10.935 -0.4118  0.1454 -0.2618
 8694TIP3    H147497   0.957   6.784  10.973  0.1946 -0.3267 -0.8251
 8694TIP3    H247498   0.921   6.689  10.861 -1.1934 -0.4711 -0.2751
 8695TIP3   OH247499   3.284   0.191  13.111  0.0719 -0.5870  0.1262
 8695TIP3    H147500   3.281   0.286  13.122  2.5069 -0.2668 -1.2671
 8695TIP3    H247501   3.196   0.168  13.083 -0.4476  1.3203  0.0219
 8696TIP3   OH247502   6.471   4.172   2.148 -0.2502  0.5292  0.4509
 8696TIP3    H147503   6.414   4.246   2.126  0.1221  0.4194 -0.9840
 8696TIP3    H247504   6.554   4.213   2.173  0.2207  0.6053 -1.1443
 8697TIP3   OH247505   5.672   3.713   0.942 -0.3400 -0.8071 -0.2268
 8697TIP3    H147506   5.759   3.688   0.973 -0.7218 -0.6991  0.9939
 8697TIP3    H247507   5.668   3.681   0.852  1.6662  0.9016 -0.9810
 8698TIP3   OH247508   2.773   1.359   4.476 -0.6324  0.3930 -0.4724
 8698TIP3    H147509   2.775   1.280   4.529  0.7721  1.2293  0.7839
 8698TIP3    H247510   2.859   1.399   4.489 -0.6569  1.2190 -2.4992
 8699TIP3   OH247511   6.033   2.741   0.799  0.5295 -0.4591  0.0476
 8699TIP3    H147512   6.017   2.835   0.812 -0.4081 -0.5011 -0.7028
 8699TIP3    H247513   6.097   2.738   0.728 -0.2888 -0.3885 -0.7187
 8700TIP3   OH247514   0.001   0.639  12.160  0.0143 -0.7287  0.5265
 8700TIP3    H147515  -0.050   0.569  12.201  0.1766 -0.3920  1.3271
 8700TIP3    H247516   0.089   0.630  12.198  0.4902 -1.1203 -0.6160
 8701TIP3   OH247517   3.813   4.332   1.161  0.1495  0.1144  0.1716
 8701TIP3    H147518   3.808   4.425   1.184 -0.3810 -0.1063  0.9480
 8701TIP3    H247519   3.753   4.289   1.220 -0.7695 -0.5482 -1.1900
 8702TIP3   OH247520   2.571   2.065  14.589  0.1829 -0.1045  0.0334
 8702TIP3    H147521   2.571   2.148  14.541 -2.7900  0.6315  1.0678
 8702TIP3    H247522   2.595   2.088  14.678 -0.5837 -0.3237  0.3085
 8703TIP3   OH247523   2.140   6.760   2.696 -0.1301 -0.0691 -0.4599
 8703TIP3    H147524   2.204   6.781   2.764 -0.0371 -1.9262  0.0880
 8703TIP3    H247525   2.072   6.827   2.706  0.0586 -0.0787  1.2596
 8704TIP3   OH247526   1.873   2.224   3.987  0.1000  0.2393 -0.4428
 8704TIP3    H147527   1.813   2.165   3.941  0.2381  0.8608 -1.4491
 8704TIP3    H247528   1.815   2.285   4.034 -0.0416 -0.5401  0.4378
 8705TIP3   OH247529   5.792   0.713   1.514 -0.1868  0.5067  0.1855
 8705TIP3    H147530   5.874   0.699   1.465 -0.6585  1.3356 -0.8851
 8705TIP3    H247531   5.801   0.800   1.551  0.0905 -0.0515  1.4715
 8706TIP3   OH247532   6.725   5.207  14.500  0.4292  0.1176 -0.3281
 8706TIP3    H147533   6.806   5.252  14.478 -0.0776  0.8267 -0.7523
 8706TIP3    H247534   6.754   5.131  14.552  1.3503  0.4021 -0.4029
 8707TIP3   OH247535   6.622   6.316   3.994 -0.2515  0.1225 -0.0152
 8707TIP3    H147536   6.657   6.324   4.082 -0.4536 -0.5470  0.1300
 8707TIP3    H247537   6.699   6.308   3.938 -0.0908  1.4775 -0.0109
 8708TIP3   OH247538   6.677   3.667   4.712 -0.0204 -0.4064  0.7418
 8708TIP3    H147539   6.682   3.756   4.678 -0.8732 -0.2841  0.9078
 8708TIP3    H247540   6.749   3.620   4.669  1.4081  0.7272  1.8311
 8709TIP3   OH247541   4.364   3.569  10.946 -0.1137 -0.1794 -0.4580
 8709TIP3    H147542   4.451   3.535  10.970 -0.7920 -1.9980 -0.4373
 8709TIP3    H247543   4.305   3.530  11.010 -1.3230 -1.2753 -2.1818
 8710TIP3   OH247544   1.682   0.190   2.003  0.3107  0.4761  0.1478
 8710TIP3    H147545   1.717   0.234   2.080  0.1984 -0.3731  0.6984
 8710TIP3    H247546   1.591   0.172   2.025 -0.0031  1.1160 -0.5862
 8711TIP3   OH247547   6.226   2.240   1.164 -0.5655  0.8334  0.2973
 8711TIP3    H147548   6.278   2.320   1.160  2.8526 -1.1826 -0.1576
 8711TIP3    H247549   6.221   2.220   1.257  1.1415  0.1791  0.2962
 8712TIP3   OH247550   1.502   3.416  15.120  0.5619 -0.0189  0.2655
 8712TIP3    H147551   1.440   3.343  15.115  0.6225 -0.1891  1.6687
 8712TIP3    H247552   1.449   3.493  15.099  0.0301 -0.2503  0.7140
 8713TIP3   OH247553   5.646   6.141  16.866  0.1109  0.0799  0.1655
 8713TIP3    H147554   5.633   6.231  16.896 -0.3205  0.0505  0.0664
 8713TIP3    H247555   5.563   6.116  16.826  0.4327 -0.1456 -0.3772
 8714TIP3   OH247556   0.487   3.748   3.029  0.7327 -0.9475 -0.6112
 8714TIP3    H147557   0.481   3.816   2.962  0.2753 -0.1842  0.1814
 8714TIP3    H247558   0.396   3.730   3.052  0.9174 -0.1019  0.8726
 8715TIP3   OH247559   1.158   2.497  13.445  0.0667  0.3432 -0.3456
 8715TIP3    H147560   1.230   2.535  13.495 -0.0821  2.4648 -1.5922
 8715TIP3    H247561   1.079   2.523  13.493  0.0390 -0.4038  0.0280
 8716TIP3   OH247562   0.214   3.679   5.231 -0.3291  0.2173  0.3245
 8716TIP3    H147563   0.214   3.761   5.282 -1.1084  0.8076 -0.5770
 8716TIP3    H247564   0.217   3.610   5.297 -0.4048  0.9666  1.1386
 8717TIP3   OH247565   3.551   5.450   4.147  0.2573 -0.2369  0.0733
 8717TIP3    H147566   3.637   5.409   4.161  0.4046 -0.4584 -1.3167
 8717TIP3    H247567   3.490   5.392   4.193  0.7252 -0.7482  0.0699
 8718TIP3   OH247568   1.078   5.056   1.173  0.5249  0.5221 -0.1394
 8718TIP3    H147569   1.167   5.086   1.156  0.2336  1.7178  0.3820
 8718TIP3    H247570   1.029   5.135   1.195 -0.6006 -0.1563 -0.1068
 8719TIP3   OH247571   4.691   2.170  11.843  0.3042  0.1649 -0.6293
 8719TIP3    H147572   4.757   2.105  11.866 -0.6542 -0.5541  0.1951
 8719TIP3    H247573   4.740   2.251  11.828  1.3120 -0.1949  0.5709
 8720TIP3   OH247574   1.440   2.466   0.758  0.1270 -0.1077 -0.1604
 8720TIP3    H147575   1.351   2.436   0.774  0.2482 -0.3113  0.1377
 8720TIP3    H247576   1.433   2.562   0.756 -0.1931 -0.1393 -0.7110
 8721TIP3   OH247577   4.040   6.416   2.079 -0.1013  0.2521 -0.2334
 8721TIP3    H147578   4.002   6.385   2.161  0.0790 -1.3582 -0.7216
 8721TIP3    H247579   3.969   6.409   2.015  0.4156 -0.8339 -0.7139
 8722TIP3   OH247580   4.673   0.088   6.118 -0.2751 -0.2734  0.1472
 8722TIP3    H147581   4.628   0.165   6.155  1.0536  1.0072 -0.8054
 8722TIP3    H247582   4.762   0.093   6.153  0.3567 -0.3116 -1.3773
 8723TIP3   OH247583   3.244   0.990   1.576 -0.1934  0.5601 -0.0183
 8723TIP3    H147584   3.279   0.900   1.579  0.2727  0.7694  1.4388
 8723TIP3    H247585   3.157   0.981   1.537  0.8611 -0.1678 -2.4000
 8724TIP3   OH247586   2.597   4.661  14.890 -0.7957 -0.2795  0.0245
 8724TIP3    H147587   2.611   4.667  14.796  0.8563 -0.2999  0.2382
 8724TIP3    H247588   2.672   4.708  14.928 -2.1659  0.9599  1.3170
 8725TIP3   OH247589   4.952   4.088  13.479 -0.4287 -0.7932  0.2049
 8725TIP3    H147590   5.004   4.007  13.475 -0.8908 -1.0767 -0.0901
 8725TIP3    H247591   5.017   4.156  13.495 -0.2308 -1.4533  2.6190
 8726TIP3   OH247592   5.013   0.888   0.110 -0.2711 -0.4969  0.4223
 8726TIP3    H147593   5.065   0.953   0.157 -0.4501 -0.1824  0.1857
 8726TIP3    H247594   5.055   0.804   0.131 -0.2172 -0.3383  0.9633
 8727TIP3   OH247595   5.864   2.738  15.350 -0.2212 -0.4670  0.5882
 8727TIP3    H147596   5.842   2.799  15.420  3.0005 -2.0291  3.2175
 8727TIP3    H247597   5.877   2.654  15.394  2.2444 -1.4754 -1.7787
 8728TIP3   OH247598   2.955   4.423   1.267 -0.0129 -0.0379  0.9717
 8728TIP3    H147599   2.875   4.459   1.228 -1.0284 -0.6541  2.3927
 8728TIP3    H247600   2.972   4.344   1.216  0.8366  1.0993 -0.5867
 8729TIP3   OH247601   3.082   1.727  11.509 -0.0904 -0.6157  0.1627
 8729TIP3    H147602   3.034   1.716  11.427 -2.7424  0.8002  1.4042
 8729TIP3    H247603   3.059   1.649  11.560 -2.3356  0.6438  1.2484
 8730TIP3   OH247604   3.836   6.641  13.299 -0.4618 -0.8190  0.6503
 8730TIP3    H147605   3.932   6.648  13.304 -0.4510  0.3726 -0.6712
 8730TIP3    H247606   3.805   6.694  13.373 -0.1105  0.3478 -0.0139
 8731TIP3   OH247607   3.480   1.870   4.903  0.2460  0.2433 -0.5322
 8731TIP3    H147608   3.457   1.777   4.914  1.2956 -0.0078 -0.2675
 8731TIP3    H247609   3.484   1.882   4.808  0.3033 -0.0452 -0.5697
 8732TIP3   OH247610   1.839   4.927   1.804  0.4437 -0.2351  0.0937
 8732TIP3    H147611   1.815   4.887   1.888  2.0631 -1.2276  0.1268
 8732TIP3    H247612   1.798   4.872   1.738 -1.0000  0.6624  0.2034
 8733TIP3   OH247613   2.294   4.833  12.941 -0.7044 -0.6924 -0.4140
 8733TIP3    H147614   2.236   4.848  12.867 -1.5601 -2.6423 -0.2132
 8733TIP3    H247615   2.377   4.874  12.916 -1.3045 -0.3665 -1.9666
 8734TIP3   OH247616   5.492   2.373   0.582  0.4595  0.0188 -0.1890
 8734TIP3    H147617   5.453   2.306   0.524 -0.4408 -1.2493  1.7801
 8734TIP3    H247618   5.424   2.391   0.646  1.5484  1.1470  0.6894
 8735TIP3   OH247619   6.640   1.719  13.167  0.5355  0.3682  0.3810
 8735TIP3    H147620   6.585   1.697  13.092  0.8139  0.3627  0.1789
 8735TIP3    H247621   6.601   1.799  13.203 -0.6878 -0.6066  1.3285
 8736TIP3   OH247622   6.611   5.318  12.256 -0.4119 -0.4336 -0.0607
 8736TIP3    H147623   6.681   5.275  12.305 -0.5445 -0.1514  0.3792
 8736TIP3    H247624   6.538   5.257  12.259  0.3928 -1.6296 -2.1732
 8737TIP3   OH247625   1.173   2.309   5.506 -0.1843  0.0801 -0.0788
 8737TIP3    H147626   1.226   2.389   5.506  0.3045 -0.2352 -0.1454
 8737TIP3    H247627   1.237   2.238   5.498 -0.4870 -0.4051  1.4707
 8738TIP3   OH247628   3.528   5.499  13.342 -0.3394 -0.1244 -0.0959
 8738TIP3    H147629   3.594   5.450  13.391  0.9984  2.2244  0.6032
 8738TIP3    H247630   3.562   5.502  13.252 -0.1806 -0.0811 -0.0339
 8739TIP3   OH247631   1.272   3.934  15.062 -0.0182  0.0181  0.0339
 8739TIP3    H147632   1.252   3.842  15.081  0.0551  0.2388  1.2174
 8739TIP3    H247633   1.309   3.968  15.143  0.6010  0.9209 -0.6099
 8740TIP3   OH247634   6.524   6.505   1.904 -0.2514 -0.6847  0.0487
 8740TIP3    H147635   6.570   6.557   1.838 -1.4136 -2.1317 -2.0298
 8740TIP3    H247636   6.453   6.562   1.933  1.3094  0.6473  1.4891
 8741TIP3   OH247637   0.473   3.828  15.004  0.6269 -0.3008  0.0367
 8741TIP3    H147638   0.410   3.769  15.043 -0.4052  0.3648 -0.5597
 8741TIP3    H247639   0.450   3.829  14.911  1.2599  0.2705 -0.1236
 8742TIP3   OH247640   5.410   1.208  15.156  0.2570  0.0593  0.0497
 8742TIP3    H147641   5.318   1.180  15.150  0.3757 -0.5561  0.8788
 8742TIP3    H247642   5.427   1.253  15.074  0.0843 -2.4721 -1.4760
 8743TIP3   OH247643   0.206   4.719   5.065 -0.5043  0.1321 -0.0828
 8743TIP3    H147644   0.229   4.782   5.133 -0.3518  0.3153 -0.3017
 8743TIP3    H247645   0.286   4.668   5.050 -0.3306  0.5544 -0.6160
 8744TIP3   OH247646   5.473   4.657  13.501  0.7609  0.1451  0.4533
 8744TIP3    H147647   5.453   4.749  13.518 -0.3393 -0.1655  0.8753
 8744TIP3    H247648   5.443   4.642  13.411  0.4453  0.0626  0.5717
 8745TIP3   OH247649   1.452   4.270  15.224 -0.0682 -0.4629  0.1601
 8745TIP3    H147650   1.363   4.235  15.223 -0.1657 -0.2096 -0.6747
 8745TIP3    H247651   1.507   4.196  15.199 -0.0483 -0.5992  0.5992
 8746TIP3   OH247652   4.880   2.894   4.863  0.5582 -0.4149  0.1695
 8746TIP3    H147653   4.867   2.864   4.773  2.0377  1.2833 -0.6632
 8746TIP3    H247654   4.858   2.987   4.861  1.6909 -0.0920  1.2757
 8747TIP3   OH247655   5.319   3.487  13.481  0.3094  0.8152 -0.1662
 8747TIP3    H147656   5.351   3.502  13.570  0.3885  1.1462 -0.2479
 8747TIP3    H247657   5.388   3.524  13.424 -0.5642  2.2568 -0.3364
 8748TIP3   OH247658   1.302   2.544   1.600  0.1793 -0.3945  1.1381
 8748TIP3    H147659   1.222   2.542   1.653 -0.4800  1.6643  0.3181
 8748TIP3    H247660   1.272   2.567   1.512  1.4736 -1.7961  0.2830
 8749TIP3   OH247661   0.667   5.513   5.609  0.2100 -0.0075 -0.3799
 8749TIP3    H147662   0.606   5.468   5.668  0.1225 -1.1814 -1.3272
 8749TIP3    H247663   0.702   5.585   5.661  0.4580 -1.2547  1.2432
 8750TIP3   OH247664   5.508   5.281   1.285 -0.3446  0.0660  0.1167
 8750TIP3    H147665   5.603   5.294   1.279 -0.4287  1.5601  1.4898
 8750TIP3    H247666   5.498   5.200   1.335  0.2016  0.2882  0.5847
 8751TIP3   OH247667   5.909   1.757   3.967  0.1832  0.3660 -0.4315
 8751TIP3    H147668   5.989   1.810   3.966  1.9697 -2.1528  0.0500
 8751TIP3    H247669   5.838   1.822   3.967  2.1850  2.7356  0.2847
 8752TIP3   OH247670   5.137   4.811   2.884  0.1943 -0.4044  0.4821
 8752TIP3    H147671   5.062   4.868   2.901  1.4199  1.9614 -1.4956
 8752TIP3    H247672   5.171   4.791   2.971 -1.4835  0.1778  1.3218
 8753TIP3   OH247673   2.746   5.185  11.670 -0.6561  0.5213 -0.6051
 8753TIP3    H147674   2.666   5.201  11.720 -0.8251  0.7549 -0.9463
 8753TIP3    H247675   2.800   5.132  11.728  0.1654  2.7635  0.8329
 8754TIP3   OH247676   4.248   6.777   5.332  0.1711 -0.3856 -0.0292
 8754TIP3    H147677   4.337   6.770   5.297  0.2281  2.3026 -0.6225
 8754TIP3    H247678   4.191   6.764   5.255  0.0982 -0.3905  0.0261
 8755TIP3   OH247679   4.348   6.549   2.682 -1.0212 -0.7346  0.5035
 8755TIP3    H147680   4.271   6.603   2.698 -1.8129 -1.3834 -0.8963
 8755TIP3    H247681   4.420   6.598   2.722 -1.5653  1.7420 -1.2956
 8756TIP3   OH247682   2.570   0.716   1.055  0.2651  0.2589  0.2937
 8756TIP3    H147683   2.558   0.621   1.059 -0.8081  0.4167  1.6872
 8756TIP3    H247684   2.492   0.748   1.009  1.7296  0.3198 -2.2743
 8757TIP3   OH247685   0.754   4.800  13.446  0.0388 -0.0545  0.2002
 8757TIP3    H147686   0.677   4.856  13.437  0.1470  0.1331  0.4059
 8757TIP3    H247687   0.735   4.723  13.392  0.1879  0.5055 -0.6682
 8758TIP3   OH247688   4.497   5.251  15.688 -0.1210  0.2707  0.4315
 8758TIP3    H147689   4.456   5.243  15.774  1.2879 -0.1312  1.1041
 8758TIP3    H247690   4.444   5.316  15.642 -1.9168 -0.7458  0.9559
 8759TIP3   OH247691   1.070   4.688   2.483 -0.0649 -0.0673  0.0131
 8759TIP3    H147692   1.083   4.605   2.528  0.6668  0.9320  1.7253
 8759TIP3    H247693   1.098   4.671   2.393 -0.2974 -1.7585  0.2234
 8760TIP3   OH247694   0.275   6.341   6.222 -0.0071  0.2765  0.0556
 8760TIP3    H147695   0.307   6.296   6.301 -1.3626 -1.3562 -0.2570
 8760TIP3    H247696   0.317   6.296   6.149 -1.6616 -0.8390 -0.2798
 8761TIP3   OH247697   3.194   1.692  15.452  0.2030 -0.4963  0.4170
 8761TIP3    H147698   3.108   1.656  15.471 -0.0099 -0.6213 -0.7082
 8761TIP3    H247699   3.197   1.774  15.501 -1.1182  0.1936 -0.5768
 8762TIP3   OH247700   0.092   1.827   2.867  0.5213  0.6502 -0.1881
 8762TIP3    H147701   0.077   1.814   2.774  2.0309  0.1988 -0.3942
 8762TIP3    H247702   0.175   1.875   2.872  1.5269 -1.0987  0.9394
 8763TIP3   OH247703   6.182   6.654  12.923  1.0091 -0.3856 -0.1784
 8763TIP3    H147704   6.239   6.583  12.952 -0.4318 -1.4170  0.2436
 8763TIP3    H247705   6.110   6.654  12.986  1.1685  1.7307  0.0667
 8764TIP3   OH247706   6.272   2.715  11.130  0.1212  0.3024 -0.4307
 8764TIP3    H147707   6.349   2.681  11.085 -2.0016 -2.6932 -2.1689
 8764TIP3    H247708   6.286   2.692  11.222  1.3016 -0.1671 -0.7171
 8765TIP3   OH247709   2.012   1.173   3.588 -0.5177 -0.1304  0.3629
 8765TIP3    H147710   2.068   1.221   3.649  3.0750 -0.7642 -2.1620
 8765TIP3    H247711   2.046   1.084   3.589 -2.1302 -0.8044 -0.6269
 8766TIP3   OH247712   4.436   3.409  17.106 -0.6985 -0.7219 -0.5409
 8766TIP3    H147713   4.363   3.416  17.168 -0.5926  0.9194 -0.5725
 8766TIP3    H247714   4.397   3.429  17.021 -0.6027 -1.8373 -0.8631
 8767TIP3   OH247715   4.427   2.878   0.985  0.2735  0.4805 -0.5506
 8767TIP3    H147716   4.491   2.832   1.039  1.3030  0.2528 -1.8957
 8767TIP3    H247717   4.390   2.944   1.043  2.0724  0.9268  0.1746
 8768TIP3   OH247718   6.676   2.272   0.613  0.8765 -0.6350 -0.0616
 8768TIP3    H147719   6.747   2.310   0.664  0.3431 -0.5159  0.6153
 8768TIP3    H247720   6.635   2.208   0.672 -2.1865  2.1899  1.1920
 8769TIP3   OH247721   3.079   1.906   3.946  0.0208 -0.0029 -0.0753
 8769TIP3    H147722   3.115   1.994   3.934 -1.5008  0.6775  0.0793
 8769TIP3    H247723   3.055   1.903   4.039  1.1943 -1.0409  0.2032
 8770TIP3   OH247724   5.115   5.293   5.953 -0.2575 -0.3780 -0.1717
 8770TIP3    H147725   5.167   5.213   5.944 -0.4611 -0.4541 -0.7024
 8770TIP3    H247726   5.044   5.282   5.889 -0.9796 -0.3184  0.6024
 8771TIP3   OH247727   0.164   6.352   5.049  0.3749  0.0152  0.0422
 8771TIP3    H147728   0.082   6.370   5.004 -0.0621 -1.6851  0.0877
 8771TIP3    H247729   0.138   6.321   5.136  0.9754 -1.5918 -0.3165
 8772TIP3   OH247730   5.186   5.030   2.125  0.1415  0.7021 -0.2131
 8772TIP3    H147731   5.174   5.125   2.121  0.8419  0.8347  0.5715
 8772TIP3    H247732   5.098   4.995   2.117  0.0969  1.2808 -3.4657
 8773TIP3   OH247733   4.905   4.328   1.759 -0.2551  0.0054  0.1085
 8773TIP3    H147734   4.852   4.346   1.682 -0.5634 -1.2342  0.0135
 8773TIP3    H247735   4.844   4.331   1.833 -0.2861 -0.5383  0.1040
 8774TIP3   OH247736   2.942   3.612  16.745 -0.4089 -1.0067 -0.2841
 8774TIP3    H147737   2.982   3.609  16.832 -0.9161  0.2776  0.0171
 8774TIP3    H247738   3.015   3.599  16.685  0.1348 -0.7827  0.3093
 8775TIP3   OH247739   1.279   2.110   3.147  0.2134 -0.1640 -0.0529
 8775TIP3    H147740   1.222   2.157   3.208  1.8973  1.4595  0.3503
 8775TIP3    H247741   1.250   2.019   3.152 -2.3333  0.5904  0.0837
 8776TIP3   OH247742   0.116   1.071   4.137 -0.1597 -0.3999 -0.0908
 8776TIP3    H147743   0.072   0.987   4.124  0.0290 -0.4415 -0.4604
 8776TIP3    H247744   0.134   1.073   4.231 -0.4133 -0.6495 -0.0350
 8777TIP3   OH247745   4.442   4.708  13.540 -0.0199 -0.0407  0.1979
 8777TIP3    H147746   4.519   4.740  13.586  0.3080 -0.6167  0.0595
 8777TIP3    H247747   4.385   4.785  13.532  0.2921  0.2621  0.7917
 8778TIP3   OH247748   4.282   5.284   0.253  0.0340 -0.4564 -0.6969
 8778TIP3    H147749   4.247   5.311   0.337 -1.7699  0.0936 -1.5739
 8778TIP3    H247750   4.330   5.360   0.220 -2.2431  0.6592 -1.6811
 8779TIP3   OH247751   6.114   5.553   2.477 -0.5412 -0.5602  0.2423
 8779TIP3    H147752   6.138   5.574   2.387  0.8680  1.3822  1.0169
 8779TIP3    H247753   6.019   5.539   2.474 -0.7232  0.7730 -1.3042
 8780TIP3   OH247754   6.654   5.753  14.714  0.1279  0.1757 -0.4690
 8780TIP3    H147755   6.612   5.822  14.662 -0.4785 -0.0650 -0.2944
 8780TIP3    H247756   6.735   5.794  14.745  1.1676 -0.0657 -2.6444
 8781TIP3   OH247757   4.042   2.686   0.484 -0.1420 -0.1927 -0.3664
 8781TIP3    H147758   4.085   2.688   0.570 -1.0493 -1.9520  0.1865
 8781TIP3    H247759   3.950   2.670   0.504 -0.3005 -1.0656 -1.6801
 8782TIP3   OH247760   1.576   0.130   0.325  0.6727 -0.5265 -0.4625
 8782TIP3    H147761   1.530   0.152   0.244  0.7814  0.1597 -0.3381
 8782TIP3    H247762   1.506   0.118   0.389  0.6661  1.8718  0.0719
 8783TIP3   OH247763   4.644   1.774  11.877  0.3516  0.1539 -0.2792
 8783TIP3    H147764   4.722   1.729  11.908  0.1496  0.2123  0.3451
 8783TIP3    H247765   4.572   1.728  11.920 -0.0316 -0.5075 -1.5818
 8784TIP3   OH247766   4.502   1.067   0.600  0.2141 -0.2509  0.5529
 8784TIP3    H147767   4.451   1.081   0.520  1.4632 -2.5655 -0.7522
 8784TIP3    H247768   4.582   1.117   0.586 -0.2811  0.7447  1.1662
 8785TIP3   OH247769   1.025   6.329   6.364  0.8259  0.2268 -0.3240
 8785TIP3    H147770   0.973   6.397   6.321 -1.7225 -0.7067  1.0535
 8785TIP3    H247771   0.994   6.247   6.326  1.0340 -0.3857  0.7609
 8786TIP3   OH247772   5.051   6.265  14.569 -0.6239 -0.3581  0.2091
 8786TIP3    H147773   5.078   6.184  14.525  1.7606  2.1127 -3.4729
 8786TIP3    H247774   5.097   6.263  14.652  0.2338 -2.3031 -0.2375
 8787TIP3   OH247775   0.172   6.474  16.556 -0.2053 -0.3073  0.5923
 8787TIP3    H147776   0.115   6.500  16.483  2.7322  0.6230 -1.5439
 8787TIP3    H247777   0.148   6.383  16.572 -1.1064 -0.5011 -1.4112
 8788TIP3   OH247778   2.623   2.712   2.307  0.7447  0.0383 -0.4899
 8788TIP3    H147779   2.675   2.791   2.317  0.2265  0.3627 -0.3123
 8788TIP3    H247780   2.571   2.727   2.227 -1.1899  0.9646  0.8547
 8789TIP3   OH247781   0.391   6.246   5.996 -0.5495  0.2944 -0.2083
 8789TIP3    H147782   0.430   6.300   5.927  1.2128 -1.2586 -0.5370
 8789TIP3    H247783   0.346   6.176   5.949  0.2652 -0.5104  0.1728
 8790TIP3   OH247784   3.477   6.523   1.951 -0.0692 -0.3060 -0.4194
 8790TIP3    H147785   3.494   6.606   1.996 -1.6486  0.5178 -1.2476
 8790TIP3    H247786   3.454   6.462   2.021  1.1463 -0.0711  0.2062
 8791TIP3   OH247787   4.195   6.231  14.982  0.6533 -0.1615 -0.1549
 8791TIP3    H147788   4.179   6.153  15.035 -2.8861  1.0594  0.8281
 8791TIP3    H247789   4.207   6.197  14.893  0.7982 -1.9091  0.4826
 8792TIP3   OH247790   2.933   2.451   3.579 -0.8390 -0.7464 -0.0358
 8792TIP3    H147791   2.938   2.356   3.592 -0.6489 -1.1503 -2.6274
 8792TIP3    H247792   3.011   2.472   3.529 -0.4444  0.9704  1.2202
 8793TIP3   OH247793   4.473   4.414   3.047  0.1802 -0.0125 -0.0286
 8793TIP3    H147794   4.555   4.454   3.075  0.3826 -0.8724  0.6505
 8793TIP3    H247795   4.405   4.466   3.091  0.3035  1.0666 -1.0516
 8794TIP3   OH247796   4.758   3.850  16.337 -0.4944 -0.6594 -0.6366
 8794TIP3    H147797   4.767   3.945  16.338  1.2901 -0.7825 -1.3172
 8794TIP3    H247798   4.666   3.835  16.317 -0.8144  0.9166 -0.4813
 8795TIP3   OH247799   5.937   6.650   3.169 -0.2990 -0.0950  0.2033
 8795TIP3    H147800   5.972   6.738   3.184  1.0752 -0.6810  0.6003
 8795TIP3    H247801   6.001   6.608   3.112 -1.9307 -0.2290 -1.6441
 8796TIP3   OH247802   2.905   2.199  14.662  0.1079 -0.2522  0.1416
 8796TIP3    H147803   2.870   2.249  14.736  0.9685 -2.7910  2.3910
 8796TIP3    H247804   2.868   2.111  14.672  3.4141 -1.7934 -0.0290
 8797TIP3   OH247805   6.628   2.771   3.046  0.5730 -0.0349  0.1169
 8797TIP3    H147806   6.604   2.679   3.053  0.4404  0.0384  0.6396
 8797TIP3    H247807   6.605   2.809   3.130 -1.5784  1.0118 -0.8829
 8798TIP3   OH247808   1.748   4.567   3.060 -0.1453 -0.4157  0.1066
 8798TIP3    H147809   1.830   4.587   3.103 -0.8559  0.7948  0.9517
 8798TIP3    H247810   1.704   4.505   3.118  0.2661 -1.2957 -0.4884
 8799TIP3   OH247811   5.368   0.457  12.258 -0.0432  0.2086 -0.1161
 8799TIP3    H147812   5.415   0.524  12.308 -0.2960 -0.6980  1.4186
 8799TIP3    H247813   5.370   0.380  12.315 -1.8367 -0.3807 -0.7957
 8800TIP3   OH247814   0.710   1.912  16.959 -0.7677 -0.0836  0.0307
 8800TIP3    H147815   0.795   1.943  16.928 -0.1901 -0.4911  1.1566
 8800TIP3    H247816   0.700   1.953  17.045 -2.0578  0.5546 -0.3972
 8801TIP3   OH247817   3.993   2.396  16.058 -0.2584 -0.3562  0.0985
 8801TIP3    H147818   4.003   2.301  16.053 -0.7494 -0.3661 -2.5408
 8801TIP3    H247819   4.083   2.430  16.065  0.0858 -0.9975 -0.9450
 8802TIP3   OH247820   6.713   3.858   4.481 -0.5452  0.2052  0.1327
 8802TIP3    H147821   6.638   3.887   4.533  0.3115  1.3021  0.8022
 8802TIP3    H247822   6.741   3.936   4.434 -1.5897 -0.8562 -2.4361
 8803TIP3   OH247823   5.076   6.723  13.325 -0.0508  0.0110  0.0909
 8803TIP3    H147824   5.035   6.712  13.239  0.8495 -0.3812 -0.2979
 8803TIP3    H247825   5.014   6.683  13.386  0.5025 -2.1600 -0.6726
 8804TIP3   OH247826   1.687   1.770  15.520  0.3931 -0.1297 -0.2201
 8804TIP3    H147827   1.717   1.699  15.464  0.3972 -1.2774  1.1998
 8804TIP3    H247828   1.685   1.733  15.608 -0.8957  1.2237  0.3736
 8805TIP3   OH247829   1.367   0.539   5.866 -0.2667 -0.5417 -0.5412
 8805TIP3    H147830   1.361   0.581   5.952  0.7733  0.4112 -0.9117
 8805TIP3    H247831   1.278   0.541   5.832 -1.0097 -2.2904  1.1026
 8806TIP3   OH247832   4.931   1.066   3.015 -0.4167 -0.0657 -0.1013
 8806TIP3    H147833   4.942   1.033   3.105 -0.2040  0.7110  0.1628
 8806TIP3    H247834   4.918   1.160   3.025 -0.6876 -0.0111 -0.8738
 8807TIP3   OH247835   3.349   5.791  10.529  0.4850  0.4508  0.0713
 8807TIP3    H147836   3.434   5.835  10.530  0.6203  0.2201 -0.6884
 8807TIP3    H247837   3.302   5.829  10.603  0.0863  2.8610 -1.3048
 8808TIP3   OH247838   4.589   2.062   3.346 -0.1957  0.1971  0.2783
 8808TIP3    H147839   4.635   1.994   3.396 -1.6931 -0.3590  0.9671
 8808TIP3    H247840   4.600   2.036   3.254 -0.4139 -0.7651  0.5150
 8809TIP3   OH247841   6.512   3.652  16.034 -0.8925  0.1110 -0.4310
 8809TIP3    H147842   6.548   3.683  16.117 -0.6636 -0.4851 -0.3004
 8809TIP3    H247843   6.474   3.730  15.993  1.2971  0.9594 -0.9668
 8810TIP3   OH247844   6.173   6.228  15.708  0.0228  0.0633  0.3895
 8810TIP3    H147845   6.132   6.142  15.704  0.6975 -0.2106 -2.1373
 8810TIP3    H247846   6.122   6.275  15.774 -1.0606 -1.8875  1.0361
 8811TIP3   OH247847   1.778   3.732  16.445 -0.8565  0.1127  0.0901
 8811TIP3    H147848   1.723   3.738  16.523 -0.0421 -0.3288  0.7188
 8811TIP3    H247849   1.719   3.750  16.372 -1.4270  1.5132  0.8648
 8812TIP3   OH247850   6.368   1.838   3.758 -0.3705 -0.2538 -0.1512
 8812TIP3    H147851   6.405   1.819   3.672  1.4219 -1.0486  0.7385
 8812TIP3    H247852   6.417   1.915   3.788  1.0860 -1.6536  1.2802
 8813TIP3   OH247853   3.238   0.860  10.893  0.0324  0.9250  0.2377
 8813TIP3    H147854   3.166   0.801  10.872  0.8012 -0.1186  0.4344
 8813TIP3    H247855   3.309   0.832  10.835  0.3958  1.6834  0.3120
 8814TIP3   OH247856   3.923   1.138   2.857  0.2322 -0.0630  0.7883
 8814TIP3    H147857   3.835   1.107   2.880 -0.2805  2.2070  2.2968
 8814TIP3    H247858   3.974   1.127   2.937  0.4322  1.4015  0.9012
 8815TIP3   OH247859   0.928   0.338   5.881  0.0549  0.0784  0.6033
 8815TIP3    H147860   0.914   0.249   5.847  0.6196  0.2973 -0.2551
 8815TIP3    H247861   0.842   0.367   5.909 -0.3110 -0.3859 -0.0123
 8816TIP3   OH247862   4.026   0.245  17.058  0.4499 -0.2523 -0.0912
 8816TIP3    H147863   3.982   0.177  17.007  0.7419 -0.4669 -0.0633
 8816TIP3    H247864   4.035   0.319  16.998  2.1719 -1.0348 -0.8740
 8817TIP3   OH247865   4.104   4.644   1.950 -0.2708 -0.1812 -0.2346
 8817TIP3    H147866   4.056   4.670   2.028 -1.0537  0.3042 -0.8622
 8817TIP3    H247867   4.037   4.614   1.889  0.4058 -1.4024 -0.4146
 8818TIP3   OH247868   2.467   5.765  15.207 -0.4226 -0.1210  0.1694
 8818TIP3    H147869   2.417   5.715  15.271 -0.5129 -1.0635 -0.6139
 8818TIP3    H247870   2.500   5.840  15.256 -0.5843 -0.7540  1.2896
 8819TIP3   OH247871   3.924   6.788  12.332  0.1830  0.2867 -0.0863
 8819TIP3    H147872   4.014   6.817  12.344  0.1021  0.6188 -0.2556
 8819TIP3    H247873   3.906   6.805  12.239 -0.4879  1.4945  0.2399
 8820TIP3   OH247874   1.948   6.141  15.025  0.0131 -0.4476  0.0652
 8820TIP3    H147875   1.855   6.160  15.034 -0.3516 -0.8410 -2.1443
 8820TIP3    H247876   1.952   6.074  14.957  1.8486 -1.4745  1.1072
 8821TIP3   OH247877   5.007   2.740   0.372  0.1314  0.2103 -0.6079
 8821TIP3    H147878   4.954   2.753   0.293 -0.5530 -0.6930 -0.3063
 8821TIP3    H247879   5.084   2.796   0.358 -0.1204  0.2913 -1.7779
 8822TIP3   OH247880   5.555   1.275  10.623 -0.3891  0.1058 -0.3546
 8822TIP3    H147881   5.597   1.213  10.681  1.1380  0.8271 -0.6292
 8822TIP3    H247882   5.520   1.222  10.552  2.5226 -0.3792 -1.5769
 8823TIP3   OH247883   0.525   3.698  16.461  0.0737 -0.0976  0.2182
 8823TIP3    H147884   0.451   3.658  16.506 -0.0385 -0.3609 -0.1948
 8823TIP3    H247885   0.486   3.753  16.393  0.2506 -0.0042  0.1896
 8824TIP3   OH247886   1.063   5.238  16.407 -0.5492  0.4510 -0.2819
 8824TIP3    H147887   1.018   5.322  16.414  0.5497  0.9738  0.6778
 8824TIP3    H247888   0.997   5.174  16.435 -0.6653  1.2187  1.2924
 8825TIP3   OH247889   0.843   2.368   2.048 -0.3500  0.7015  0.5515
 8825TIP3    H147890   0.908   2.419   2.096 -0.5115 -0.4944  2.1035
 8825TIP3    H247891   0.809   2.429   1.982  2.9350  1.1030 -0.9680
 8826TIP3   OH247892   5.374   0.560   5.576  0.0112 -0.2003  0.1411
 8826TIP3    H147893   5.288   0.600   5.584  0.3507  0.9200 -1.3960
 8826TIP3    H247894   5.416   0.575   5.661 -1.8723 -2.3057  1.5466
 8827TIP3   OH247895   3.512   2.107   5.160  0.2487  0.1413  0.3185
 8827TIP3    H147896   3.432   2.062   5.188 -0.3549  0.5390 -0.7306
 8827TIP3    H247897   3.577   2.037   5.153 -0.3410 -0.3894 -0.0300
 8828TIP3   OH247898   3.601   4.688   5.503  0.3924 -0.2487 -0.0960
 8828TIP3    H147899   3.638   4.757   5.560  0.5962 -0.0227 -0.4962
 8828TIP3    H247900   3.619   4.607   5.550  0.8834 -0.0918 -0.0008
 8829TIP3   OH247901   5.703   2.148   0.816 -0.3213 -0.2566  0.0581
 8829TIP3    H147902   5.651   2.209   0.869  1.2231 -0.2552  1.6751
 8829TIP3    H247903   5.693   2.180   0.726  0.2483  2.3370  0.8049
 8830TIP3   OH247904   3.022   3.585   3.982 -0.5468  0.1347 -0.3942
 8830TIP3    H147905   3.032   3.573   4.076 -1.9490 -0.4962 -0.2982
 8830TIP3    H247906   2.963   3.514   3.955 -0.7868  0.7676 -1.6153
 8831TIP3   OH247907   4.572   2.616  14.420 -0.4129  0.0020 -0.0292
 8831TIP3    H147908   4.486   2.575  14.427 -1.3571  1.8211 -0.1779
 8831TIP3    H247909   4.566   2.692  14.479  1.0528  0.2119 -0.1279
 8832TIP3   OH247910   3.805   4.284  13.013 -0.0731  0.3466  0.3858
 8832TIP3    H147911   3.798   4.306  13.106  0.1010  1.8540  0.0684
 8832TIP3    H247912   3.730   4.327  12.973 -0.5338 -0.8745 -0.0913
 8833TIP3   OH247913   3.952   4.953   3.426  0.2415  0.3081  0.3948
 8833TIP3    H147914   3.889   4.935   3.356  1.0225 -0.8616 -0.0496
 8833TIP3    H247915   3.949   4.874   3.480  2.7035 -0.6845 -0.7499
 8834TIP3   OH247916   1.965   4.536   4.611  0.3343 -0.8259  0.2507
 8834TIP3    H147917   1.908   4.494   4.675 -1.5981  1.8003  0.4127
 8834TIP3    H247918   1.966   4.628   4.636 -0.3142  0.3143 -3.2690
 8835TIP3   OH247919   5.894   5.477  16.547  0.4277  0.2208  0.6032
 8835TIP3    H147920   5.862   5.490  16.636  1.7169  2.1865  0.8612
 8835TIP3    H247921   5.911   5.383  16.540 -0.1146 -0.0230  2.2695
 8836TIP3   OH247922   4.488   0.881   3.271  0.0086 -0.0266  0.0167
 8836TIP3    H147923   4.558   0.925   3.320  0.8094 -1.5924  0.3278
 8836TIP3    H247924   4.435   0.838   3.337 -0.2038 -0.3459 -0.3568
 8837TIP3   OH247925   6.087   1.127  15.777  0.3435 -0.3081  0.0726
 8837TIP3    H147926   6.030   1.050  15.769  1.8077 -1.3940 -0.3505
 8837TIP3    H247927   6.170   1.092  15.809  0.8886  1.1786  0.3381
 8838TIP3   OH247928   3.975   0.818  10.943  0.0954  0.2425  0.0035
 8838TIP3    H147929   3.980   0.882  11.015  1.0803 -1.5824  1.6737
 8838TIP3    H247930   4.014   0.863  10.868  0.7677  1.5953  1.1128
 8839TIP3   OH247931   1.960   6.453  14.166 -0.4078 -0.0936  0.1025
 8839TIP3    H147932   1.995   6.426  14.251 -1.5655 -1.0155  0.3099
 8839TIP3    H247933   1.869   6.426  14.168 -0.8737  1.3051 -0.8346
 8840TIP3   OH247934   6.409   3.322   1.554  0.0199 -0.5894 -0.6612
 8840TIP3    H147935   6.402   3.240   1.603  0.7506 -1.0863 -1.3573
 8840TIP3    H247936   6.488   3.364   1.587  0.9436 -1.2896 -1.9047
 8841TIP3   OH247937   3.057   1.810   0.181 -0.3298 -0.0630 -0.4467
 8841TIP3    H147938   3.110   1.730   0.188  0.1181  0.3299  1.0030
 8841TIP3    H247939   2.968   1.781   0.203 -0.7438 -0.6755 -2.6513
 8842TIP3   OH247940   1.610   4.545  12.380  0.6231 -0.1718  0.2562
 8842TIP3    H147941   1.620   4.625  12.432  1.1358  0.1133 -0.2693
 8842TIP3    H247942   1.601   4.475  12.445 -0.2582  0.3563  0.7213
 8843TIP3   OH247943   4.573   3.503  12.003 -0.2931 -0.1774  0.4847
 8843TIP3    H147944   4.644   3.542  12.054 -0.8848  0.1066  1.1141
 8843TIP3    H247945   4.496   3.510  12.060 -1.0629  0.5342 -0.6084
 8844TIP3   OH247946   1.856   5.173  13.985  0.2736  0.2768  0.2227
 8844TIP3    H147947   1.891   5.222  13.910 -0.6013  0.3054 -0.1762
 8844TIP3    H247948   1.762   5.168  13.969  0.0767  0.2523  1.3086
 8845TIP3   OH247949   0.952   1.101  14.645  0.7231  0.3943  0.0988
 8845TIP3    H147950   0.945   1.014  14.607  0.0619  0.4253  0.1465
 8845TIP3    H247951   0.896   1.099  14.722 -0.8773  1.4430 -0.9728
 8846TIP3   OH247952   5.323   1.703  16.099  0.0855  0.0233  0.5118
 8846TIP3    H147953   5.284   1.616  16.100 -0.4309  0.2538  1.1461
 8846TIP3    H247954   5.349   1.717  16.007 -1.9626  0.1334 -0.1012
 8847TIP3   OH247955   4.707   1.804  15.993  0.1722  0.3291  0.1739
 8847TIP3    H147956   4.623   1.758  15.999  0.0771  0.6792  2.0365
 8847TIP3    H247957   4.773   1.735  16.005  0.1153  0.2263 -0.1061
 8848TIP3   OH247958   6.397   1.282   0.281 -0.4256 -0.2482  0.1505
 8848TIP3    H147959   6.413   1.371   0.314  0.9039 -0.6914  0.7710
 8848TIP3    H247960   6.330   1.246   0.339 -1.1352  0.4132 -0.2394
 8849TIP3   OH247961   2.988   3.295  12.525  0.0947 -0.4253  0.2407
 8849TIP3    H147962   2.916   3.353  12.500 -0.5137 -1.2476  0.0337
 8849TIP3    H247963   2.968   3.270  12.615  0.3154 -0.3722  0.3044
 8850TIP3   OH247964   2.571   4.042   2.413 -0.2290 -0.1742  0.3653
 8850TIP3    H147965   2.519   4.042   2.494 -1.9650 -1.4163 -0.6859
 8850TIP3    H247966   2.602   3.952   2.404 -0.3884 -0.1534 -0.5222
 8851TIP3   OH247967   4.413   6.139  16.728  0.7481 -0.7150  0.4140
 8851TIP3    H147968   4.340   6.097  16.772  0.4787  0.0560  0.7135
 8851TIP3    H247969   4.376   6.172  16.646  0.5933  0.2598  0.8665
 8852TIP3   OH247970   1.297   5.243  13.987  0.1871 -0.9226 -0.4219
 8852TIP3    H147971   1.301   5.196  13.904 -1.1785 -0.1353 -0.9680
 8852TIP3    H247972   1.212   5.217  14.025 -1.4321  2.2760 -1.5286
 8853TIP3   OH247973   4.790   2.461  14.238 -0.3774  0.0988  0.0866
 8853TIP3    H147974   4.750   2.547  14.231  0.4184  0.4517 -0.1688
 8853TIP3    H247975   4.778   2.436  14.330  0.8990  1.2290  0.5800
 8854TIP3   OH247976   1.876   4.802   3.676 -0.6289 -0.3606 -0.2029
 8854TIP3    H147977   1.941   4.736   3.701  0.0551  0.5213  0.4004
 8854TIP3    H247978   1.867   4.791   3.581  1.3684  0.3049 -0.5259
 8855TIP3   OH247979   0.923   2.771   0.077  0.1571 -0.8440  0.1435
 8855TIP3    H147980   0.911   2.722   0.158 -3.2298  1.2567  1.1085
 8855TIP3    H247981   0.844   2.754   0.026  0.6511  0.5649 -1.1843
 8856TIP3   OH247982   2.928   5.524   2.678  0.2057 -0.1662 -0.2179
 8856TIP3    H147983   2.924   5.537   2.773  0.3415  2.3853 -0.4888
 8856TIP3    H247984   2.870   5.591   2.642 -0.6312 -1.7349 -1.9400
 8857TIP3   OH247985   5.507   2.517   4.905  0.1735  0.7775  0.4200
 8857TIP3    H147986   5.432   2.474   4.863  2.1447 -0.3359 -2.2577
 8857TIP3    H247987   5.471   2.599   4.940 -2.2642  0.3553 -0.8427
 8858TIP3   OH247988   1.928   6.370   1.447  0.2352 -0.4141  0.0725
 8858TIP3    H147989   2.017   6.387   1.417  0.4807 -0.6739  0.6306
 8858TIP3    H247990   1.935   6.365   1.543 -0.3047 -0.8296  0.1016
 8859TIP3   OH247991   5.982   0.713   5.460  0.1245 -0.5062  0.0192
 8859TIP3    H147992   5.977   0.652   5.534 -0.6132 -0.5522 -0.0640
 8859TIP3    H247993   6.044   0.671   5.400 -0.0405 -0.9654  0.1595
 8860TIP3   OH247994   0.581   1.073  12.627  0.1228  0.0631 -0.0102
 8860TIP3    H147995   0.674   1.060  12.646  0.5273  1.6287 -0.8010
 8860TIP3    H247996   0.540   0.991  12.655  1.6371 -0.4205  0.9444
 8861TIP3   OH247997   0.809   2.647  12.126 -0.5314  0.1066 -0.3452
 8861TIP3    H147998   0.852   2.623  12.208 -2.1428 -0.0916  0.4729
 8861TIP3    H247999   0.718   2.621  12.138 -1.1872  1.7350 -1.4989
 8862TIP3   OH248000   2.719   6.211  10.845  0.3525 -0.1087 -0.1336
 8862TIP3    H148001   2.690   6.302  10.854  1.2251  0.0939  0.7904
 8862TIP3    H248002   2.753   6.205  10.756 -2.3182 -0.3253 -1.2178
 8863TIP3   OH248003   1.486   5.961   1.773 -0.1200  0.2731 -0.0625
 8863TIP3    H148004   1.504   5.920   1.858  1.1770  0.2423 -0.3367
 8863TIP3    H248005   1.499   5.891   1.709  0.3927  0.6661 -0.3986
 8864TIP3   OH248006   5.369   0.667   4.455  0.3136 -0.1461 -0.1870
 8864TIP3    H148007   5.438   0.710   4.404 -0.0241 -0.5331 -0.9956
 8864TIP3    H248008   5.416   0.604   4.509  0.5779 -0.7423 -1.0800
 8865TIP3   OH248009   3.826   2.370  16.300  0.0056 -0.0205 -0.0761
 8865TIP3    H148010   3.840   2.285  16.257 -0.5280  0.3305 -0.9459
 8865TIP3    H248011   3.890   2.428  16.260 -0.6450  0.3648 -0.5692
 8866TIP3   OH248012   1.230   2.614   1.344 -0.0149  0.5183 -0.0564
 8866TIP3    H148013   1.310   2.628   1.294  1.5419 -3.4477  0.9580
 8866TIP3    H248014   1.173   2.564   1.285  0.4243 -1.1688  0.8985
 8867TIP3   OH248015   3.356   2.063  13.830 -0.1195 -0.0900  0.0606
 8867TIP3    H148016   3.260   2.064  13.825 -0.1504 -0.3628  0.5338
 8867TIP3    H248017   3.384   2.008  13.757 -0.2424  1.2943 -1.0826
 8868TIP3   OH248018   5.158   1.122  15.104 -0.6608 -0.0417  0.0039
 8868TIP3    H148019   5.118   1.090  15.184 -0.6757  0.7096  0.3029
 8868TIP3    H248020   5.177   1.043  15.053  0.3050 -0.6004  1.1792
 8869TIP3   OH248021   3.294   4.251  14.426  0.6534  0.4076  0.3898
 8869TIP3    H148022   3.283   4.309  14.502 -0.0365 -0.9080  1.3327
 8869TIP3    H248023   3.206   4.242  14.390  0.8735  0.4877 -0.1853
 8870TIP3   OH248024   4.410   1.043   1.841  0.2330 -0.3441 -0.3273
 8870TIP3    H148025   4.412   1.080   1.753 -1.4570 -1.8112 -1.0332
 8870TIP3    H248026   4.424   1.119   1.899 -2.0530  1.2792 -1.7345
 8871TIP3   OH248027   2.946   4.546  15.427 -0.6860  0.2026 -0.2016
 8871TIP3    H148028   2.973   4.613  15.489 -0.3505 -1.4972  1.5870
 8871TIP3    H248029   3.026   4.522  15.380 -0.6137  0.3772 -0.1684
 8872TIP3   OH248030   5.346   6.442  11.213  0.3812 -0.0790 -0.9663
 8872TIP3    H148031   5.389   6.395  11.285  0.3328  0.6793 -0.4300
 8872TIP3    H248032   5.369   6.391  11.135  2.3455  0.3373 -0.7168
 8873TIP3   OH248033   2.983   2.408   6.008  0.6432  0.3637 -0.1437
 8873TIP3    H148034   3.017   2.333   6.057 -2.2271 -0.4395  0.7843
 8873TIP3    H248035   2.934   2.459   6.072 -0.5101  1.0435 -1.5020
 8874TIP3   OH248036   4.745   3.805  14.972  0.2346  0.0232  0.1187
 8874TIP3    H148037   4.755   3.844  15.058 -1.4108  1.6618 -0.3748
 8874TIP3    H248038   4.834   3.792  14.940  0.8766  2.7846  0.6099
 8875TIP3   OH248039   4.165   3.558  11.913  0.1612 -0.0775 -0.1497
 8875TIP3    H148040   4.094   3.619  11.894 -1.7162 -2.0312  0.0864
 8875TIP3    H248041   4.202   3.588  11.996  0.2293  1.4902 -0.7161
 8876TIP3   OH248042   1.589   3.137  12.885  0.6864  0.0437  0.1582
 8876TIP3    H148043   1.550   3.212  12.841  0.7766  0.7473  1.2342
 8876TIP3    H248044   1.515   3.084  12.914  0.6290 -0.4159 -0.8139
 8877TIP3   OH248045   3.252   6.777   2.924 -0.1165 -0.2754 -0.0344
 8877TIP3    H148046   3.181   6.713   2.931  0.4681 -0.9199  0.0057
 8877TIP3    H248047   3.227   6.832   2.849 -0.8021 -0.3077  0.1605
 8878TIP3   OH248048   4.624   0.024   0.980 -0.1796  0.0482 -0.3532
 8878TIP3    H148049   4.715   0.012   1.005 -0.3923  1.4453  1.2741
 8878TIP3    H248050   4.582   0.062   1.058 -2.3860 -1.4930 -0.6931
 8879TIP3   OH248051   3.391   2.645  11.171  0.1144 -0.3247 -0.3656
 8879TIP3    H148052   3.426   2.727  11.137 -0.0778 -0.4084 -0.7850
 8879TIP3    H248053   3.325   2.671  11.235  0.5387 -0.1620 -0.0007
 8880TIP3   OH248054   6.676   5.826   3.258 -0.0848 -0.2705  0.2620
 8880TIP3    H148055   6.591   5.782   3.262 -0.3101  0.2268  1.4358
 8880TIP3    H248056   6.655   5.919   3.267  0.4453  0.0491 -1.4406
 8881TIP3   OH248057   4.328   5.683  12.637  0.2715 -0.4131  0.5614
 8881TIP3    H148058   4.406   5.630  12.621  0.4533 -0.0350  0.2051
 8881TIP3    H248059   4.349   5.769  12.602 -0.6394 -0.5520 -0.3659
 8882TIP3   OH248060   6.327   1.080   4.345  0.1522  0.0728  0.0243
 8882TIP3    H148061   6.313   1.126   4.428  1.0971  0.6844 -0.1412
 8882TIP3    H248062   6.253   1.106   4.290 -0.2908 -0.0605  0.5528
 8883TIP3   OH248063   5.208   0.674   0.207  0.2461 -0.3489  0.3574
 8883TIP3    H148064   5.160   0.592   0.221  0.7984 -1.0331 -1.4291
 8883TIP3    H248065   5.235   0.701   0.294  0.9024 -2.6042  0.9229
 8884TIP3   OH248066   3.399   4.055  14.030 -0.2383 -0.6260 -0.1618
 8884TIP3    H148067   3.486   4.086  14.003 -0.0631 -0.5556  0.4804
 8884TIP3    H248068   3.408   3.960  14.034 -0.4057 -0.6768 -0.8255
 8885TIP3   OH248069   1.287   0.329  12.735 -0.0208 -0.3940 -0.3574
 8885TIP3    H148070   1.194   0.317  12.751 -0.2072  2.5071  1.3695
 8885TIP3    H248071   1.330   0.273  12.800 -0.5779 -0.5568 -0.1251
 8886TIP3   OH248072   2.055   1.263   5.111  0.3054  0.0805 -0.5451
 8886TIP3    H148073   2.146   1.237   5.126  0.6034  1.7500  1.0267
 8886TIP3    H248074   2.005   1.182   5.117  1.2976 -0.4403  2.6501
 8887TIP3   OH248075   4.213   5.165  14.617  0.3475 -0.4097  0.5436
 8887TIP3    H148076   4.117   5.166  14.613  0.2796  0.8256  1.6480
 8887TIP3    H248077   4.234   5.092  14.674  0.1335 -1.2892 -0.4642
 8888TIP3   OH248078   4.906   2.066  16.062 -0.7019  0.0824  0.0646
 8888TIP3    H148079   4.949   2.140  16.019 -0.4167  0.4644  0.9884
 8888TIP3    H248080   4.968   1.994  16.055 -1.2150 -0.2470 -1.3414
 8889TIP3   OH248081   3.386   1.677   4.158  0.3556  0.1188 -0.2570
 8889TIP3    H148082   3.373   1.632   4.241  1.3755 -0.6424 -0.4873
 8889TIP3    H248083   3.427   1.611   4.102  0.7915  0.9895 -0.9816
 8890TIP3   OH248084   4.898   0.032   0.957  0.3698 -0.2706 -0.4061
 8890TIP3    H148085   4.963   0.051   0.889  0.6507  1.0236  0.1857
 8890TIP3    H248086   4.935   0.072   1.036 -0.9246  0.0725  0.0440
 8891TIP3   OH248087   4.554   2.733  13.359  0.4192  1.0164  0.0888
 8891TIP3    H148088   4.630   2.706  13.410 -0.4983  1.8446  1.9626
 8891TIP3    H248089   4.481   2.731  13.421 -1.0647  0.5286 -1.5813
 8892TIP3   OH248090   1.594   5.221  13.265  0.5828 -0.4245 -0.0597
 8892TIP3    H148091   1.672   5.177  13.298  0.8151  0.5850  0.7619
 8892TIP3    H248092   1.523   5.190  13.321  0.3619 -1.3792 -0.8372
 8893TIP3   OH248093   6.497   5.805   4.153  0.0484  0.0524  0.1221
 8893TIP3    H148094   6.479   5.899   4.148  0.9009  0.1862 -0.6840
 8893TIP3    H248095   6.469   5.771   4.068  1.0302 -0.1779 -0.1189
 8894TIP3   OH248096   5.402   6.543   3.671  0.0288  0.1832  0.3718
 8894TIP3    H148097   5.438   6.561   3.584  1.3086  1.5189  1.1351
 8894TIP3    H248098   5.370   6.628   3.701  0.4703 -0.0712  1.5838
 8895TIP3   OH248099   2.328   5.548   0.548  0.8160  0.2236  0.1343
 8895TIP3    H148100   2.390   5.484   0.582 -0.5706 -2.0048 -1.2559
 8895TIP3    H248101   2.342   5.548   0.454  1.0158  2.3105  0.1123
 8896TIP3   OH248102   1.588   6.118  15.772  0.7045 -0.5258  0.9101
 8896TIP3    H148103   1.590   6.091  15.680  0.7396  1.0692  0.4024
 8896TIP3    H248104   1.675   6.096  15.805  0.8261 -0.7470  0.4498
 8897TIP3   OH248105   5.627   4.293   4.635 -0.0859 -0.5619  0.8911
 8897TIP3    H148106   5.611   4.203   4.662  1.1518 -1.8402 -2.1786
 8897TIP3    H248107   5.722   4.304   4.645  0.5502 -1.2909 -2.8864
 8898TIP3   OH248108   0.729   3.125  11.617  0.0322 -0.2507 -0.8937
 8898TIP3    H148109   0.759   3.086  11.535  2.1513 -0.4437 -0.0948
 8898TIP3    H248110   0.722   3.219  11.598  2.5220  0.0149 -0.8326
 8899TIP3   OH248111   1.299   2.363   4.650  0.0528  0.0697  0.7398
 8899TIP3    H148112   1.376   2.374   4.594 -0.2805 -1.8014 -0.1802
 8899TIP3    H248113   1.232   2.327   4.591  0.0728 -3.2695  2.5117
 8900TIP3   OH248114   5.030   2.935  14.827 -0.1184 -0.0123 -0.2281
 8900TIP3    H148115   5.081   2.878  14.885 -2.6024 -0.4787  1.6517
 8900TIP3    H248116   5.046   3.023  14.860 -0.3158 -0.1305  0.1931
 8901TIP3   OH248117   6.338   1.588   3.205 -0.1489 -0.0893  0.4514
 8901TIP3    H148118   6.432   1.590   3.187  0.2047  1.8683  2.2370
 8901TIP3    H248119   6.331   1.546   3.291 -0.8679  0.2816  0.5774
 8902TIP3   OH248120   2.339   4.655   1.927 -0.1913  0.0918 -0.6838
 8902TIP3    H148121   2.384   4.571   1.915 -0.1661  0.2340 -1.7097
 8902TIP3    H248122   2.277   4.639   1.997  1.0452 -0.2795  0.3682
 8903TIP3   OH248123   5.961   2.682   1.767  0.2457 -0.0925  0.1416
 8903TIP3    H148124   5.946   2.695   1.860  1.2734  1.2254  0.1461
 8903TIP3    H248125   5.901   2.743   1.724  0.5000  0.0356 -0.0327
 8904TIP3   OH248126   2.095   5.249  11.695  0.4059  0.4521 -0.1339
 8904TIP3    H148127   2.117   5.166  11.654 -2.9916  0.4681 -2.3017
 8904TIP3    H248128   2.116   5.315  11.629 -0.4562  0.9599  0.0836
 8905TIP3   OH248129   6.296   1.669   2.342  0.1192 -0.2326  0.6026
 8905TIP3    H148130   6.258   1.639   2.260 -0.8709  1.9678  0.2016
 8905TIP3    H248131   6.314   1.588   2.391  0.7830 -1.6072 -1.7437
 8906TIP3   OH248132   2.169   3.221   5.299 -0.2527  0.0723 -0.1672
 8906TIP3    H148133   2.086   3.201   5.255  0.8240  1.1177 -2.9079
 8906TIP3    H248134   2.167   3.316   5.310 -0.6235 -0.1755  2.5287
 8907TIP3   OH248135   5.913   3.612   1.060  0.0482  0.0710  0.2562
 8907TIP3    H148136   5.994   3.580   1.021 -0.1411 -0.6261  0.4287
 8907TIP3    H248137   5.942   3.664   1.135  0.5395  3.2129 -1.9396
 8908TIP3   OH248138   5.387   1.623   4.218 -0.1216 -0.1415 -0.2050
 8908TIP3    H148139   5.375   1.635   4.124 -0.4378  0.4887 -0.0873
 8908TIP3    H248140   5.299   1.630   4.255  0.0345 -0.1144  0.1656
 8909TIP3   OH248141   3.527   4.819  14.321  0.3551 -0.0777 -0.0666
 8909TIP3    H148142   3.485   4.852  14.400  0.2332 -0.0561 -0.1403
 8909TIP3    H248143   3.573   4.895  14.284  0.7264 -0.1764  0.1856
 8910TIP3   OH248144   3.866   2.231  12.545  0.7555  0.1758 -0.3474
 8910TIP3    H148145   3.893   2.155  12.596 -1.2568  1.0306  2.1798
 8910TIP3    H248146   3.949   2.273  12.520  1.8515 -1.0526  1.0237
 8911TIP3   OH248147   6.711   4.057   4.899 -0.5900 -0.0701 -0.7082
 8911TIP3    H148148   6.720   4.139   4.947  0.4538 -0.2162 -0.6424
 8911TIP3    H248149   6.799   4.038   4.866 -0.6019 -1.6384  0.0715
 8912TIP3   OH248150   1.294   3.169   5.452  0.7713 -0.1188  0.4858
 8912TIP3    H148151   1.388   3.163   5.469  0.8630 -1.7216 -0.4395
 8912TIP3    H248152   1.285   3.247   5.397  1.5347  0.1670  0.7573
 8913TIP3   OH248153   1.378   3.542  13.532  0.5942 -0.3668  0.0027
 8913TIP3    H148154   1.345   3.545  13.442  1.5849  1.4306 -0.3421
 8913TIP3    H248155   1.382   3.633  13.559 -0.7218 -0.9150  2.3016
 8914TIP3   OH248156   1.077   5.952  12.479 -0.0231 -0.2160  0.7342
 8914TIP3    H148157   1.051   5.986  12.393 -1.2987 -1.5846  0.5389
 8914TIP3    H248158   1.060   6.025  12.539  0.6475  0.6708 -0.1212
 8915TIP3   OH248159   3.489   0.142  16.874 -0.3846  0.4548  0.3958
 8915TIP3    H148160   3.443   0.221  16.847  0.1734  1.4400  2.1799
 8915TIP3    H248161   3.474   0.080  16.802 -2.8316  1.3480  0.0342
 8916TIP3   OH248162   4.821   2.718  17.138  0.1675 -0.4946  0.8810
 8916TIP3    H148163   4.795   2.753  17.223  0.6244 -0.2187  0.9097
 8916TIP3    H248164   4.848   2.795  17.088 -0.4976 -0.6009  0.3400
 8917TIP3   OH248165   1.131   5.414   0.526  0.3097 -0.3053 -0.3054
 8917TIP3    H148166   1.146   5.321   0.540 -1.1799 -0.6273 -0.6505
 8917TIP3    H248167   1.172   5.432   0.441  0.2061 -0.7667 -0.4581
 8918TIP3   OH248168   2.044   1.773   1.770  0.1809 -0.9583  0.3194
 8918TIP3    H148169   2.076   1.685   1.755  2.2274 -0.2075 -0.0332
 8918TIP3    H248170   2.047   1.784   1.865 -0.5837 -1.4187  0.4067
 8919TIP3   OH248171   2.169   2.974  15.561  0.9070 -0.3567  0.6098
 8919TIP3    H148172   2.197   3.057  15.522  0.3531 -0.1036  0.7463
 8919TIP3    H248173   2.076   2.986  15.578  0.5744 -1.3970 -0.3860
 8920TIP3   OH248174   5.564   0.828  14.185  0.0170 -0.3000  0.4676
 8920TIP3    H148175   5.574   0.887  14.261  0.3794  1.4548 -0.8777
 8920TIP3    H248176   5.643   0.843  14.133 -0.7206 -0.6642 -0.7905
 8921TIP3   OH248177   0.854   4.190  13.814 -0.1981 -0.2168 -0.5434
 8921TIP3    H148178   0.763   4.204  13.841  0.1675  0.1562  0.5455
 8921TIP3    H248179   0.862   4.240  13.733 -0.4989  1.2010  0.2622
 8922TIP3   OH248180   6.714   0.106   3.307 -0.0299 -0.1502  0.2376
 8922TIP3    H148181   6.631   0.100   3.260 -0.5633  0.2259  1.1016
 8922TIP3    H248182   6.734   0.200   3.308  0.2257 -0.2044  0.3255
 8923TIP3   OH248183   4.175   4.059  16.192 -0.3191  0.3568  0.3107
 8923TIP3    H148184   4.202   4.015  16.273  1.9664 -0.9429 -1.0667
 8923TIP3    H248185   4.117   3.997  16.149 -1.3746  0.9666  0.8175
 8924TIP3   OH248186   0.608   2.780  16.830 -0.2572 -0.2435 -0.2048
 8924TIP3    H148187   0.585   2.801  16.739 -0.5244  0.5151  0.0325
 8924TIP3    H248188   0.583   2.688  16.840 -0.6616 -0.1994 -0.7576
 8925TIP3   OH248189   4.707   6.110  17.077 -0.0212 -0.3346  0.4346
 8925TIP3    H148190   4.681   6.106  17.169  0.5756  1.7493  0.7666
 8925TIP3    H248191   4.785   6.166  17.077 -1.0400  1.2163 -1.4881
 8926TIP3   OH248192   3.429   4.097   4.027 -0.8247  0.0890  0.0919
 8926TIP3    H148193   3.345   4.142   4.040 -0.6296  0.0570  1.6969
 8926TIP3    H248194   3.434   4.035   4.099  0.6015  0.1273  0.0521
 8927TIP3   OH248195   2.344   4.965  13.533  0.5421  0.4308 -0.3550
 8927TIP3    H148196   2.360   5.058  13.515 -0.6847  0.5856 -0.7202
 8927TIP3    H248197   2.305   4.932  13.452  0.6215 -0.3225 -0.0891
 8928TIP3   OH248198   3.611   1.454   2.072  0.2277 -0.3200  0.2934
 8928TIP3    H148199   3.525   1.453   2.029  0.9138  1.4027 -1.2564
 8928TIP3    H248200   3.672   1.432   2.002  1.3639  2.2913  0.3694
 8929TIP3   OH248201   5.750   2.602  11.785 -0.6782 -0.5484 -0.1619
 8929TIP3    H148202   5.833   2.615  11.830  0.1101 -0.4500 -1.5801
 8929TIP3    H248203   5.708   2.688  11.786 -0.3218 -0.3743 -0.2676
 8930TIP3   OH248204   3.497   5.821   3.650 -0.4844  0.4172  0.4517
 8930TIP3    H148205   3.435   5.771   3.596  0.5093 -1.2657  0.7947
 8930TIP3    H248206   3.574   5.764   3.656  0.7565  2.0680  0.7920
 8931TIP3   OH248207   5.284   3.750   4.546 -0.5179  0.7602 -0.1619
 8931TIP3    H148208   5.376   3.728   4.537 -0.5892  0.5934 -0.5060
 8931TIP3    H248209   5.267   3.748   4.640 -1.1760 -3.4052 -0.1728
 8932TIP3   OH248210   4.709   3.052   5.439  0.5499  0.0274  0.1175
 8932TIP3    H148211   4.757   3.041   5.357 -2.0899 -0.9537 -1.4258
 8932TIP3    H248212   4.777   3.065   5.505  2.8033  0.7803 -2.1685
 8933TIP3   OH248213   6.578   4.518   0.178  0.3622 -0.4345  0.6762
 8933TIP3    H148214   6.525   4.595   0.199 -0.4303 -1.0171  0.8579
 8933TIP3    H248215   6.659   4.554   0.142  0.8416  0.5583  2.5912
 8934TIP3   OH248216   4.285   0.339   2.507 -0.2551  0.1581 -0.2596
 8934TIP3    H148217   4.236   0.269   2.464 -0.6184  0.6432 -0.6425
 8934TIP3    H248218   4.346   0.371   2.441 -1.0481  1.1309 -0.5377
 8935TIP3   OH248219   3.240   6.711   2.492  0.3029 -0.1128 -0.2892
 8935TIP3    H148220   3.312   6.703   2.428 -0.0737 -2.6512 -0.4675
 8935TIP3    H248221   3.162   6.686   2.443  0.2470 -4.2914  1.5069
 8936TIP3   OH248222   4.249   2.154  11.352  0.1326 -0.0604  0.7075
 8936TIP3    H148223   4.224   2.077  11.301  0.8421 -0.3931  0.8522
 8936TIP3    H248224   4.345   2.151  11.355  0.1889  0.9585  0.5095
 8937TIP3   OH248225   3.266   4.435  13.546 -0.0279 -1.1004  0.4688
 8937TIP3    H148226   3.254   4.513  13.601 -2.3292 -1.6596  0.8397
 8937TIP3    H248227   3.217   4.366  13.591  1.6047 -2.6970 -0.0779
 8938TIP3   OH248228   6.088   3.817  16.293  0.8174 -1.0327 -0.0971
 8938TIP3    H148229   6.018   3.853  16.239  0.7924  0.1702  0.6996
 8938TIP3    H248230   6.108   3.733  16.252 -0.3549 -0.9279 -0.9642
 8939TIP3   OH248231   3.069   0.866   5.485 -0.4632 -0.4752 -0.1228
 8939TIP3    H148232   3.006   0.919   5.533  0.8500  0.7980  0.2868
 8939TIP3    H248233   3.019   0.829   5.412 -1.3474  1.8117 -0.7770
 8940TIP3   OH248234   0.245   1.926  15.247 -0.0688 -0.3656  0.2351
 8940TIP3    H148235   0.190   1.851  15.224 -1.0755  0.8061 -1.3493
 8940TIP3    H248236   0.239   1.932  15.342 -1.5124 -1.1398  0.2243
 8941TIP3   OH248237   2.261   0.850   1.469 -0.6796 -0.6827 -0.3991
 8941TIP3    H148238   2.271   0.923   1.529 -0.7596 -0.6422 -0.4343
 8941TIP3    H248239   2.345   0.844   1.424 -0.0009 -1.8632  0.9884
 8942TIP3   OH248240   0.106   1.308   5.737 -0.6781 -0.2691 -0.1935
 8942TIP3    H148241   0.182   1.319   5.680 -0.5793 -1.4371 -0.3009
 8942TIP3    H248242   0.117   1.221   5.776  0.3507  1.2179  3.2371
 8943TIP3   OH248243   4.143   2.218   6.297 -0.1705  0.7135 -0.0127
 8943TIP3    H148244   4.205   2.244   6.365  0.0732  1.2007 -0.4118
 8943TIP3    H248245   4.196   2.166   6.236  0.0542  1.8187 -0.7870
 8944TIP3   OH248246   1.467   6.176   1.061 -0.3209  0.6258  0.1660
 8944TIP3    H148247   1.514   6.113   1.114  0.2327 -0.1036 -1.1376
 8944TIP3    H248248   1.488   6.261   1.100  0.7603  0.1771  0.5948
 8945TIP3   OH248249   1.221   6.164  12.833 -0.1521  0.1510  0.4895
 8945TIP3    H148250   1.151   6.199  12.777 -1.8671 -0.9090  1.8532
 8945TIP3    H248251   1.271   6.241  12.859 -0.9685  0.9853 -0.3090
 8946TIP3   OH248252   5.680   5.542   3.741 -0.3367  0.3406 -0.0138
 8946TIP3    H148253   5.663   5.484   3.815 -1.0121  1.2130  0.5204
 8946TIP3    H248254   5.599   5.591   3.729  0.5402  1.8840  0.1752
 8947TIP3   OH248255   3.548   0.656  13.398  0.5103  0.6995 -0.5887
 8947TIP3    H148256   3.632   0.697  13.379  0.4945  0.0840 -2.1056
 8947TIP3    H248257   3.498   0.665  13.317  0.0463 -1.1204 -0.5492
 8948TIP3   OH248258   2.786   1.449  12.191  1.4259 -0.1059 -0.9174
 8948TIP3    H148259   2.785   1.533  12.145 -0.2251 -0.0821 -0.9008
 8948TIP3    H248260   2.800   1.472  12.283 -1.0987  0.4092 -0.5779
 8949TIP3   OH248261   1.726   1.708  17.172 -0.6216 -0.4067 -0.0354
 8949TIP3    H148262   1.633   1.696  17.151 -0.6571  1.7418 -1.3951
 8949TIP3    H248263   1.772   1.647  17.114 -1.1001  0.0251 -0.8775
 8950TIP3   OH248264   4.808   1.710  12.547  0.7342  0.2675  1.1789
 8950TIP3    H148265   4.882   1.771  12.551  0.5352  0.6797 -0.5971
 8950TIP3    H248266   4.849   1.623  12.545  1.1618  0.4688  0.9197
 8951TIP3   OH248267   2.653   3.404   3.766 -0.0467  0.4400 -0.6853
 8951TIP3    H148268   2.650   3.455   3.848 -0.5334  0.1052 -0.4853
 8951TIP3    H248269   2.741   3.418   3.732 -0.4239  2.0727 -1.0590
 8952TIP3   OH248270   3.507   2.920   0.065 -0.1504 -0.0463  0.3087
 8952TIP3    H148271   3.539   2.841   0.108  1.7769  1.4954  1.8972
 8952TIP3    H248272   3.552   2.922  -0.019  0.2638 -0.3449  0.5198
 8953TIP3   OH248273   2.609   5.665   2.599  0.6580 -0.5954 -0.1035
 8953TIP3    H148274   2.589   5.611   2.676 -0.9696  3.8853  2.9978
 8953TIP3    H248275   2.525   5.672   2.553  0.6475  0.0085  0.0104
 8954TIP3   OH248276   0.015   2.996  16.693 -0.1011  0.1358 -0.5463
 8954TIP3    H148277  -0.012   2.921  16.640 -0.4811 -0.7519  0.8380
 8954TIP3    H248278   0.108   2.979  16.713 -0.8521 -1.5485  2.1177
 8955TIP3   OH248279   4.738   4.528   4.412  0.3809  0.0469  0.2705
 8955TIP3    H148280   4.785   4.586   4.351  1.4063  0.2770  1.2419
 8955TIP3    H248281   4.718   4.450   4.360  0.0742  0.7642 -0.7185
 8956TIP3   OH248282   0.498   1.095   4.015  0.1913 -0.3216 -0.2338
 8956TIP3    H148283   0.521   1.016   4.065 -0.4706 -0.7681 -0.6161
 8956TIP3    H248284   0.402   1.093   4.010  0.1033  1.1130  0.7075
 8957TIP3   OH248285   5.877   6.080  16.527 -0.1069 -0.1332 -0.2218
 8957TIP3    H148286   5.851   6.080  16.619  0.5288 -0.8714 -0.0367
 8957TIP3    H248287   5.810   6.027  16.483  0.1621 -0.6550 -0.0112
 8958TIP3   OH248288   4.365   3.397  12.177 -0.4061 -0.2656 -0.6533
 8958TIP3    H148289   4.303   3.334  12.140  0.5525 -0.8524 -1.3027
 8958TIP3    H248290   4.311   3.474  12.197 -2.1068 -2.0006  2.3274
 8959TIP3   OH248291   4.926   4.743   4.776  0.3358  0.4800  0.6204
 8959TIP3    H148292   4.971   4.684   4.715  1.2871 -0.8694  2.5030
 8959TIP3    H248293   4.850   4.692   4.807  0.2391  0.8705  1.0365
 8960TIP3   OH248294   5.594   1.980  15.105 -0.0264 -0.8819  0.1587
 8960TIP3    H148295   5.599   2.020  15.192 -0.3229  0.2624 -0.3355
 8960TIP3    H248296   5.540   1.902  15.119 -0.7056 -0.3123  0.8795
 8961TIP3   OH248297   3.726   3.109  16.168 -0.4203  0.0082 -0.2766
 8961TIP3    H148298   3.746   3.122  16.261 -0.4801  1.5930 -0.4619
 8961TIP3    H248299   3.706   3.196  16.135 -0.3786 -0.5217 -1.7940
 8962TIP3   OH248300   0.307   6.255   2.365 -0.5026 -0.5757 -0.1790
 8962TIP3    H148301   0.391   6.288   2.398 -0.4536 -1.2468  0.3690
 8962TIP3    H248302   0.262   6.334   2.333  0.7099 -0.3206 -1.3418
 8963TIP3   OH248303   1.256   1.054   6.246  0.2306  0.0364 -0.1273
 8963TIP3    H148304   1.272   1.107   6.324 -1.9679 -1.4847  1.4900
 8963TIP3    H248305   1.288   0.967   6.270  0.1895 -0.3000 -1.2370
 8964TIP3   OH248306   2.580   2.904  13.675 -0.3559 -0.1382 -0.6348
 8964TIP3    H148307   2.593   2.881  13.767 -4.5136  0.2924  0.2212
 8964TIP3    H248308   2.608   2.995  13.670  1.1037 -0.5300 -0.1606
 8965TIP3   OH248309   3.199   1.480  16.173  0.0675 -0.4835 -0.0540
 8965TIP3    H148310   3.118   1.489  16.223  0.2973  0.2114  0.2088
 8965TIP3    H248311   3.215   1.386  16.169 -0.1253 -0.5678  0.9049
 8966TIP3   OH248312   4.788   6.523   6.035 -0.5455 -0.1020 -0.6374
 8966TIP3    H148313   4.858   6.510   5.972 -1.0185  0.5873 -1.3322
 8966TIP3    H248314   4.824   6.585   6.099 -0.3811 -0.0788 -0.7529
 8967TIP3   OH248315   3.963   4.050  13.006  0.4081  0.1656 -0.4187
 8967TIP3    H148316   3.907   4.126  13.023 -0.4644 -0.0912 -1.9642
 8967TIP3    H248317   4.043   4.068  13.055 -0.4172  1.2773  0.6031
 8968TIP3   OH248318   3.837   3.489  15.725  0.0919  0.2879 -0.4666
 8968TIP3    H148319   3.847   3.518  15.635  1.0877 -1.2495 -0.8859
 8968TIP3    H248320   3.851   3.394  15.722 -1.3709 -0.0368  1.0695
 8969TIP3   OH248321   5.822   3.307   2.433 -0.2243 -0.2110  0.2398
 8969TIP3    H148322   5.889   3.323   2.367 -0.0576 -0.5196  0.3271
 8969TIP3    H248323   5.852   3.228   2.478  0.1776  0.5585  1.3435
 8970TIP3   OH248324   1.204   5.555  10.957  0.4253  0.0499  0.5397
 8970TIP3    H148325   1.290   5.597  10.951  0.3067  0.2356  0.0674
 8970TIP3    H248326   1.222   5.462  10.947  0.4430  0.1923 -1.1011
 8971TIP3   OH248327   3.907   5.921  16.965  0.0814 -0.2752 -0.3780
 8971TIP3    H148328   3.827   5.949  17.008 -0.4445  0.0602 -1.5346
 8971TIP3    H248329   3.897   5.826  16.955 -0.1068 -0.2531 -0.4050
 8972TIP3   OH248330   3.626   5.766  15.207 -0.1931  0.0107  0.1230
 8972TIP3    H148331   3.656   5.685  15.166  0.6081 -0.6613  1.9459
 8972TIP3    H248332   3.700   5.795  15.260 -0.4696  1.9549 -0.4698
 8973TIP3   OH248333   5.130   2.797  12.302  0.9549  0.6486  0.3530
 8973TIP3    H148334   5.057   2.845  12.261  0.1326  1.2762  2.4330
 8973TIP3    H248335   5.123   2.818  12.395  1.4399 -2.3632  1.1679
 8974TIP3   OH248336   6.558   3.002   0.329  0.0201  0.4255  0.0516
 8974TIP3    H148337   6.464   3.004   0.315  0.0572  0.9341 -0.1602
 8974TIP3    H248338   6.593   2.953   0.254 -0.2836 -2.1095  1.4678
 8975TIP3   OH248339   3.544   6.454   3.063 -0.7192 -0.0392  0.2579
 8975TIP3    H148340   3.583   6.534   3.028 -1.5786  0.4199  0.3384
 8975TIP3    H248341   3.603   6.428   3.134  0.9071 -0.8550 -1.3105
 8976TIP3   OH248342   5.563   2.625  12.217 -0.9938 -0.1883 -0.0354
 8976TIP3    H148343   5.601   2.540  12.197  1.0242  0.4852  0.6145
 8976TIP3    H248344   5.592   2.643  12.307 -0.6221  1.5370 -0.4675
 8977TIP3   OH248345   6.375   4.596  15.883 -0.2565 -0.3213  0.0612
 8977TIP3    H148346   6.443   4.580  15.949  1.0146  0.5962 -0.9832
 8977TIP3    H248347   6.392   4.684  15.851 -0.7525 -0.7860 -1.6064
 8978TIP3   OH248348   6.173   2.918  16.498  0.4396 -0.2418 -0.3051
 8978TIP3    H148349   6.081   2.891  16.501  0.4772 -0.2718  0.7541
 8978TIP3    H248350   6.204   2.886  16.413 -0.0381 -1.8714  0.1012
 8979TIP3   OH248351   2.422   2.421   5.513  0.2949  0.0195  0.0021
 8979TIP3    H148352   2.516   2.405   5.520  0.2782 -0.0113  0.1479
 8979TIP3    H248353   2.414   2.517   5.515  0.3475  0.0308 -0.3093
 8980TIP3   OH248354   1.807   1.443  14.967 -0.3744 -0.0024 -0.3341
 8980TIP3    H148355   1.845   1.465  15.052 -0.5274  1.5611 -0.6402
 8980TIP3    H248356   1.737   1.508  14.955 -0.1694 -0.0271 -1.7777
 8981TIP3   OH248357   6.221   4.233  12.880 -0.5893  0.3757 -0.1167
 8981TIP3    H148358   6.127   4.248  12.865 -0.9140 -1.2349  0.1845
 8981TIP3    H248359   6.241   4.155  12.829  0.3472  0.0782  0.6827
 8982TIP3   OH248360   5.678   4.181   3.217 -0.1303  0.3321 -0.0189
 8982TIP3    H148361   5.648   4.215   3.133 -1.1817  0.3393  0.3324
 8982TIP3    H248362   5.749   4.239   3.244  0.4263  0.1392 -1.0387
 8983TIP3   OH248363   0.537   6.550  17.237  0.2027  0.1963 -0.7467
 8983TIP3    H148364   0.632   6.541  17.245 -0.0156 -1.2119  0.8531
 8983TIP3    H248365   0.511   6.478  17.179  0.1166  0.7591 -1.4256
 8984TIP3   OH248366   0.233   2.629   2.730 -0.2601  0.4104  0.4808
 8984TIP3    H148367   0.301   2.676   2.777  0.4467  1.1651 -1.2164
 8984TIP3    H248368   0.151   2.667   2.763  0.1407  0.1445  1.8553
 8985TIP3   OH248369   2.672   6.341  14.280  0.0200  0.7520 -0.4062
 8985TIP3    H148370   2.706   6.360  14.368  0.2522 -1.7968  0.1525
 8985TIP3    H248371   2.749   6.339  14.224 -0.3055  4.2876 -1.1750
 8986TIP3   OH248372   2.742   5.080  16.981  0.1871 -0.5214  0.2929
 8986TIP3    H148373   2.695   5.164  16.976  1.5684  0.2457 -0.2875
 8986TIP3    H248374   2.699   5.025  16.915  0.9478  0.6285 -1.2241
 8987TIP3   OH248375   2.506   0.823  10.595 -1.1390 -0.3883  0.2395
 8987TIP3    H148376   2.460   0.793  10.516  0.7211 -1.0610 -0.6579
 8987TIP3    H248377   2.496   0.918  10.594 -0.6599 -0.3266 -1.1487
 8988TIP3   OH248378   5.946   1.699   6.151  0.0333  0.5868 -0.1098
 8988TIP3    H148379   5.879   1.731   6.211 -0.5281 -0.6972 -0.0129
 8988TIP3    H248380   5.906   1.708   6.064 -0.7638 -1.2274  0.0258
 8989TIP3   OH248381   0.640   4.178  12.572  0.5402  0.3020 -0.0793
 8989TIP3    H148382   0.554   4.214  12.596  1.5627  2.1349  0.9654
 8989TIP3    H248383   0.637   4.087  12.602 -0.8398  0.4854  0.4182
 8990TIP3   OH248384   5.878   5.457  16.834  0.2998  0.4575  0.2286
 8990TIP3    H148385   5.790   5.497  16.838  0.3096  0.4139  1.1144
 8990TIP3    H248386   5.888   5.413  16.918  1.1157  0.3239  0.0693
 8991TIP3   OH248387   5.087   1.021   1.305 -0.6141  0.5316 -0.0836
 8991TIP3    H148388   5.026   0.973   1.249 -1.4050  0.4508  0.8229
 8991TIP3    H248389   5.165   0.965   1.309 -1.5354 -0.7501  0.9893
 8992TIP3   OH248390   5.356   5.959  10.981  0.2920  0.1308 -0.0207
 8992TIP3    H148391   5.333   5.914  11.062  0.2894 -0.2375 -0.2268
 8992TIP3    H248392   5.290   6.027  10.972  0.4927  0.4019  0.4680
 8993TIP3   OH248393   3.251   4.048   3.756  0.1925  0.0099  0.2140
 8993TIP3    H148394   3.261   4.129   3.705 -0.8440  1.2010  1.8102
 8993TIP3    H248395   3.339   4.026   3.784  0.4016  0.9671  0.3196
 8994TIP3   OH248396   5.110   1.211  13.505  0.0753  0.6386  0.1964
 8994TIP3    H148397   5.047   1.181  13.571 -0.0288  0.6548  0.1051
 8994TIP3    H248398   5.073   1.182  13.422  0.5845 -0.0499  0.1999
 8995TIP3   OH248399   3.599   0.845   4.524  0.3080 -0.3149 -0.2408
 8995TIP3    H148400   3.522   0.901   4.538  0.1139 -0.3663 -1.0746
 8995TIP3    H248401   3.563   0.763   4.490  0.8201  0.1191 -1.8844
 8996TIP3   OH248402   1.347   3.200   1.297  0.1877  0.2246  0.9512
 8996TIP3    H148403   1.377   3.154   1.376  1.1568  0.1280  0.5429
 8996TIP3    H248404   1.428   3.229   1.254 -0.2057 -1.3027 -0.9538
 8997TIP3   OH248405   3.722   2.791   6.192  0.0042  0.0236 -0.2451
 8997TIP3    H148406   3.769   2.874   6.199 -0.2285  0.1366 -0.0243
 8997TIP3    H248407   3.767   2.733   6.253  0.9841 -0.4036 -1.3302
 8998TIP3   OH248408   1.768   3.333  10.875 -0.0360 -0.5440 -0.1510
 8998TIP3    H148409   1.838   3.398  10.868 -0.2181 -0.1799  1.1803
 8998TIP3    H248410   1.747   3.311  10.784  0.5654  0.6739 -0.6070
 8999TIP3   OH248411   0.255   5.789  12.378  0.2489  0.0862  0.4542
 8999TIP3    H148412   0.263   5.780  12.473 -1.2378 -0.3685  0.5509
 8999TIP3    H248413   0.225   5.704  12.348 -0.2540  0.5239 -0.3141
 9000TIP3   OH248414   1.740   1.765   4.744  0.1828  0.4864  0.1017
 9000TIP3    H148415   1.757   1.697   4.678  1.0417 -1.4600  2.1841
 9000TIP3    H248416   1.646   1.759   4.761  0.2695 -0.2814  0.3460
 9001TIP3   OH248417   5.041   1.121   5.438 -0.0609 -0.1502  0.3759
 9001TIP3    H148418   5.046   1.064   5.362  1.0055 -0.4719  0.6569
 9001TIP3    H248419   5.131   1.124   5.471 -0.0585  1.7590  0.3200
 9002TIP3   OH248420   2.253   6.507  12.620  0.1793  0.1871  0.1398
 9002TIP3    H148421   2.327   6.454  12.591 -0.5127 -0.0405 -1.2731
 9002TIP3    H248422   2.284   6.549  12.701  0.9257 -1.9067  0.9993
 9003TIP3   OH248423   0.853   5.128  17.177 -0.5381 -0.6148 -0.3714
 9003TIP3    H148424   0.851   5.089  17.265 -0.2107  0.0370 -0.0660
 9003TIP3    H248425   0.909   5.070  17.126 -1.1586 -1.2917 -0.2975
 9004TIP3   OH248426   0.887   1.130  16.739 -0.4470  0.2156 -0.5852
 9004TIP3    H148427   0.807   1.182  16.741 -1.3178 -1.0628 -0.9013
 9004TIP3    H248428   0.946   1.174  16.801 -2.3107 -0.2113  1.6265
 9005TIP3   OH248429   3.335   1.329   1.500 -0.2597  0.5810  0.6013
 9005TIP3    H148430   3.367   1.418   1.491 -0.6649  0.7513  0.8024
 9005TIP3    H248431   3.380   1.294   1.577  0.1512  0.4940  0.3268
 9006TIP3   OH248432   0.001   5.784   1.593 -0.2019 -0.3926 -0.9638
 9006TIP3    H148433  -0.090   5.780   1.561  0.0996  0.1229 -1.9400
 9006TIP3    H248434   0.035   5.696   1.579  0.1800  0.0152 -2.9541
 9007TIP3   OH248435   5.964   0.176   0.341  0.3845 -0.4732 -0.5295
 9007TIP3    H148436   5.923   0.146   0.260  0.2275 -0.5633 -0.4153
 9007TIP3    H248437   6.007   0.098   0.377 -2.0823 -1.1991  1.0572
 9008TIP3   OH248438   0.234   5.986   0.794  0.5045 -0.2340 -0.2735
 9008TIP3    H148439   0.266   5.941   0.872  0.0203 -0.2761 -0.0903
 9008TIP3    H248440   0.159   5.933   0.766  1.2814 -0.7948 -1.3666
 9009TIP3   OH248441   4.697   1.986  13.645  0.0154 -0.0709 -0.0737
 9009TIP3    H148442   4.681   2.019  13.733 -0.8345  0.5987 -0.4744
 9009TIP3    H248443   4.725   1.895  13.659  0.0054  0.0590  0.8828
 9010TIP3   OH248444   3.161   4.833   3.457  0.0360  0.1294  0.5619
 9010TIP3    H148445   3.182   4.740   3.465  1.4610  0.4055  0.2761
 9010TIP3    H248446   3.143   4.846   3.364 -0.6974  0.0497  0.6843
 9011TIP3   OH248447   0.071   2.717  15.872 -0.6376  0.1634  0.0360
 9011TIP3    H148448   0.105   2.734  15.784 -1.0156 -0.9131 -0.3344
 9011TIP3    H248449   0.134   2.759  15.930  1.9581 -2.5318 -0.5589
 9012TIP3   OH248450   4.998   1.331  10.846 -0.4262  0.5746  0.5356
 9012TIP3    H148451   4.957   1.413  10.820 -0.6176  0.1620 -0.5382
 9012TIP3    H248452   5.073   1.357  10.900 -0.7668  1.4237  0.6087
 9013TIP3   OH248453   6.240   5.143  16.379  0.0160 -0.1462  0.4494
 9013TIP3    H148454   6.240   5.228  16.421 -0.4360  0.5631 -0.9122
 9013TIP3    H248455   6.196   5.085  16.441 -0.7288  0.8807  0.8975
 9014TIP3   OH248456   2.189   1.521   1.682  0.0864 -0.4748  0.2821
 9014TIP3    H148457   2.114   1.486   1.635 -0.2535  0.9482 -0.3021
 9014TIP3    H248458   2.258   1.530   1.616 -0.1677  0.8779  0.1693
 9015TIP3   OH248459   2.570   2.329  11.619  0.6071 -0.1324  0.7238
 9015TIP3    H148460   2.551   2.295  11.531  1.2925 -2.5717  1.4503
 9015TIP3    H248461   2.516   2.277  11.677  0.4930  1.1619  1.8134
 9016TIP3   OH248462   4.606   1.760   1.024 -0.0503 -0.0180  0.4609
 9016TIP3    H148463   4.537   1.707   1.064 -0.6504 -0.8985 -1.6189
 9016TIP3    H248464   4.624   1.717   0.940  0.6356  2.1364 -0.5594
 9017TIP3   OH248465   3.676   1.219  15.670  1.0774  0.2303 -0.0713
 9017TIP3    H148466   3.632   1.240  15.752 -0.5032  0.5598 -0.9673
 9017TIP3    H248467   3.730   1.142  15.692 -1.8290 -1.8187  0.5723
 9018TIP3   OH248468   2.703   6.610   0.444  0.0218 -0.0858  0.1580
 9018TIP3    H148469   2.713   6.672   0.372 -1.0847  0.2629  0.2843
 9018TIP3    H248470   2.793   6.593   0.474  0.4174  0.5609 -0.6209
 9019TIP3   OH248471   2.254   2.170   5.359  0.3363  0.0472  0.2079
 9019TIP3    H148472   2.287   2.253   5.392  0.7861  0.1732 -0.5170
 9019TIP3    H248473   2.321   2.142   5.296  0.0780 -0.7503  0.2852
 9020TIP3   OH248474   5.752   0.427  16.414  0.6680 -0.0685 -0.4576
 9020TIP3    H148475   5.664   0.441  16.379 -0.4152 -0.1845  1.9914
 9020TIP3    H248476   5.786   0.352  16.364 -0.8097 -0.3377 -1.1212
 9021TIP3   OH248477   5.929   4.142  15.349  0.6052 -0.2800  0.4337
 9021TIP3    H148478   5.999   4.152  15.285 -0.4326  0.6346 -0.6147
 9021TIP3    H248479   5.888   4.059  15.327  0.0599  0.1755 -0.3067
 9022TIP3   OH248480   5.065   0.422  15.374 -0.6010 -0.1039 -0.7671
 9022TIP3    H148481   4.996   0.448  15.312 -0.8126  0.5707 -0.2594
 9022TIP3    H248482   5.132   0.490  15.365 -1.8671  1.6416  1.7354
 9023TIP3   OH248483   6.545   1.291  13.021  0.0042 -0.7413 -0.1108
 9023TIP3    H148484   6.535   1.250  12.935  0.6088 -0.2968 -0.3997
 9023TIP3    H248485   6.456   1.301  13.054 -0.3679  0.9111 -1.5490
 9024TIP3   OH248486   2.812   6.407  14.000 -0.2443 -0.4376 -0.1192
 9024TIP3    H148487   2.809   6.312  13.989 -3.5763 -0.2450 -2.0217
 9024TIP3    H248488   2.859   6.439  13.922  1.2856 -0.4634  0.7445
 9025TIP3   OH248489   5.498   0.605  11.141 -0.3334  0.5622  0.1322
 9025TIP3    H148490   5.585   0.565  11.142 -0.6875 -0.2875 -1.2205
 9025TIP3    H248491   5.509   0.687  11.189  0.9486 -0.0466  0.9279
 9026TIP3   OH248492   1.760   1.769  15.150 -0.1159  0.2824  0.1562
 9026TIP3    H148493   1.747   1.861  15.171  1.7706  0.4661  0.6795
 9026TIP3    H248494   1.747   1.764  15.056 -1.3715  0.8469  0.2788
 9027TIP3   OH248495   3.685   5.177   0.499 -0.1144 -0.2955 -0.4273
 9027TIP3    H148496   3.667   5.184   0.593  0.3911  0.0522 -0.3487
 9027TIP3    H248497   3.604   5.143   0.461 -0.5012  0.0670  0.0641
 9028TIP3   OH248498   5.468   3.488  12.052  0.5913  0.1795  0.2548
 9028TIP3    H148499   5.445   3.451  11.967 -0.7353  2.4485 -0.4753
 9028TIP3    H248500   5.563   3.486  12.055  0.6491 -0.0813 -1.2183
 9029TIP3   OH248501   4.660   5.603   2.662 -0.3172 -0.1066  0.0653
 9029TIP3    H148502   4.621   5.577   2.579  0.0224 -2.6638  0.6406
 9029TIP3    H248503   4.751   5.623   2.641 -0.5117  0.4155 -0.3321
 9030TIP3   OH248504   4.235   6.672  14.113 -0.3495  0.0823 -0.1920
 9030TIP3    H148505   4.202   6.698  14.199 -0.6506 -1.2695  0.1242
 9030TIP3    H248506   4.321   6.714  14.107  0.0097 -0.4068  1.0935
 9031TIP3   OH248507   2.264   1.087  14.764 -0.5059  0.4129  0.4555
 9031TIP3    H148508   2.349   1.047  14.783  0.4242  3.0258  2.4053
 9031TIP3    H248509   2.213   1.073  14.845 -0.4040  2.3850  0.9117
 9032TIP3   OH248510   0.571   6.298   4.066 -0.4463  0.1142 -0.1733
 9032TIP3    H148511   0.539   6.265   3.983 -1.6678  0.6559  0.0531
 9032TIP3    H248512   0.609   6.383   4.045 -0.7467  0.2467 -0.1975
 9033TIP3   OH248513   2.589   6.646  13.526 -0.3193  0.7459  0.1776
 9033TIP3    H148514   2.655   6.577  13.516 -0.6047  0.4402  0.3869
 9033TIP3    H248515   2.565   6.669  13.437 -1.9319 -1.0748  0.0641
 9034TIP3   OH248516   5.358   0.918   6.444  0.0785  0.9956 -0.1465
 9034TIP3    H148517   5.314   0.910   6.359  1.4464 -0.7109 -0.7402
 9034TIP3    H248518   5.438   0.968   6.425  1.3845 -1.0653 -0.3123
 9035TIP3   OH248519   4.352   2.545   4.146  0.2706  0.1608 -0.3230
 9035TIP3    H148520   4.434   2.591   4.131  0.6958 -0.2225  0.6887
 9035TIP3    H248521   4.316   2.586   4.225 -0.1575 -0.1339 -0.3644
 9036TIP3   OH248522   1.764   6.431   3.033 -0.2100  0.1463 -0.1332
 9036TIP3    H148523   1.673   6.457   3.041  0.1339  0.8788  2.0432
 9036TIP3    H248524   1.812   6.513   3.022  0.2560 -0.1780 -0.5866
 9037TIP3   OH248525   6.173   6.169   2.509 -0.6156 -0.2771 -0.5014
 9037TIP3    H148526   6.083   6.175   2.544 -0.1054 -2.8103  1.5967
 9037TIP3    H248527   6.214   6.101   2.563  2.8603  1.3760 -0.8450
 9038TIP3   OH248528   4.418   6.733  12.803 -0.2167 -0.9500 -0.1269
 9038TIP3    H148529   4.489   6.670  12.788  1.1610  0.0173  1.7275
 9038TIP3    H248530   4.462   6.808  12.845 -2.1608  0.2176 -0.0630
 9039TIP3   OH248531   6.727   5.813  12.783  0.1867  0.1534 -0.1424
 9039TIP3    H148532   6.665   5.798  12.711  0.4372 -1.3808 -0.0641
 9039TIP3    H248533   6.681   5.873  12.841 -1.6686 -1.6501  0.3778
 9040TIP3   OH248534   3.102   6.587   2.688  0.1619 -0.1794 -0.5963
 9040TIP3    H148535   3.154   6.656   2.647 -1.0759  0.3780 -1.2731
 9040TIP3    H248536   3.136   6.506   2.649  0.8441  0.1258 -0.6551
 9041TIP3   OH248537   5.941   0.584  13.710 -0.6716  0.0230 -0.7741
 9041TIP3    H148538   5.969   0.585  13.801 -0.6249  0.4238 -0.7875
 9041TIP3    H248539   5.963   0.497  13.678  0.6678  0.3657 -0.8200
 9042TIP3   OH248540   3.349   3.420   4.171 -0.3631  0.2421  0.1574
 9042TIP3    H148541   3.282   3.483   4.143  0.2946 -0.0276 -2.3141
 9042TIP3    H248542   3.431   3.468   4.164  0.2428 -0.9607 -2.5482
 9043TIP3   OH248543   4.872   2.471  11.219  0.3771 -0.1760 -0.1505
 9043TIP3    H148544   4.840   2.438  11.135  1.5274  0.5354 -0.8840
 9043TIP3    H248545   4.839   2.560  11.224  3.0668  0.9950 -1.4591
 9044TIP3   OH248546   1.469   5.606  11.477 -0.1882 -0.0395  0.3810
 9044TIP3    H148547   1.384   5.566  11.495  0.6311 -1.5186  1.2229
 9044TIP3    H248548   1.451   5.672  11.411 -1.3587 -3.4026 -3.0464
 9045TIP3   OH248549   2.340   0.185   1.265  0.3822  0.0549  0.4542
 9045TIP3    H148550   2.308   0.244   1.197 -1.2818  0.0192  1.1544
 9045TIP3    H248551   2.428   0.216   1.284  0.2852  1.0436 -0.6120
 9046TIP3   OH248552   0.136   5.353  13.343  0.1255 -0.3472 -0.1922
 9046TIP3    H148553   0.115   5.417  13.412  0.2903 -1.1012  0.5740
 9046TIP3    H248554   0.134   5.269  13.388  4.5603 -0.5929  0.0056
 9047TIP3   OH248555   1.017   3.151   5.340  0.0290 -0.1566  0.2621
 9047TIP3    H148556   1.017   3.056   5.339 -0.7217 -0.1660 -1.3457
 9047TIP3    H248557   1.077   3.177   5.271 -2.4391  0.4525 -1.8030
 9048TIP3   OH248558   1.740   1.356  16.010 -0.6518 -0.6218 -0.2328
 9048TIP3    H148559   1.685   1.431  15.986 -0.5395  0.1287  1.7232
 9048TIP3    H248560   1.705   1.284  15.957 -3.5593 -0.1834  0.8964
 9049TIP3   OH248561   5.172   3.718   0.350 -0.0277 -0.4605  0.4742
 9049TIP3    H148562   5.096   3.703   0.295  0.7694 -0.0440 -0.7938
 9049TIP3    H248563   5.215   3.794   0.312  0.5885 -0.1784  1.6577
 9050TIP3   OH248564   3.431   3.644  16.259 -0.4302 -0.3309 -0.1413
 9050TIP3    H148565   3.360   3.602  16.210 -0.0834 -0.2408 -0.7187
 9050TIP3    H248566   3.418   3.738  16.245 -0.3832 -0.3001  0.0163
 9051TIP3   OH248567   1.052   2.994  15.639  0.1135 -0.3041 -0.0643
 9051TIP3    H148568   0.964   3.030  15.654 -0.9388 -3.0258  0.8668
 9051TIP3    H248569   1.094   2.997  15.725  0.6193  0.1400 -0.3198
 9052TIP3   OH248570   4.989   5.025   2.935 -0.0288  0.6631 -0.6689
 9052TIP3    H148571   5.049   5.095   2.963  0.3024  0.3592 -0.6045
 9052TIP3    H248572   4.907   5.043   2.981  0.4474  0.2823  0.3670
 9053TIP3   OH248573   0.830   0.979  11.867 -0.3219 -0.0259 -0.3560
 9053TIP3    H148574   0.800   0.906  11.812  0.0997  1.2714 -2.4153
 9053TIP3    H248575   0.752   1.032  11.882 -0.3442 -0.1391 -0.0568
 9054TIP3   OH248576   1.976   4.525   3.240 -0.4026 -0.6778  0.3303
 9054TIP3    H148577   2.044   4.592   3.237 -0.2978 -0.7918  0.0342
 9054TIP3    H248578   2.024   4.443   3.253 -0.2775 -1.0084 -1.7490
 9055TIP3   OH248579   2.285   0.339  17.193  0.2080  0.0761 -0.3633
 9055TIP3    H148580   2.342   0.405  17.231 -0.2923  0.9327 -1.0451
 9055TIP3    H248581   2.197   0.377  17.199  0.0342 -0.0622 -1.6907
 9056TIP3   OH248582   5.935   3.190  15.171 -0.2114  0.3005 -0.4348
 9056TIP3    H148583   6.009   3.165  15.226 -1.2362 -2.8774 -0.3250
 9056TIP3    H248584   5.915   3.280  15.198  1.9688  0.3492  1.3357
 9057TIP3   OH248585   3.535   0.529  14.290  0.3018  0.1319 -0.0361
 9057TIP3    H148586   3.589   0.593  14.336  0.7456 -2.5419  3.6181
 9057TIP3    H248587   3.593   0.454  14.275 -0.9228 -0.5885 -1.4788
 9058TIP3   OH248588   4.267   0.901  14.030 -0.4418 -0.0198  0.4520
 9058TIP3    H148589   4.172   0.906  14.014 -0.7328  2.0098  2.4488
 9058TIP3    H248590   4.275   0.889  14.124  1.2770  2.7529  0.7666
 9059TIP3   OH248591   4.379   2.351  16.630 -0.4816 -0.2251  0.2951
 9059TIP3    H148592   4.295   2.330  16.589  0.7111 -1.4897 -1.6133
 9059TIP3    H248593   4.426   2.401  16.564  0.1165  0.9207  1.5349
 9060TIP3   OH248594   0.102   3.449   2.594 -0.2687  0.2879  0.2994
 9060TIP3    H148595   0.182   3.415   2.554 -0.4398  1.2855 -0.9769
 9060TIP3    H248596   0.058   3.372   2.630 -0.2044 -0.7305 -1.6845
 9061TIP3   OH248597   0.558   0.015  13.980 -0.0438 -0.1337 -0.1748
 9061TIP3    H148598   0.513   0.076  14.038 -1.2072 -1.2543  0.1448
 9061TIP3    H248599   0.494  -0.005  13.912  1.4163  1.4427 -2.1339
 9062TIP3   OH248600   4.321   1.092   3.423  0.5390  0.0194  0.2912
 9062TIP3    H148601   4.295   1.110   3.333 -0.9484 -2.0652  0.2321
 9062TIP3    H248602   4.415   1.111   3.426  0.3014  1.6237 -1.2454
 9063TIP3   OH248603   1.612   0.570   1.318  0.1634  0.0704  0.2144
 9063TIP3    H148604   1.651   0.511   1.383 -0.4723  1.0807  1.5705
 9063TIP3    H248605   1.678   0.576   1.248  0.4710 -1.7814  0.2951
 9064TIP3   OH248606   4.068   4.658  12.194 -0.7668 -0.0891 -0.8019
 9064TIP3    H148607   4.105   4.747  12.192 -1.5168  0.3422  1.7583
 9064TIP3    H248608   4.029   4.650  12.280 -0.9807 -2.8498 -1.0740
 9065TIP3   OH248609   4.785   2.525  10.948 -0.0632 -0.6921 -0.2806
 9065TIP3    H148610   4.744   2.517  10.862  0.7708 -1.8177 -0.6000
 9065TIP3    H248611   4.867   2.570  10.932  0.4641 -1.5942 -0.2224
 9066TIP3   OH248612   4.412   5.720  13.068  0.0182  0.0212 -0.0877
 9066TIP3    H148613   4.410   5.634  13.110  1.1481  0.2222  0.4306
 9066TIP3    H248614   4.493   5.760  13.101  0.1585  0.7844 -1.3142
 9067TIP3   OH248615   1.945   0.300   2.501 -0.6386  0.0397 -0.1856
 9067TIP3    H148616   2.023   0.355   2.490 -1.5633  1.2768 -0.7927
 9067TIP3    H248617   1.952   0.234   2.432 -1.0634  1.3278 -1.5192
 9068TIP3   OH248618   2.557   4.312  13.769  0.1955  0.2949  0.2197
 9068TIP3    H148619   2.545   4.358  13.852  0.3631  0.1297  0.3361
 9068TIP3    H248620   2.468   4.288  13.742  0.1414  0.3453  0.3518
 9069TIP3   OH248621   6.287   6.693  14.936 -0.0699 -0.0290  0.3582
 9069TIP3    H148622   6.349   6.747  14.984 -2.6191  1.8591  1.8156
 9069TIP3    H248623   6.261   6.747  14.861 -1.7027  0.2898  1.1140
 9070TIP3   OH248624   6.069   2.717   3.849  0.5132  0.0522 -0.3061
 9070TIP3    H148625   6.118   2.723   3.767  1.5980  1.7857  0.3954
 9070TIP3    H248626   6.062   2.808   3.879 -0.7529 -0.4370  1.0236
 9071TIP3   OH248627   3.814   5.450  12.092  0.4563 -0.1585  0.1239
 9071TIP3    H148628   3.763   5.530  12.078 -1.1757 -1.5663 -2.7506
 9071TIP3    H248629   3.761   5.398  12.153  0.4465  0.0528  0.2960
 9072TIP3   OH248630   4.499   0.489  13.208  0.1695 -0.9765 -0.3644
 9072TIP3    H148631   4.520   0.473  13.116  1.1631  1.7753 -0.7091
 9072TIP3    H248632   4.458   0.575  13.209  0.7783 -0.6486  1.8419
 9073TIP3   OH248633   5.005   6.222   1.904 -0.3277  0.3074  0.3696
 9073TIP3    H148634   4.990   6.194   1.995  0.1315 -0.0208  0.3472
 9073TIP3    H248635   5.072   6.290   1.911 -0.5121  0.4965  0.3034
 9074TIP3   OH248636   5.488   0.598  11.989  0.2759  0.1739  0.5211
 9074TIP3    H148637   5.555   0.640  12.043  1.9372 -1.4844 -0.1225
 9074TIP3    H248638   5.449   0.531  12.045  2.1835 -1.7289 -0.2475
 9075TIP3   OH248639   3.570   5.482  15.777 -0.3639  0.0429  0.5321
 9075TIP3    H148640   3.591   5.487  15.683  1.2352  1.2284  0.8916
 9075TIP3    H248641   3.475   5.483  15.781 -0.4988 -1.4877 -1.1260
 9076TIP3   OH248642   2.469   6.301   0.995 -0.5661 -0.1715  0.3837
 9076TIP3    H148643   2.435   6.300   0.906 -0.0166 -0.4748  0.1680
 9076TIP3    H248644   2.472   6.394   1.019 -2.9822 -0.1827  1.0022
 9077TIP3   OH248645   1.985   5.096  14.624  0.2498 -0.4271 -0.5909
 9077TIP3    H148646   1.989   5.012  14.670 -2.0292  0.6764  1.9038
 9077TIP3    H248647   1.904   5.090  14.573 -0.5999  0.6475  0.5832
 9078TIP3   OH248648   5.430   1.058  14.712 -0.5644  0.4760  0.2326
 9078TIP3    H148649   5.423   1.153  14.713  1.9881  0.7326  0.7526
 9078TIP3    H248650   5.440   1.033  14.804  1.8957  0.1021 -0.0525
 9079TIP3   OH248651   4.632   4.534   0.618  0.0751  0.2312  0.2008
 9079TIP3    H148652   4.690   4.584   0.560  1.2774  0.0809  1.2463
 9079TIP3    H248653   4.621   4.589   0.695  1.1992 -0.9553  1.2562
 9080TIP3   OH248654   3.061   5.340   1.239 -0.6292 -0.3789  0.4811
 9080TIP3    H148655   3.118   5.386   1.301 -1.9011  0.9162  0.7646
 9080TIP3    H248656   3.120   5.286   1.186  0.5483 -1.1733  2.4991
 9081TIP3   OH248657   6.244   0.052  10.476 -0.0010  1.0187 -0.1005
 9081TIP3    H148658   6.195   0.051  10.394  0.2501  0.4923 -0.2465
 9081TIP3    H248659   6.259  -0.040  10.496 -2.9255  0.8997  2.2832
 9082TIP3   OH248660   1.662   4.015   4.149 -0.6120  0.1857 -0.1658
 9082TIP3    H148661   1.640   4.106   4.127 -0.7899 -0.1471 -1.4937
 9082TIP3    H248662   1.701   4.020   4.236 -0.2035  1.5939 -0.4023
 9083TIP3   OH248663   3.614   1.595   0.435  0.5303  0.3678  0.3279
 9083TIP3    H148664   3.614   1.619   0.342  0.5608 -1.8221 -0.2954
 9083TIP3    H248665   3.674   1.658   0.476  1.3893  0.7014 -1.3423
 9084TIP3   OH248666   4.582   0.181   3.228 -0.4592 -0.5534 -0.0780
 9084TIP3    H148667   4.553   0.201   3.318 -0.6822 -3.1039  0.4927
 9084TIP3    H248668   4.677   0.196   3.230 -0.6196  0.5344  0.2189
 9085TIP3   OH248669   4.877   0.797   5.132  0.0124 -0.5175  0.2741
 9085TIP3    H148670   4.822   0.834   5.063  0.2781 -1.5977 -0.5496
 9085TIP3    H248671   4.891   0.706   5.105 -0.4126 -1.1561  2.1012
 9086TIP3   OH248672   2.744   3.132   1.701  0.9311  0.0692  0.1220
 9086TIP3    H148673   2.715   3.062   1.643  0.7316  0.6272 -0.4661
 9086TIP3    H248674   2.813   3.092   1.754  0.1528 -0.8425  0.4838
 9087TIP3   OH248675   4.122   0.166  10.949 -0.3201 -0.2019  0.2887
 9087TIP3    H148676   4.151   0.244  10.902  2.5585 -1.8725 -0.9884
 9087TIP3    H248677   4.033   0.150  10.917  0.2766  0.7003 -2.0138
 9088TIP3   OH248678   2.313   1.801  11.119 -0.4957 -0.2413 -0.1196
 9088TIP3    H148679   2.263   1.769  11.044 -0.7340  1.7939 -0.8759
 9088TIP3    H248680   2.405   1.787  11.095 -0.5275  1.3341 -1.2823
 9089TIP3   OH248681   3.920   4.243  13.829 -0.0276  0.8339  0.5396
 9089TIP3    H148682   3.935   4.334  13.853  1.6424  0.5373  0.7457
 9089TIP3    H248683   3.944   4.239  13.736  0.1000  0.5664  0.5831
 9090TIP3   OH248684   5.382   2.938  13.922 -0.1910 -0.3207  0.0720
 9090TIP3    H148685   5.309   2.910  13.977 -1.7151  2.2795 -0.4553
 9090TIP3    H248686   5.459   2.893  13.959 -1.2863  0.3796  3.6248
 9091TIP3   OH248687   5.034   3.903   1.312  0.0531 -0.0180 -0.3888
 9091TIP3    H148688   5.041   3.824   1.258  0.0850 -0.1125 -0.2480
 9091TIP3    H248689   4.946   3.898   1.350  0.1122 -0.0641 -0.2583
 9092TIP3   OH248690   6.484   2.622  14.021  0.2374  0.1557 -0.1513
 9092TIP3    H148691   6.565   2.674  14.018  0.0934  0.3478 -0.8772
 9092TIP3    H248692   6.432   2.663  14.090  0.8125 -0.0531  0.4138
 9093TIP3   OH248693   2.868   5.623   5.434 -0.3674 -0.3291  0.7852
 9093TIP3    H148694   2.948   5.582   5.469 -0.1699 -0.1408  0.5570
 9093TIP3    H248695   2.897   5.667   5.354 -0.4068  0.8983  1.4083
 9094TIP3   OH248696   4.210   6.620   0.286  0.3343 -0.2594  0.6210
 9094TIP3    H148697   4.202   6.525   0.286 -1.0448 -0.2132 -1.8690
 9094TIP3    H248698   4.134   6.652   0.238  1.1237  2.0807  0.7471
 9095TIP3   OH248699   5.266   6.235   2.439  0.1662 -0.6331  0.1376
 9095TIP3    H148700   5.176   6.269   2.437  1.8323  4.6308  0.2940
 9095TIP3    H248701   5.272   6.189   2.523 -2.3581 -1.1073  0.1265
 9096TIP3   OH248702   5.031   2.125  11.432  0.3400  0.3606  0.0071
 9096TIP3    H148703   5.041   2.186  11.506 -0.3418 -0.8451  1.1374
 9096TIP3    H248704   5.117   2.125  11.390  0.3605  2.0522  0.0116
 9097TIP3   OH248705   0.995   4.666   6.109  0.2722  0.2548  0.1389
 9097TIP3    H148706   1.034   4.579   6.111  0.1663  0.2066  0.1372
 9097TIP3    H248707   1.069   4.726   6.102  0.3408  0.1597  0.0414
 9098TIP3   OH248708   6.517   5.691  13.571 -0.3125  0.4370 -0.1589
 9098TIP3    H148709   6.436   5.642  13.585  0.4804 -0.9370 -0.2075
 9098TIP3    H248710   6.565   5.681  13.653  0.0066  0.8586 -0.2906
 9099TIP3   OH248711   0.785   2.714  14.764  0.1197 -0.0330  0.2842
 9099TIP3    H148712   0.846   2.692  14.693 -0.1777 -4.1143  1.0705
 9099TIP3    H248713   0.827   2.681  14.843 -1.3610  0.7208  1.4308
 9100TIP3   OH248714   3.840   5.267  15.683 -0.1829  0.0236 -0.0329
 9100TIP3    H148715   3.915   5.308  15.639 -2.3509  1.5474 -2.6260
 9100TIP3    H248716   3.835   5.311  15.768  1.1818  0.7287 -0.2840
 9101TIP3   OH248717   1.036   5.962  13.613  0.3567  0.0784 -0.1026
 9101TIP3    H148718   1.043   6.045  13.660 -2.7179  0.8073 -0.6883
 9101TIP3    H248719   1.055   5.984  13.522 -2.3882  0.7174 -0.6213
 9102TIP3   OH248720   2.092   0.614  14.560 -0.4337 -1.0685  0.8985
 9102TIP3    H148721   2.090   0.557  14.483  0.3795 -0.4189  0.3815
 9102TIP3    H248722   2.173   0.664  14.550 -0.2662 -1.0486  2.2311
 9103TIP3   OH248723   4.021   0.924  14.473 -0.2505  0.1560 -0.3812
 9103TIP3    H148724   4.067   0.857  14.422  0.1437 -0.0419  0.2153
 9103TIP3    H248725   3.987   0.984  14.408  0.3730 -0.0066 -0.8758
 9104TIP3   OH248726   2.178   3.680   4.368  0.2717 -0.1823 -0.5231
 9104TIP3    H148727   2.120   3.631   4.427 -0.7668  1.0352 -0.4897
 9104TIP3    H248728   2.261   3.633   4.371 -0.3937 -1.3639  0.2608
 9105TIP3   OH248729   4.882   2.967  11.295  0.5055 -0.7292  0.7280
 9105TIP3    H148730   4.927   3.015  11.226 -0.4371  0.8889  1.1945
 9105TIP3    H248731   4.832   2.899  11.249 -1.5878  1.4661 -0.4455
 9106TIP3   OH248732   2.370   1.468  14.390 -0.4864 -0.1853 -0.1429
 9106TIP3    H148733   2.425   1.465  14.468 -0.7536 -0.6175  0.0311
 9106TIP3    H248734   2.431   1.484  14.318 -0.5285  3.9041  0.4729
 9107TIP3   OH248735   2.220   4.231   4.994 -0.1902  0.1681  0.5486
 9107TIP3    H148736   2.195   4.319   4.966 -0.9330  0.1802  1.2193
 9107TIP3    H248737   2.262   4.193   4.917  0.0340  1.0665  0.2144
 9108TIP3   OH248738   2.411   1.697  17.022  0.0083  0.6453 -0.9000
 9108TIP3    H148739   2.455   1.771  17.063  1.0428 -0.2111 -0.4394
 9108TIP3    H248740   2.466   1.621  17.041 -0.7814 -0.1818 -1.7597
 9109TIP3   OH248741   5.422   2.164  14.269  0.4189  0.1702  0.4759
 9109TIP3    H148742   5.410   2.145  14.362  0.1670 -1.5402  0.1274
 9109TIP3    H248743   5.514   2.189  14.262  0.2971  0.9004  1.2624
 9110TIP3   OH248744   4.126   3.696   5.776 -0.1086  0.1809 -0.2491
 9110TIP3    H148745   4.087   3.697   5.864 -0.8108  1.0672 -0.5522
 9110TIP3    H248746   4.063   3.743   5.721 -0.0894 -1.1067 -1.4214
 9111TIP3   OH248747   3.538   4.015  15.002 -0.1372  0.3209  0.2845
 9111TIP3    H148748   3.602   4.071  14.958 -0.3331 -0.5495 -1.1692
 9111TIP3    H248749   3.459   4.069  15.009 -0.2848  0.2942 -0.9756
 9112TIP3   OH248750   0.065   6.636   3.953  0.2715  0.4911 -0.3877
 9112TIP3    H148751   0.089   6.558   4.002  1.7356  0.3938 -1.2178
 9112TIP3    H248752  -0.030   6.644   3.965  0.2435 -0.8796  0.4547
 9113TIP3   OH248753   6.673   1.767   5.301  0.3114  0.3444  0.0460
 9113TIP3    H148754   6.755   1.816   5.303  0.9877 -0.7506  1.7968
 9113TIP3    H248755   6.633   1.790   5.217  1.5564  2.2514 -0.0857
 9114TIP3   OH248756   2.172   5.586   3.484 -0.3978  0.3756 -0.0075
 9114TIP3    H148757   2.178   5.643   3.561  0.6443  0.7357 -0.3418
 9114TIP3    H248758   2.120   5.636   3.421  0.7684  1.1209 -0.4140
 9115TIP3   OH248759   2.933   0.440   1.781  0.4474 -0.0499 -0.1575
 9115TIP3    H148760   2.973   0.358   1.807  1.3597  0.4847  0.1692
 9115TIP3    H248761   2.977   0.464   1.699  0.2700  0.1691 -0.1920
 9116TIP3   OH248762   5.425   1.016   3.921 -0.3110 -0.0208  0.3666
 9116TIP3    H148763   5.514   1.029   3.888 -1.2479 -0.4195 -2.6331
 9116TIP3    H248764   5.395   0.936   3.878 -2.6159  0.9443  0.0375
 9117TIP3   OH248765   4.341   2.827  13.956  0.3635  0.1482 -0.0012
 9117TIP3    H148766   4.417   2.836  13.899 -0.5704  1.3984 -1.1288
 9117TIP3    H248767   4.377   2.819  14.044  1.8051 -0.2947 -0.6188
 9118TIP3   OH248768   5.035   4.466  12.352 -0.1446  0.0405 -0.2155
 9118TIP3    H148769   5.102   4.483  12.285  0.5819  0.8811  0.6987
 9118TIP3    H248770   5.063   4.384  12.393  0.0767  0.1632 -0.1228
 9119TIP3   OH248771   5.448   1.781   1.544  0.0710 -0.2796 -0.0157
 9119TIP3    H148772   5.427   1.773   1.637  0.9346  0.4304  0.2582
 9119TIP3    H248773   5.378   1.733   1.499  1.7777 -4.3180  1.1696
 9120TIP3   OH248774   6.707   0.173  15.198  0.5497 -0.7684  0.4699
 9120TIP3    H148775   6.744   0.219  15.122 -0.1057  0.7033  1.0102
 9120TIP3    H248776   6.782   0.156  15.254  0.6698  0.7373  0.8050
 9121TIP3   OH248777   6.520   4.955   5.158 -0.8979 -0.0330 -0.2762
 9121TIP3    H148778   6.516   4.881   5.219 -0.4846  0.4756  0.3755
 9121TIP3    H248779   6.466   5.022   5.198 -1.0041  0.1440 -0.7054
 9122TIP3   OH248780   6.586   1.024   0.670 -0.0997  0.2144  0.3284
 9122TIP3    H148781   6.672   0.984   0.660 -0.2984  0.0698 -0.9545
 9122TIP3    H248782   6.525   0.962   0.630 -0.9722 -0.2174  2.1835
 9123TIP3   OH248783   6.520   0.672  15.906 -0.0767  0.2870 -0.2757
 9123TIP3    H148784   6.560   0.649  15.990 -1.1686  0.9451  0.4511
 9123TIP3    H248785   6.492   0.588  15.869  1.6647 -0.1543 -0.6676
 9124TIP3   OH248786   1.125   3.237  13.857 -0.0038  0.4860 -0.3182
 9124TIP3    H148787   1.206   3.220  13.809 -0.2744  0.8627 -0.9205
 9124TIP3    H248788   1.056   3.199  13.802 -0.0548 -2.0346  1.3516
 9125TIP3   OH248789   1.987   2.627  12.758  0.3954  0.0560 -0.0194
 9125TIP3    H148790   2.075   2.662  12.744 -0.6639  2.0085 -2.3649
 9125TIP3    H248791   1.942   2.694  12.810  0.4478 -1.3152  1.9206
 9126TIP3   OH248792   0.055   4.908   4.074  0.0321 -0.0986 -0.0151
 9126TIP3    H148793  -0.023   4.949   4.037  0.5502  0.3870 -0.5806
 9126TIP3    H248794   0.043   4.815   4.056 -0.3336 -0.0081 -0.2514
 9127TIP3   OH248795   4.337   2.526   3.882 -1.0803 -0.2253 -0.0763
 9127TIP3    H148796   4.427   2.507   3.856 -0.6468 -1.7461  2.2275
 9127TIP3    H248797   4.339   2.530   3.977 -3.4164 -0.0324  0.0410
 9128TIP3   OH248798   2.099   6.217   0.548  0.5937  0.0783 -0.2685
 9128TIP3    H148799   2.120   6.306   0.520 -0.1559  0.2255 -0.3858
 9128TIP3    H248800   2.108   6.220   0.643  0.1643  0.3900 -0.2369
 9129TIP3   OH248801   3.357   6.592   1.071  0.2430  0.3289 -0.6348
 9129TIP3    H148802   3.411   6.514   1.055  2.1323  1.6032 -0.7573
 9129TIP3    H248803   3.366   6.644   0.991 -2.4283 -0.0341 -1.2959
 9130TIP3   OH248804   1.461   5.304  15.053  0.8697  0.4834  0.1313
 9130TIP3    H148805   1.556   5.313  15.055  0.8600  0.6439  1.8111
 9130TIP3    H248806   1.428   5.391  15.072  0.3588  0.5109 -0.8098
 9131TIP3   OH248807   3.159   2.256   5.731  0.0369 -0.1741 -0.7708
 9131TIP3    H148808   3.165   2.351   5.742 -0.0354 -0.2916  0.4392
 9131TIP3    H248809   3.244   2.223   5.760 -0.3697 -0.5576  0.0300
 9132TIP3   OH248810   0.295   5.257  12.031  0.6261  0.3070 -0.3078
 9132TIP3    H148811   0.318   5.183  12.088 -1.2338 -0.3527 -0.3467
 9132TIP3    H248812   0.310   5.334  12.086 -0.0518 -0.2641  0.7202
 9133TIP3   OH248813   3.107   2.199   6.170 -0.9166 -0.0317 -0.1468
 9133TIP3    H148814   3.168   2.192   6.243 -0.1018  1.8312 -0.5887
 9133TIP3    H248815   3.090   2.108   6.144  1.7957 -0.6370 -0.1206
 9134TIP3   OH248816   4.888   3.910   1.884 -0.2790  0.7059 -0.2472
 9134TIP3    H148817   4.969   3.881   1.925 -0.9478  0.2306  0.7873
 9134TIP3    H248818   4.915   3.974   1.818  1.1801 -1.3912 -1.8264
 9135TIP3   OH248819   5.128   0.965  13.181  0.2385 -0.2174 -0.2605
 9135TIP3    H148820   5.062   0.895  13.177  1.2480 -1.3563  1.6211
 9135TIP3    H248821   5.077   1.044  13.197 -0.9881 -0.3445 -3.0215
 9136TIP3   OH248822   2.119   1.389  16.292  0.4905  0.4914 -0.3098
 9136TIP3    H148823   2.089   1.410  16.203 -0.1903  0.7115 -0.0343
 9136TIP3    H248824   2.100   1.296  16.303 -0.6086  0.7486  0.0550
 9137TIP3   OH248825   5.086   4.719   4.061  0.2059 -0.3822 -0.3442
 9137TIP3    H148826   5.166   4.682   4.024 -0.5227 -0.2113 -2.2093
 9137TIP3    H248827   5.072   4.799   4.011 -0.3446  0.3700  0.9778
 9138TIP3   OH248828   3.270   2.478   2.718  0.2226  0.2967  0.6146
 9138TIP3    H148829   3.296   2.500   2.628 -1.3882  1.2146  0.3342
 9138TIP3    H248830   3.285   2.384   2.724 -0.9219 -0.0567 -1.1164
 9139TIP3   OH248831   1.666   3.384   5.819 -0.0701 -0.1770  0.4338
 9139TIP3    H148832   1.612   3.332   5.759 -0.8679 -0.2427  1.1852
 9139TIP3    H248833   1.727   3.430   5.762  1.2522 -2.5750 -0.2186
 9140TIP3   OH248834   1.055   0.640   0.258  0.0741  0.7277  0.0273
 9140TIP3    H148835   1.111   0.638   0.335 -1.2174  0.8314  1.0051
 9140TIP3    H248836   1.086   0.716   0.207  0.4953  1.0775  0.7935
 9141TIP3   OH248837   1.553   1.059  14.248 -0.0047  0.0185  0.2483
 9141TIP3    H148838   1.515   1.016  14.324  0.5867  0.2079  0.6556
 9141TIP3    H248839   1.647   1.046  14.257  0.1244  0.6937 -0.0534
 9142TIP3   OH248840   3.037   3.096  16.044  0.9471  0.6940  0.4674
 9142TIP3    H148841   3.021   3.139  16.128  0.3396 -0.7906  1.1330
 9142TIP3    H248842   3.132   3.100  16.034  1.1457 -0.0809  1.7805
 9143TIP3   OH248843   4.624   2.815  13.869 -0.6102 -0.2252  0.1205
 9143TIP3    H148844   4.628   2.730  13.913  1.8245  0.1023  0.6863
 9143TIP3    H248845   4.671   2.875  13.927 -0.0674  0.9251 -1.4285
 9144TIP3   OH248846   1.905   4.070  14.961 -0.2570 -0.2145 -0.2933
 9144TIP3    H148847   1.929   4.101  14.873  0.2084  0.1612 -0.0394
 9144TIP3    H248848   1.844   3.997  14.945 -0.7738  0.3405 -0.9124
 9145TIP3   OH248849   6.181   1.457   3.929  0.1487  0.4857 -0.1540
 9145TIP3    H148850   6.155   1.511   4.003 -0.5940 -0.6400  0.4428
 9145TIP3    H248851   6.105   1.402   3.912  0.7254 -0.0682 -1.0105
 9146TIP3   OH248852   5.454   0.869   1.605 -0.4308  0.7006 -0.1930
 9146TIP3    H148853   5.471   0.775   1.606  0.8367  0.8769 -1.7510
 9146TIP3    H248854   5.399   0.883   1.529 -0.4726  1.2376 -0.0677
 9147TIP3   OH248855   0.546   0.405  11.920  0.3402  0.0923  0.4945
 9147TIP3    H148856   0.630   0.421  11.962  1.0252 -1.8548 -0.0702
 9147TIP3    H248857   0.567   0.386  11.829 -0.4576 -2.5464  0.7916
 9148TIP3   OH248858   5.368   5.637   1.685  0.1853 -0.9590 -0.2195
 9148TIP3    H148859   5.285   5.683   1.673  1.1826  1.3145  0.9243
 9148TIP3    H248860   5.367   5.567   1.619 -1.8315  0.1397 -1.4446
 9149TIP3   OH248861   1.583   4.123   2.978  0.6322  0.1797 -0.4109
 9149TIP3    H148862   1.631   4.186   2.924 -0.5560  0.4056 -1.2361
 9149TIP3    H248863   1.648   4.057   3.001  1.1588  0.0133 -2.2077
 9150TIP3   OH248864   2.372   3.235  15.057 -0.1978 -0.1764  0.4813
 9150TIP3    H148865   2.312   3.161  15.071 -1.9619  1.2660  1.0453
 9150TIP3    H248866   2.371   3.282  15.140  1.8053 -0.0993  0.5109
 9151TIP3   OH248867   5.965   3.294   4.074 -0.2290 -0.5081  0.2186
 9151TIP3    H148868   5.993   3.301   3.983 -2.0461  0.3814 -0.3124
 9151TIP3    H248869   5.971   3.383   4.109  1.4458 -0.9959  1.3400
 9152TIP3   OH248870   4.907   5.272   3.354 -0.5037  0.1696 -0.1517
 9152TIP3    H148871   4.845   5.274   3.427  0.9219 -1.3020  1.2102
 9152TIP3    H248872   4.913   5.362   3.324 -0.9825  0.8694  1.7291
 9153TIP3   OH248873   6.345   4.010  13.200  0.3962 -0.4538  0.3006
 9153TIP3    H148874   6.356   3.917  13.181  1.1667 -0.4960  0.9019
 9153TIP3    H248875   6.331   4.014  13.294  2.1075  0.1545  0.5658
 9154TIP3   OH248876   5.676   6.659  16.114 -0.1673 -1.2366 -0.9863
 9154TIP3    H148877   5.581   6.668  16.125  0.0789  2.2787 -0.6080
 9154TIP3    H248878   5.689   6.668  16.020 -0.1581 -1.2807 -0.9892
 9155TIP3   OH248879   2.855   1.380   1.243 -0.1242  0.2447  0.6890
 9155TIP3    H148880   2.852   1.371   1.147  0.2874 -1.2669  0.7973
 9155TIP3    H248881   2.935   1.429   1.260  0.0709  0.0736  0.2765
 9156TIP3   OH248882   4.448   0.199  12.948  0.1916 -0.3286  0.1289
 9156TIP3    H148883   4.423   0.265  13.012  1.7333  0.4392 -0.0042
 9156TIP3    H248884   4.398   0.222  12.869 -0.4818 -0.2959  0.5612
 9157TIP3   OH248885   1.060   2.535   3.642  0.6935  0.0007  0.0744
 9157TIP3    H148886   1.072   2.447   3.608  1.6347  0.0474  0.2374
 9157TIP3    H248887   0.988   2.528   3.704  0.9278 -0.7143  0.2787
 9158TIP3   OH248888   5.002   1.854   1.757  0.0951  0.7331 -0.1654
 9158TIP3    H148889   4.997   1.870   1.851 -0.1465  0.9538 -0.2165
 9158TIP3    H248890   4.914   1.872   1.725 -0.5673 -1.8657 -0.0378
 9159TIP3   OH248891   1.730   6.673  16.393  0.1046  0.0924 -0.1588
 9159TIP3    H148892   1.689   6.597  16.352 -0.8933  0.3923  0.2630
 9159TIP3    H248893   1.694   6.748  16.347 -1.4968  0.4694  1.5987
 9160TIP3   OH248894   4.907   5.787   5.869 -0.7635 -0.6016  0.0856
 9160TIP3    H148895   4.889   5.746   5.784  0.7733 -2.9512  0.8139
 9160TIP3    H248896   4.993   5.827   5.858 -1.3266  0.6499  0.0457
 9161TIP3   OH248897   5.531   0.623  15.801  0.0634 -0.3362  0.1270
 9161TIP3    H148898   5.452   0.618  15.854  0.3790 -0.3189  0.6033
 9161TIP3    H248899   5.602   0.606  15.863  0.7070  2.7355  0.3826
 9162TIP3   OH248900   0.363   5.242   2.869  0.0755  0.0297 -0.3637
 9162TIP3    H148901   0.394   5.275   2.954  2.6306 -2.9283  0.0207
 9162TIP3    H248902   0.405   5.298   2.804  3.5493 -1.5596  0.2856
 9163TIP3   OH248903   6.524   1.526  16.022 -0.2884  0.3395 -0.0576
 9163TIP3    H148904   6.454   1.465  16.044  0.3640 -0.6195 -0.5796
 9163TIP3    H248905   6.485   1.586  15.958 -0.7894  0.1554  0.0754
 9164TIP3   OH248906   5.164   5.129   3.509 -0.1659  0.5165  0.1281
 9164TIP3    H148907   5.078   5.094   3.531  0.4659 -0.5594  0.9816
 9164TIP3    H248908   5.225   5.061   3.537  0.8173 -0.5195 -3.9838
 9165TIP3   OH248909   4.093   0.119   4.942  0.1029  0.3499 -0.4760
 9165TIP3    H148910   4.038   0.166   4.879  0.4088  0.7099 -0.4783
 9165TIP3    H248911   4.182   0.149   4.924  0.0586  1.4991  1.0112
 9166TIP3   OH248912   3.181   4.754   1.933  0.8937 -0.0883 -0.1443
 9166TIP3    H148913   3.088   4.757   1.909  0.8159 -3.1579 -0.6146
 9166TIP3    H248914   3.181   4.774   2.027 -0.5676 -2.0690  0.3550
 9167TIP3   OH248915   3.136   0.611   3.425  0.0038  0.1114 -0.0853
 9167TIP3    H148916   3.205   0.593   3.489 -0.9121 -0.4229  0.7820
 9167TIP3    H248917   3.072   0.542   3.439  0.3160 -0.7390 -2.4227
 9168TIP3   OH248918   1.329   4.007   2.968  0.4570 -0.4059  0.1115
 9168TIP3    H148919   1.415   4.047   2.956  1.1062 -1.4788  1.0486
 9168TIP3    H248920   1.267   4.077   2.946  1.5255 -0.1318 -2.3386
 9169TIP3   OH248921   4.173   5.876   1.326 -0.4336 -0.1509  0.0328
 9169TIP3    H148922   4.172   5.785   1.357 -1.3238 -0.4104 -0.7069
 9169TIP3    H248923   4.184   5.868   1.231  1.1050  0.5847  0.1231
 9170TIP3   OH248924   1.058   6.319   5.636  0.4449 -0.3709  0.0579
 9170TIP3    H148925   1.033   6.243   5.585 -1.9182  1.3652 -1.5951
 9170TIP3    H248926   0.982   6.339   5.690  1.6110 -0.0707  1.6661
 9171TIP3   OH248927   6.065   1.418  10.635 -0.3118 -0.1428 -0.2623
 9171TIP3    H148928   6.016   1.339  10.658 -0.1232  0.0116  0.6851
 9171TIP3    H248929   6.000   1.476  10.595 -0.6091 -0.4648 -0.2494
 9172TIP3   OH248930   4.058   3.506   6.310  0.2176  0.0831  0.1410
 9172TIP3    H148931   3.963   3.514   6.299  0.3878  0.3296 -1.3246
 9172TIP3    H248932   4.069   3.422   6.356 -0.6869 -0.2744 -0.2612
 9173TIP3   OH248933   3.492   0.057  11.473 -0.1700  0.2198 -0.2848
 9173TIP3    H148934   3.499   0.091  11.562 -0.0992  0.0936 -0.2429
 9173TIP3    H248935   3.542  -0.024  11.474 -3.9280 -2.3695  0.8405
 9174TIP3   OH248936   6.516   2.571  12.510  0.0660  0.3397  0.3501
 9174TIP3    H148937   6.503   2.531  12.424 -0.3257 -1.6258  1.2662
 9174TIP3    H248938   6.516   2.665  12.493  2.4130  0.0187 -2.1378
 9175TIP3   OH248939   4.955   6.455   2.909  0.1226 -0.1460 -0.1755
 9175TIP3    H148940   5.044   6.435   2.938 -0.2010 -0.9983  0.2435
 9175TIP3    H248941   4.967   6.504   2.827  0.9722 -0.2818 -0.1387
 9176TIP3   OH248942   6.766   2.255   2.044  0.0937  0.3320 -0.0443
 9176TIP3    H148943   6.723   2.318   2.101  1.6408 -0.3717  2.0487
 9176TIP3    H248944   6.860   2.273   2.054  0.5299 -1.6810 -0.0672
 9177TIP3   OH248945   2.438   4.610  11.971 -0.0082  0.5633 -0.1888
 9177TIP3    H148946   2.532   4.591  11.974 -0.0059  0.3781 -1.2174
 9177TIP3    H248947   2.400   4.533  11.928 -0.5703  0.8659 -0.2354
 9178TIP3   OH248948   6.432   1.980  14.857  0.4562  0.3194  0.3486
 9178TIP3    H148949   6.349   2.024  14.876 -0.5069 -1.7243  1.1660
 9178TIP3    H248950   6.486   2.048  14.815 -0.9561  2.2000  1.4048
 9179TIP3   OH248951   3.510   6.194   0.133  0.3158  0.2754 -0.0812
 9179TIP3    H148952   3.584   6.136   0.153  1.3880  1.9795  1.1081
 9179TIP3    H248953   3.441   6.165   0.193  1.1448  0.7673  1.1562
 9180TIP3   OH248954   3.737   4.922   3.649  0.4251  0.0823 -0.4830
 9180TIP3    H148955   3.698   4.941   3.564 -3.4153 -0.6653  0.8961
 9180TIP3    H248956   3.752   4.827   3.648  1.8912  0.2912 -0.8115
 9181TIP3   OH248957   4.110   6.498   0.966 -0.0112  0.4428 -0.1372
 9181TIP3    H148958   4.170   6.448   1.021 -2.0803 -2.7876 -0.5627
 9181TIP3    H248959   4.081   6.571   1.022  1.2982 -0.1934  1.4432
 9182TIP3   OH248960   1.297   6.670  12.341 -0.2754  1.0640 -0.0988
 9182TIP3    H148961   1.297   6.592  12.397  0.4847  1.6236  0.7020
 9182TIP3    H248962   1.239   6.731  12.387 -1.2851  0.8006 -0.9912
 9183TIP3   OH248963   6.114   0.382   0.518 -0.4509  0.0757 -0.0737
 9183TIP3    H148964   6.029   0.425   0.510 -0.4014 -0.0732 -1.5619
 9183TIP3    H248965   6.099   0.293   0.487  0.3710  0.2106 -0.8850
 9184TIP3   OH248966   4.388   5.855  13.489  0.1440 -0.4453 -0.2213
 9184TIP3    H148967   4.408   5.899  13.407 -0.3267  0.9727  0.3915
 9184TIP3    H248968   4.294   5.866  13.500 -0.1054 -2.1464 -0.3166
 9185TIP3   OH248969   4.279   2.578   2.801  0.2705  0.4412  0.2143
 9185TIP3    H148970   4.308   2.615   2.884 -0.2742  1.5388 -0.0681
 9185TIP3    H248971   4.185   2.564   2.812  0.3231 -0.0862  0.0272
 9186TIP3   OH248972   1.437   1.344   0.257 -0.1010  0.4457  0.1309
 9186TIP3    H148973   1.348   1.378   0.263 -0.0879  0.3318  1.0287
 9186TIP3    H248974   1.488   1.416   0.220 -1.1025 -0.4495 -3.5163
 9187TIP3   OH248975   6.062   0.694  14.346 -0.5612 -0.3181 -0.0703
 9187TIP3    H148976   6.079   0.617  14.292 -1.0990 -0.2782 -0.3014
 9187TIP3    H248977   6.113   0.764  14.305 -0.3284 -0.4726 -0.0477
 9188TIP3   OH248978   3.228   4.629   2.242 -0.7050 -0.1291 -0.0256
 9188TIP3    H148979   3.301   4.690   2.251  0.1256 -1.1345  0.3717
 9188TIP3    H248980   3.269   4.547   2.214 -1.7566 -0.5614 -0.3364
 9189TIP3   OH248981   1.207   0.953  14.157  0.3826  0.1665 -0.2703
 9189TIP3    H148982   1.185   1.020  14.222  0.9709 -1.3716  1.5935
 9189TIP3    H248983   1.127   0.902  14.146 -0.6588  2.0895 -3.0598
 9190TIP3   OH248984   5.384   1.251   2.846 -0.6665 -0.4353  0.5137
 9190TIP3    H148985   5.420   1.310   2.780  1.8782 -2.7531 -0.3459
 9190TIP3    H248986   5.319   1.199   2.799 -1.8037  0.5976  0.8987
 9191TIP3   OH248987   3.556   0.778   3.827  0.5849 -0.4521 -0.0980
 9191TIP3    H148988   3.487   0.822   3.776  0.8507 -0.2025 -0.2457
 9191TIP3    H248989   3.510   0.742   3.903  0.1146 -1.1773 -0.7147
 9192TIP3   OH248990   5.689   3.618   0.691  0.3941  0.3169  0.2520
 9192TIP3    H148991   5.707   3.700   0.644  1.0263  1.1423  1.8509
 9192TIP3    H248992   5.611   3.583   0.649  0.0579  1.7987 -0.4256
 9193TIP3   OH248993   3.817   3.772  11.535 -0.3955 -0.4478 -0.2336
 9193TIP3    H148994   3.844   3.680  11.530 -3.0885 -1.2900 -1.7507
 9193TIP3    H248995   3.884   3.819  11.487  0.9266 -1.6292  0.3745
 9194TIP3   OH248996   3.477   3.081  14.354 -0.1314 -0.2254 -0.2398
 9194TIP3    H148997   3.443   3.008  14.406  2.5049 -1.6553 -0.3449
 9194TIP3    H248998   3.479   3.155  14.415  0.4622 -1.2052  0.9806
 9195TIP3   OH248999   0.578   6.098   2.599 -0.0750 -0.0617  0.0240
 9195TIP3    H149000   0.617   6.010   2.601  0.3605  0.0040 -2.2604
 9195TIP3    H249001   0.484   6.083   2.609  0.0948 -0.6641  0.8241
 9196TIP3   OH249002   1.936   4.298   5.452 -0.0442 -0.7360 -0.1563
 9196TIP3    H149003   2.005   4.300   5.519 -0.3864  0.8743  0.1718
 9196TIP3    H249004   1.983   4.307   5.369  0.1198  1.2047  0.1110
 9197TIP3   OH249005   5.578   3.459   3.752  0.5530 -0.4806  0.1140
 9197TIP3    H149006   5.635   3.385   3.773  0.8736 -0.2544  0.0580
 9197TIP3    H249007   5.501   3.420   3.712  0.4428 -0.8322  0.6605
 9198TIP3   OH249008   0.413   5.934  14.638  0.0184  0.2717 -0.4536
 9198TIP3    H149009   0.374   5.951  14.724 -0.0924  2.6303 -0.9098
 9198TIP3    H249010   0.505   5.961  14.648  0.0511  0.3798 -1.0125
 9199TIP3   OH249011   2.304   0.642   3.712 -0.1992  0.1039  0.7591
 9199TIP3    H149012   2.258   0.568   3.672 -0.8122  0.6185  0.4900
 9199TIP3    H249013   2.316   0.704   3.639  0.5791  0.1417  0.9128
 9200TIP3   OH249014   3.212   6.431  16.055  0.2183 -0.1300  0.2154
 9200TIP3    H149015   3.252   6.435  16.141  1.0846 -1.8328 -0.0557
 9200TIP3    H249016   3.117   6.430  16.072  0.2987  1.9941  0.9719
 9201TIP3   OH249017   2.560   6.151   1.495  0.1636  0.5977  0.1597
 9201TIP3    H149018   2.495   6.082   1.509  1.1925 -0.8569 -1.6933
 9201TIP3    H249019   2.521   6.208   1.429 -0.6939  1.8893  1.7028
 9202TIP3   OH249020   5.121   3.817  13.434 -0.1276 -0.3515 -0.3045
 9202TIP3    H149021   5.200   3.840  13.383  0.0722 -0.2751  0.0371
 9202TIP3    H249022   5.154   3.764  13.506 -0.2666  0.5068  0.4013
 9203TIP3   OH249023   2.520   1.961  11.988  0.2559  0.4431 -0.1416
 9203TIP3    H149024   2.564   1.908  12.055  0.9830 -2.9246 -2.9401
 9203TIP3    H249025   2.591   2.006  11.943  0.1194  0.3053 -0.4994
 9204TIP3   OH249026   4.237   6.162   1.073 -0.4339  0.4471  0.0056
 9204TIP3    H149027   4.165   6.149   1.134  0.9224 -0.2772  1.5425
 9204TIP3    H249028   4.316   6.160   1.128  0.8190  0.3039 -1.7061
 9205TIP3   OH249029   1.989   1.832  16.344  0.2761 -0.1643  0.7512
 9205TIP3    H149030   2.081   1.814  16.361  0.7997  2.3985  1.0450
 9205TIP3    H249031   1.982   1.927  16.345 -2.3730 -0.2631  0.6209
 9206TIP3   OH249032   1.716   2.827  13.396  0.0624 -0.3777 -0.5632
 9206TIP3    H149033   1.788   2.797  13.451  0.5461  0.3001 -0.8133
 9206TIP3    H249034   1.717   2.767  13.321  0.3506 -0.3811 -0.5570
 9207TIP3   OH249035   1.631   3.820   5.763  0.0592 -0.4441  0.2026
 9207TIP3    H149036   1.660   3.894   5.817 -1.9745 -0.0976  0.8957
 9207TIP3    H249037   1.713   3.783   5.728  1.3122  0.5109  1.9395
 9208TIP3   OH249038   2.732   5.389   1.546 -1.0325 -0.1639  0.3163
 9208TIP3    H149039   2.777   5.310   1.576 -0.8557  0.1409  0.8423
 9208TIP3    H249040   2.723   5.376   1.451 -1.0967 -0.8636  0.4121
 9209TIP3   OH249041   6.779   5.764   5.160  0.1073  0.4608  0.1415
 9209TIP3    H149042   6.874   5.757   5.151  0.2725  0.2218  1.6534
 9209TIP3    H249043   6.764   5.747   5.253 -1.3980  0.7377 -0.0377
 9210TIP3   OH249044   6.440   4.125   1.636  0.2812  0.2952  0.0285
 9210TIP3    H149045   6.517   4.099   1.686  1.8032  0.0768 -2.2894
 9210TIP3    H249046   6.475   4.170   1.559 -1.8717 -0.2202 -1.3306
 9211TIP3   OH249047   2.886   1.959  11.655  0.1082  0.0497  0.3503
 9211TIP3    H149048   2.953   1.972  11.587  2.0614 -1.2299  1.8948
 9211TIP3    H249049   2.805   1.992  11.616  1.5812  1.5393 -1.6979
 9212TIP3   OH249050   5.237   6.431  14.422  0.8938 -0.3927 -0.4315
 9212TIP3    H149051   5.177   6.393  14.486  0.2999  1.1025 -0.0434
 9212TIP3    H249052   5.197   6.412  14.337 -0.0664  0.3991 -0.1854
 9213TIP3   OH249053   5.416   0.574  12.690  0.0332 -0.0938 -0.5094
 9213TIP3    H149054   5.407   0.597  12.597  0.2537  1.5831 -0.1572
 9213TIP3    H249055   5.327   0.580  12.725 -0.2625 -1.9378 -0.8191
 9214TIP3   OH249056   2.271   6.603  17.041  0.3986 -0.0832 -0.4704
 9214TIP3    H149057   2.284   6.697  17.057 -0.2250 -0.4298  3.0320
 9214TIP3    H249058   2.176   6.591  17.053  0.7367 -1.3983  1.1866
 9215TIP3   OH249059   6.117   3.492   6.614 -0.0502 -0.4692 -0.2717
 9215TIP3    H149060   6.082   3.557   6.553  0.1275 -0.7720 -0.6994
 9215TIP3    H249061   6.195   3.458   6.571 -0.6174 -1.5930 -0.4429
 9216TIP3   OH249062   2.420   2.644  13.031  0.1338 -0.3146  0.1003
 9216TIP3    H149063   2.342   2.679  13.073  0.0650  0.2570 -0.4895
 9216TIP3    H249064   2.387   2.576  12.972 -0.0952  0.9099 -1.2356
 9217TIP3   OH249065   2.779   4.726   4.160 -0.2266  0.7758  0.1884
 9217TIP3    H149066   2.684   4.734   4.170 -0.3233  1.7300 -1.1983
 9217TIP3    H249067   2.815   4.770   4.237 -0.8853 -0.4083  1.2066
 9218TIP3   OH249068   6.102   5.134  14.746 -0.6461 -0.5934  0.0291
 9218TIP3    H149069   6.113   5.227  14.727 -1.0396 -0.6225 -0.3657
 9218TIP3    H249070   6.189   5.104  14.773 -0.5528 -0.0778  0.3130
 9219TIP3   OH249071   1.719   0.785  13.883 -0.3808  0.2926 -0.0882
 9219TIP3    H149072   1.728   0.711  13.822  0.2671  1.2012 -1.1426
 9219TIP3    H249073   1.672   0.852  13.832 -2.7110 -0.0377  1.4732
 9220TIP3   OH249074   2.831   0.088   2.634  0.6222  0.3052  0.1813
 9220TIP3    H149075   2.808   0.009   2.587  1.1396 -0.4995  1.2165
 9220TIP3    H249076   2.899   0.130   2.580  0.2616  0.1078 -0.4272
 9221TIP3   OH249077   0.526   1.550   2.604 -0.3073 -1.2459  0.3749
 9221TIP3    H149078   0.442   1.579   2.569 -2.5020 -3.4530  3.3749
 9221TIP3    H249079   0.552   1.619   2.665  1.0903  0.2731 -1.7864
 9222TIP3   OH249080   0.100   1.877   2.283  0.5498  0.3009  0.4126
 9222TIP3    H149081   0.160   1.951   2.280 -0.1131  0.8452  0.0169
 9222TIP3    H249082   0.014   1.916   2.299  0.3543 -0.4970  1.3912
 9223TIP3   OH249083   5.415   3.045  10.820  0.9971 -0.2896 -0.6595
 9223TIP3    H149084   5.498   3.067  10.778  2.2590 -0.4445  1.5946
 9223TIP3    H249085   5.415   2.950  10.825 -0.3285 -0.4392 -2.4589
 9224TIP3   OH249086   0.636   3.750   6.400 -0.4239  0.1224  0.6046
 9224TIP3    H149087   0.687   3.793   6.332  0.6658 -1.2710  0.4966
 9224TIP3    H249088   0.564   3.810   6.418 -0.6839  0.5836 -1.7115
 9225TIP3   OH249089   6.406   3.341  13.629 -0.1395  0.4703  0.0058
 9225TIP3    H149090   6.339   3.324  13.696  1.1416  0.5135  1.3551
 9225TIP3    H249091   6.388   3.277  13.560 -2.4698  1.4566 -0.3976
 9226TIP3   OH249092   4.645   2.557   4.729 -0.6217 -0.3917  0.1474
 9226TIP3    H149093   4.667   2.476   4.684 -0.0385  0.3836 -1.0175
 9226TIP3    H249094   4.573   2.534   4.787 -1.1494 -1.5079 -0.9190
 9227TIP3   OH249095   1.116   0.514  15.953  0.8730  0.4603 -0.1690
 9227TIP3    H149096   1.062   0.476  16.023  0.8280  0.6358 -0.1091
 9227TIP3    H249097   1.070   0.593  15.926  0.9635  0.4691 -0.3009
 9228TIP3   OH249098   0.246   2.977   1.742  0.5254 -0.1000  0.6900
 9228TIP3    H149099   0.220   2.904   1.686  1.6502 -0.9286  1.2093
 9228TIP3    H249100   0.283   3.042   1.682 -0.7458  0.1845  0.1919
 9229TIP3   OH249101   0.523   0.291  13.779 -0.2498  0.0129  0.1451
 9229TIP3    H149102   0.495   0.251  13.861  2.1161 -3.8168 -0.6576
 9229TIP3    H249103   0.613   0.320  13.796 -0.8276  2.2563 -0.2730
 9230TIP3   OH249104   6.688   0.973  11.062 -0.2974 -0.2192  0.0923
 9230TIP3    H149105   6.725   0.887  11.039 -0.7823 -0.1241 -1.1359
 9230TIP3    H249106   6.668   1.013  10.977  0.4342  1.3448  0.6279
 9231TIP3   OH249107   4.266   2.166   1.877  0.1011  0.0809 -0.6380
 9231TIP3    H149108   4.222   2.109   1.814 -0.7567  1.0945 -0.9937
 9231TIP3    H249109   4.209   2.165   1.954  0.7743 -0.5871 -0.1408
 9232TIP3   OH249110   2.612   3.008   0.394  0.9779  0.3981  0.6865
 9232TIP3    H149111   2.559   3.087   0.390  0.2947 -0.0982 -0.4587
 9232TIP3    H249112   2.660   3.016   0.476 -0.8761  0.8530  1.7828
 9233TIP3   OH249113   6.222   1.447   5.360  0.0029  0.5006  0.0711
 9233TIP3    H149114   6.282   1.393   5.412 -1.3462 -1.9177 -0.6967
 9233TIP3    H249115   6.213   1.528   5.410  0.6569 -0.7520  2.3524
 9234TIP3   OH249116   6.047   5.073  13.041  0.0711 -0.2173 -0.0931
 9234TIP3    H149117   6.035   5.133  13.114 -0.2295  0.2250 -0.5041
 9234TIP3    H249118   6.053   4.987  13.082  0.5891  0.0943  0.5057
 9235TIP3   OH249119   3.494   4.776   4.855 -0.5092 -0.7606  0.7869
 9235TIP3    H149120   3.568   4.718   4.841 -0.7546 -0.4609 -2.8037
 9235TIP3    H249121   3.426   4.720   4.892  0.3616 -1.8964  0.7246
 9236TIP3   OH249122   1.111   3.742   6.863  0.0761 -0.0977 -0.2845
 9236TIP3    H149123   1.103   3.653   6.827 -0.3641  0.0106 -0.4622
 9236TIP3    H249124   1.202   3.765   6.849  0.4142 -0.8765  0.5928
 9237TIP3   OH249125   0.423   4.640  16.425  0.5511 -0.5740 -0.2512
 9237TIP3    H149126   0.507   4.673  16.394 -0.3985  1.8245 -0.4966
 9237TIP3    H249127   0.381   4.602  16.348  1.5667 -2.2284 -0.0215
 9238TIP3   OH249128   5.298   2.749   1.377 -0.5571 -0.4001 -0.0538
 9238TIP3    H149129   5.295   2.711   1.465 -0.4440 -1.9545 -0.7056
 9238TIP3    H249130   5.343   2.833   1.390  0.0909 -0.9155  1.2627
 9239TIP3   OH249131   4.293   1.186   4.210 -0.0415 -0.0801 -0.0589
 9239TIP3    H149132   4.314   1.279   4.204 -0.7794  0.0069 -2.2867
 9239TIP3    H249133   4.338   1.155   4.289  0.5102  2.0691  0.5121
 9240TIP3   OH249134   0.611   4.785  14.797 -0.1426  0.0227 -0.2429
 9240TIP3    H149135   0.679   4.803  14.732  0.3854  0.1377  0.3257
 9240TIP3    H249136   0.546   4.853  14.784  0.3327  0.4997 -0.1533
 9241TIP3   OH249137   5.438   2.806   2.500 -0.1448 -1.0207  0.4063
 9241TIP3    H149138   5.372   2.744   2.469  1.3587 -3.0272  0.9785
 9241TIP3    H249139   5.453   2.781   2.591  0.8525 -0.1023  0.5178
 9242TIP3   OH249140   4.459   3.349  13.745  0.0641 -0.1234 -0.1595
 9242TIP3    H149141   4.464   3.262  13.786 -2.0111 -0.0271  0.3752
 9242TIP3    H249142   4.376   3.385  13.774  0.2116  1.4641 -1.5583
 9243TIP3   OH249143   1.012   3.077  15.098  0.5697 -0.0161 -0.2979
 9243TIP3    H149144   0.943   3.134  15.131  0.3394 -0.5366  0.1480
 9243TIP3    H249145   1.036   3.023  15.174 -0.4463 -1.7217 -1.1215
 9244TIP3   OH249146   1.089   4.808   1.089  0.5656 -0.0628  0.1904
 9244TIP3    H149147   1.096   4.740   1.156 -0.4830 -0.7686 -0.3771
 9244TIP3    H249148   1.080   4.889   1.138  0.9736 -0.4286  0.8953
 9245TIP3   OH249149   0.459   4.091  17.212  0.4043 -0.0439  0.6606
 9245TIP3    H149150   0.546   4.130  17.210 -0.2922  1.5739 -0.2329
 9245TIP3    H249151   0.414   4.135  17.284 -0.0471 -0.0224  0.3675
 9246TIP3   OH249152   3.821   4.874  12.706 -0.1261  0.1573 -0.5696
 9246TIP3    H149153   3.900   4.889  12.653 -0.8976  1.5062 -1.3897
 9246TIP3    H249154   3.761   4.945  12.681 -1.2879 -0.3500  0.6548
 9247TIP3   OH249155   3.934   5.532   4.666 -0.0271 -0.1058  0.2440
 9247TIP3    H149156   3.846   5.565   4.680 -0.3512 -1.1675  0.8652
 9247TIP3    H249157   3.975   5.594   4.607 -1.5498 -0.1915 -0.9399
 9248TIP3   OH249158   0.610   5.809   6.062  0.1581 -0.1174  0.1492
 9248TIP3    H149159   0.535   5.847   6.015 -0.9897 -0.3230  1.7375
 9248TIP3    H249160   0.649   5.882   6.108  0.4994 -0.1423 -0.0968
 9249TIP3   OH249161   0.410   5.386   0.571 -0.4727  0.4065 -0.6905
 9249TIP3    H149162   0.375   5.434   0.645  0.0754  0.0020 -0.1528
 9249TIP3    H249163   0.403   5.446   0.497 -0.0481  1.2175 -0.0895
 9250TIP3   OH249164   4.289   5.939   1.984 -0.2184 -0.1080  0.4761
 9250TIP3    H149165   4.316   5.915   1.895 -1.7639 -1.4375  0.3254
 9250TIP3    H249166   4.296   6.035   1.985 -0.0109 -0.0733 -1.0270
 9251TIP3   OH249167   6.220   5.200   3.047 -0.3107  0.0944 -0.6520
 9251TIP3    H149168   6.289   5.262   3.022 -0.9666  1.7604  1.3663
 9251TIP3    H249169   6.140   5.239   3.014 -0.7837  0.6266  1.0237
 9252TIP3   OH249170   0.814   1.500  15.811  0.4234 -0.0191  0.0992
 9252TIP3    H149171   0.807   1.422  15.756 -0.6277 -1.2789  1.9288
 9252TIP3    H249172   0.908   1.513  15.823  0.5975 -1.4619  0.3869
 9253TIP3   OH249173   2.588   1.756  11.650 -0.3368  0.0111  1.0195
 9253TIP3    H149174   2.620   1.717  11.731 -0.2451 -0.0920  0.9342
 9253TIP3    H249175   2.642   1.835  11.638  0.1928 -0.4024  0.6413
 9254TIP3   OH249176   4.458   5.068   4.246 -0.2113 -0.0612  0.2117
 9254TIP3    H149177   4.438   4.975   4.254  0.1681 -0.2835 -1.2330
 9254TIP3    H249178   4.527   5.084   4.311  0.0793 -0.9046  0.1151
 9255TIP3   OH249179   5.220   5.677  16.983  0.1296 -0.1779  0.2911
 9255TIP3    H149180   5.161   5.710  16.915 -0.6023 -2.8768 -0.5141
 9255TIP3    H249181   5.169   5.681  17.064  0.2297  0.9945  0.3157
 9256TIP3   OH249182   0.398   6.245  13.367 -0.2699  0.4278 -0.2538
 9256TIP3    H149183   0.437   6.237  13.280 -0.7441  0.3696 -0.4668
 9256TIP3    H249184   0.342   6.323  13.361  1.0369  1.4727  0.5313
 9257TIP3   OH249185   2.319   3.334  14.816 -0.3261 -0.4741 -0.5717
 9257TIP3    H149186   2.368   3.276  14.758 -3.2461 -2.4436 -1.3064
 9257TIP3    H249187   2.330   3.296  14.903  0.6261 -0.0094 -0.4789
 9258TIP3   OH249188   5.475   4.005  17.091 -0.4611 -0.1707 -0.3266
 9258TIP3    H149189   5.527   4.051  17.157  1.2566  0.2344 -1.8939
 9258TIP3    H249190   5.490   4.054  17.010 -1.3932 -1.4709 -1.3217
 9259TIP3   OH249191   6.269   1.580   3.643  0.3390 -0.0415  0.3195
 9259TIP3    H149192   6.278   1.665   3.686 -2.3204  0.6979 -0.4359
 9259TIP3    H249193   6.197   1.537   3.689  1.0022 -1.5043  0.0538
 9260TIP3   OH249194   6.642   4.010  16.082  0.1873 -1.0501 -0.2552
 9260TIP3    H149195   6.696   4.000  16.160  0.7227  0.2457 -0.4350
 9260TIP3    H249196   6.596   4.093  16.095 -0.7893 -1.5036 -0.6922
 9261TIP3   OH249197   2.627   4.589  16.808 -0.0272 -0.1892 -0.6465
 9261TIP3    H149198   2.713   4.619  16.838 -0.2401  0.4005 -0.6095
 9261TIP3    H249199   2.638   4.495  16.793  0.3936 -0.2756  0.1706
 9262TIP3   OH249200   3.470   6.170   4.235  0.1978 -0.2236  0.0982
 9262TIP3    H149201   3.464   6.137   4.146  2.4892 -0.4465 -0.0518
 9262TIP3    H249202   3.537   6.115   4.276  0.2250  0.7962  1.4954
 9263TIP3   OH249203   2.611   4.298  15.875  0.5050  0.0254  0.2561
 9263TIP3    H149204   2.647   4.384  15.852  0.3563  0.7661  2.5553
 9263TIP3    H249205   2.678   4.258  15.930 -1.6145  1.1287  4.0162
 9264TIP3   OH249206   6.287   0.157  14.119  0.0980 -0.3277  0.2013
 9264TIP3    H149207   6.211   0.131  14.171  0.3317  0.1292  0.7869
 9264TIP3    H249208   6.256   0.229  14.064 -0.0731 -0.6131 -0.0767
 9265TIP3   OH249209   0.308   6.441   0.629  0.0143  0.1054  0.7713
 9265TIP3    H149210   0.291   6.366   0.573  1.3891 -0.3997  0.9928
 9265TIP3    H249211   0.256   6.512   0.590 -1.4894 -0.9905  0.7098
 9266TIP3   OH249212   3.836   5.233  16.619 -0.3758 -0.2422 -0.5044
 9266TIP3    H149213   3.821   5.236  16.525 -1.6334  0.5028 -0.3148
 9266TIP3    H249214   3.920   5.277  16.632 -0.3420 -0.0789 -1.2481
 9267TIP3   OH249215   4.866   1.844   2.337  0.0958 -0.3076 -0.3693
 9267TIP3    H149216   4.798   1.860   2.402  1.4331 -0.2413  1.0664
 9267TIP3    H249217   4.915   1.926   2.333 -0.9400  0.2904 -2.7444
 9268TIP3   OH249218   1.348   4.932  12.894  0.2312  0.3565 -0.0210
 9268TIP3    H149219   1.401   4.942  12.974 -0.8262  0.5289  0.6804
 9268TIP3    H249220   1.334   4.838  12.886  0.1515  0.3563  0.1208
 9269TIP3   OH249221   5.858   1.313  15.874  0.0218 -0.1764  0.1491
 9269TIP3    H149222   5.934   1.255  15.879 -0.6648 -1.1805 -0.5924
 9269TIP3    H249223   5.890   1.398  15.903  1.7029 -0.3365 -1.1221
 9270TIP3   OH249224   5.213   3.693   0.629 -0.0085 -0.6947  0.1097
 9270TIP3    H149225   5.221   3.704   0.534  0.9710 -2.2287 -0.0307
 9270TIP3    H249226   5.136   3.638   0.640 -1.9060  1.8424  0.4636
 9271TIP3   OH249227   4.577   4.074   6.943  0.7511  0.3928 -0.3895
 9271TIP3    H149228   4.502   4.030   6.983  0.4646  0.5043 -0.7964
 9271TIP3    H249229   4.591   4.027   6.860  2.0432 -0.5650  0.3438
 9272TIP3   OH249230   3.534   6.770  15.254  0.2213  0.0744 -0.4525
 9272TIP3    H149231   3.472   6.718  15.305  1.2026  0.0566  0.7563
 9272TIP3    H249232   3.543   6.723  15.172  0.8722 -1.5559  0.5118
 9273TIP3   OH249233   6.092   6.376   4.298  0.0498  0.4369  0.2877
 9273TIP3    H149234   6.047   6.392   4.381  1.6448  2.0790  0.9177
 9273TIP3    H249235   6.027   6.334   4.242 -0.8981 -1.2564  2.5492
 9274TIP3   OH249236   3.217   5.873  13.744  0.1989 -0.1132  0.4003
 9274TIP3    H149237   3.293   5.819  13.764  0.7732  0.1113 -1.0014
 9274TIP3    H249238   3.146   5.811  13.728  1.0083 -0.5552 -1.8301
 9275TIP3   OH249239   6.702   3.658  13.888  0.1332  0.8571  0.0463
 9275TIP3    H149240   6.708   3.751  13.911  0.2336  1.2023 -1.2930
 9275TIP3    H249241   6.789   3.636  13.856  0.7926 -0.3221  2.3926
 9276TIP3   OH249242   0.356   5.929   5.988  0.6442  0.9325 -0.0430
 9276TIP3    H149243   0.346   5.991   5.916 -0.9170 -0.4209 -1.0670
 9276TIP3    H249244   0.271   5.928   6.030  0.3772 -1.0579 -0.5425
 9277TIP3   OH249245   1.289   4.949  15.075 -0.3375 -0.3487  0.0742
 9277TIP3    H149246   1.341   4.996  15.010  0.0641 -0.4578  0.3135
 9277TIP3    H249247   1.354   4.909  15.133 -0.6901  0.9607  1.4281
 9278TIP3   OH249248   0.262   3.068   0.371  0.1515  0.0831 -0.9440
 9278TIP3    H149249   0.331   3.130   0.394  0.0837 -0.2470  0.2334
 9278TIP3    H249250   0.181   3.116   0.388  0.0882 -0.6836  1.1328
 9279TIP3   OH249251   1.277   1.828   3.130  0.1134 -0.2806  0.0529
 9279TIP3    H149252   1.355   1.792   3.089  0.4527 -0.5138  0.8840
 9279TIP3    H249253   1.244   1.758   3.186 -2.3068 -1.2193 -2.3273
 9280TIP3   OH249254   4.207   6.307   0.337  0.2064  0.0609  0.0050
 9280TIP3    H149255   4.148   6.258   0.281  1.1929  0.6474 -1.6184
 9280TIP3    H249256   4.264   6.241   0.376  0.0476 -0.2780 -0.3367
 9281TIP3   OH249257   2.374   0.068   4.027  0.2934 -0.3167  0.5947
 9281TIP3    H149258   2.431   0.141   4.050 -1.4127  0.5955  2.2327
 9281TIP3    H249259   2.353   0.026   4.110 -0.5510 -1.2939 -0.0800
 9282TIP3   OH249260   4.221   0.739   1.020  0.6428  0.2734 -0.1503
 9282TIP3    H149261   4.213   0.773   1.109 -1.6676 -0.3183 -0.0796
 9282TIP3    H249262   4.255   0.651   1.031  0.4360  0.2283  0.1499
 9283TIP3   OH249263   0.203   2.903   0.005  0.1884  0.2862  0.2629
 9283TIP3    H149264   0.183   2.988  -0.035 -0.9805 -0.5013 -0.9044
 9283TIP3    H249265   0.182   2.839  -0.063  0.0892 -0.9992  1.4561
 9284TIP3   OH249266   3.606   0.483  12.434  1.2260  0.6110  0.0047
 9284TIP3    H149267   3.658   0.562  12.423  1.6303  0.3272 -0.1750
 9284TIP3    H249268   3.669   0.411  12.422  0.4088  0.2093 -2.5642
 9285TIP3   OH249269   1.541   5.390   4.764  0.8944  0.0973  0.5223
 9285TIP3    H149270   1.585   5.360   4.844  0.4505 -0.7449  0.4572
 9285TIP3    H249271   1.518   5.310   4.718 -0.0728  0.5462  0.2070
 9286TIP3   OH249272   3.143   6.509   1.886 -0.5100 -0.4716 -0.2318
 9286TIP3    H149273   3.215   6.476   1.940  2.5761  1.8396 -2.5675
 9286TIP3    H249274   3.097   6.430   1.857  0.5512 -2.0107  1.9422
 9287TIP3   OH249275   6.734   5.115   5.895  0.2179 -0.2669  0.1887
 9287TIP3    H149276   6.677   5.074   5.960 -0.0019 -0.2408  0.0128
 9287TIP3    H249277   6.692   5.198   5.876  0.9085  0.2531  0.8883
 9288TIP3   OH249278   3.391   1.914   5.988 -0.6788 -0.1831 -0.9068
 9288TIP3    H149279   3.442   1.994   5.978 -1.3392  0.1911 -1.3818
 9288TIP3    H249280   3.331   1.933   6.061 -0.0682 -0.6643 -0.2663
 9289TIP3   OH249281   5.129   3.122   5.532 -0.0274  0.2910 -0.7299
 9289TIP3    H149282   5.071   3.063   5.580 -0.1430  1.9187  1.2733
 9289TIP3    H249283   5.217   3.101   5.564  0.3069 -0.7013 -2.1719
 9290TIP3   OH249284   2.408   0.753   4.816 -0.6212  0.2473 -0.0034
 9290TIP3    H149285   2.424   0.727   4.725  0.1929 -0.1811  0.2530
 9290TIP3    H249286   2.475   0.819   4.834 -0.9843  0.5663  0.1897
 9291TIP3   OH249287   0.364   0.231  14.025  0.0243  0.2396 -0.4677
 9291TIP3    H149288   0.322   0.295  14.082  1.4944 -0.3608  1.4260
 9291TIP3    H249289   0.298   0.163  14.012 -0.2568  0.2161  0.8987
 9292TIP3   OH249290   5.765   5.416   6.628 -0.8348  0.3254  0.0733
 9292TIP3    H149291   5.800   5.494   6.585  0.7824 -2.0313 -3.3409
 9292TIP3    H249292   5.835   5.387   6.686 -0.1525 -0.1587 -0.9514
 9293TIP3   OH249293   5.312   0.018  12.261  0.5014  0.0191  0.5066
 9293TIP3    H149294   5.293   0.041  12.170 -1.3287 -1.0991  0.5533
 9293TIP3    H249295   5.406   0.002  12.263  0.3049 -1.9339 -1.6820
 9294TIP3   OH249296   5.487   5.999  12.722  0.4452  0.1281  0.3271
 9294TIP3    H149297   5.547   6.073  12.731 -1.2505  2.4120 -4.0828
 9294TIP3    H249298   5.433   6.003  12.801  1.5290  2.5245  1.0540
 9295TIP3   OH249299   1.083   2.252  10.895 -0.4195  0.7715  0.4927
 9295TIP3    H149300   1.154   2.192  10.872 -2.0091 -0.6669 -0.9723
 9295TIP3    H249301   1.075   2.245  10.990  1.1491  0.7229  0.6500
 9296TIP3   OH249302   2.765   0.336   3.605 -0.2124  0.1202 -0.5346
 9296TIP3    H149303   2.831   0.267   3.600 -0.2065 -0.0101  0.8077
 9296TIP3    H249304   2.775   0.385   3.523  0.7710 -0.5853 -0.8610
 9297TIP3   OH249305   6.455   3.385  14.342 -0.3074 -0.2340  0.1458
 9297TIP3    H149306   6.479   3.471  14.308 -2.6920  0.8186  0.8559
 9297TIP3    H249307   6.483   3.387  14.434  0.3123 -0.5123 -0.0378
 9298TIP3   OH249308   6.485   3.261   1.290  0.7652 -0.1775  0.2485
 9298TIP3    H149309   6.459   3.308   1.369 -1.0617 -1.4216  0.4588
 9298TIP3    H249310   6.505   3.173   1.320  0.3393 -0.5860 -0.6244
 9299TIP3   OH249311   5.234   5.275   5.508  0.0320  0.6905 -0.2148
 9299TIP3    H149312   5.178   5.348   5.482 -1.3187  0.5096  2.0016
 9299TIP3    H249313   5.190   5.197   5.474 -0.4721  0.6409  0.5359
 9300TIP3   OH249314   0.952   2.915  11.698  0.0018 -0.1352 -0.5481
 9300TIP3    H149315   1.015   2.913  11.626  1.5413 -0.2001  0.7494
 9300TIP3    H249316   0.934   3.008  11.712  1.1486 -0.0041  0.1688
 9301TIP3   OH249317   6.036   6.145  17.048 -0.2889 -0.4280 -0.2245
 9301TIP3    H149318   6.011   6.221  17.101  2.1872 -0.3722  0.9876
 9301TIP3    H249319   6.030   6.176  16.958 -1.0882  0.6139  0.1602
 9302TIP3   OH249320   6.029   0.844  11.949  0.0888  0.2410 -0.1817
 9302TIP3    H149321   6.055   0.851  11.858  3.3275  0.9231  0.6762
 9302TIP3    H249322   5.939   0.877  11.951 -1.2599 -2.5590 -3.4874
 9303TIP3   OH249323   6.646   5.596  17.034 -0.1620 -0.1156 -0.3379
 9303TIP3    H149324   6.611   5.677  17.072 -0.4327 -0.2358 -0.3294
 9303TIP3    H249325   6.741   5.609  17.035 -0.1877  0.0764 -0.0588
 9304TIP3   OH249326   3.798   1.638   0.937  0.0755 -0.6847 -0.1058
 9304TIP3    H149327   3.761   1.551   0.919 -1.5013 -0.0044 -0.2621
 9304TIP3    H249328   3.835   1.666   0.853  0.1479 -0.9909 -0.1783
 9305TIP3   OH249329   3.351   4.418   2.537 -0.0999  0.0331 -0.5291
 9305TIP3    H149330   3.270   4.368   2.550  0.2661 -0.3141  0.5133
 9305TIP3    H249331   3.394   4.376   2.463 -0.1458 -0.7513 -0.1240
 9306TIP3   OH249332   1.057   1.373  12.010 -0.8174  0.0669 -0.2332
 9306TIP3    H149333   1.135   1.404  12.055 -0.6972  0.3313 -0.6171
 9306TIP3    H249334   1.063   1.278  12.014 -0.7425  0.0894  0.1929
 9307TIP3   OH249335   1.213   0.095   4.119 -0.1459 -0.1378  0.1819
 9307TIP3    H149336   1.230   0.090   4.213 -3.4690 -0.2566  0.8727
 9307TIP3    H249337   1.178   0.183   4.105 -1.1844 -0.6565 -0.6322
 9308TIP3   OH249338   4.129   2.224   2.838  0.0696  0.7418  0.4591
 9308TIP3    H149339   4.089   2.308   2.814  1.4210  0.7619 -2.1099
 9308TIP3    H249340   4.212   2.248   2.878 -1.4822  0.6491  4.0496
 9309TIP3   OH249341   5.717   1.672   1.737 -0.1110  0.7373 -0.2528
 9309TIP3    H149342   5.749   1.756   1.704  0.9473  0.7451  0.7199
 9309TIP3    H249343   5.636   1.694   1.784 -0.7672  0.9410 -1.4248
 9310TIP3   OH249344   5.595   2.972  13.106  0.0969 -0.0775  0.3355
 9310TIP3    H149345   5.593   2.984  13.201 -0.9466  0.1182  0.2975
 9310TIP3    H249346   5.504   2.955  13.082 -0.0725  2.2467 -0.9203
 9311TIP3   OH249347   6.187   6.695  16.762 -0.1129  0.6597  0.8719
 9311TIP3    H149348   6.250   6.622  16.764  0.1064  0.8582  1.2859
 9311TIP3    H249349   6.240   6.771  16.739 -0.5788  0.4672 -0.9971
 9312TIP3   OH249350   6.397   0.359   4.751  0.3125  0.3660  0.4153
 9312TIP3    H149351   6.457   0.421   4.792  1.6594 -1.1465  0.8390
 9312TIP3    H249352   6.345   0.325   4.823  0.1591  0.3958  0.3170
 9313TIP3   OH249353   5.637   0.307   2.188 -0.0730 -0.1893  0.1248
 9313TIP3    H149354   5.619   0.221   2.149 -0.3184  1.1772 -3.1344
 9313TIP3    H249355   5.568   0.363   2.153 -0.9674  1.0575  3.5902
 9314TIP3   OH249356   4.639   5.177  16.301 -0.5134  0.5983 -0.8685
 9314TIP3    H149357   4.644   5.174  16.397 -1.2192 -2.3228 -0.8353
 9314TIP3    H249358   4.710   5.236  16.276  2.4747 -1.7453  1.3336
 9315TIP3   OH249359   3.170   3.494   3.655  0.4014  0.1721 -1.1102
 9315TIP3    H149360   3.208   3.578   3.629 -0.6943  0.5701 -1.4736
 9315TIP3    H249361   3.230   3.462   3.723 -0.3782  2.3725  0.7847
 9316TIP3   OH249362   0.275   1.921   1.340 -0.4243  0.6137  0.5534
 9316TIP3    H149363   0.357   1.925   1.291 -0.9705 -3.3287 -1.0694
 9316TIP3    H249364   0.284   1.843   1.395 -3.2409 -0.3437 -0.1761
 9317TIP3   OH249365   5.120   5.150  10.587 -0.1613 -0.2736 -0.5920
 9317TIP3    H149366   5.192   5.101  10.548  1.2806  1.2462  0.0681
 9317TIP3    H249367   5.158   5.234  10.612 -2.0570  0.4102  0.2016
 9318TIP3   OH249368   1.277   3.065   3.802  0.0511 -0.2081  0.1041
 9318TIP3    H149369   1.237   2.986   3.764 -0.8927 -0.9780  2.5212
 9318TIP3    H249370   1.334   3.098   3.732 -1.4072 -1.6046 -1.8863
 9319TIP3   OH249371   4.395   4.633   0.969 -0.2163 -0.4223 -0.0061
 9319TIP3    H149372   4.421   4.668   1.054 -0.6319 -0.4467  0.1313
 9319TIP3    H249373   4.371   4.709   0.917 -0.9786 -0.4864  0.2448
 9320TIP3   OH249374   4.577   5.255  12.170  0.0509  0.3353 -0.2055
 9320TIP3    H149375   4.640   5.253  12.098  1.7938  1.3397  1.2096
 9320TIP3    H249376   4.612   5.321  12.231 -0.4045 -1.6157  2.3487
 9321TIP3   OH249377   6.059   4.384   5.620 -0.2916 -0.1326 -0.1654
 9321TIP3    H149378   6.032   4.320   5.686 -0.0847  0.1919  0.2353
 9321TIP3    H249379   6.144   4.352   5.589  1.6384  1.8687  2.6761
 9322TIP3   OH249380   1.552   6.707  12.288  0.1723  0.5668 -0.8589
 9322TIP3    H149381   1.595   6.639  12.338 -0.6819  0.1605 -0.6615
 9322TIP3    H249382   1.460   6.702  12.314 -0.3624  0.1287 -2.6796
 9323TIP3   OH249383   6.399   1.751  10.481  0.3502  0.1058  0.0406
 9323TIP3    H149384   6.341   1.815  10.440  1.3074  0.7815 -0.2822
 9323TIP3    H249385   6.340   1.680  10.509 -0.6834  0.9737  0.1296
 9324TIP3   OH249386   1.357   4.812  13.461 -0.4628  0.1701  0.4410
 9324TIP3    H149387   1.306   4.845  13.387 -0.0562 -1.6199 -0.7016
 9324TIP3    H249388   1.300   4.747  13.502 -0.6893  1.1603  1.7480
 9325TIP3   OH249389   2.629   4.804  12.636  0.0120  0.1342  0.2155
 9325TIP3    H149390   2.534   4.815  12.632 -0.1340 -0.6935  1.0095
 9325TIP3    H249391   2.660   4.877  12.691 -0.1267  0.5796 -0.2983
 9326TIP3   OH249392   3.576   2.886  16.125  0.8834  0.2450  0.0933
 9326TIP3    H149393   3.506   2.884  16.190  0.0893  0.4287 -0.7475
 9326TIP3    H249394   3.622   2.968  16.142 -0.1281  0.9333 -0.4022
 9327TIP3   OH249395   4.161   3.194   4.278  0.1051 -0.5871 -0.0219
 9327TIP3    H149396   4.161   3.288   4.293  0.5677 -0.4942 -0.5575
 9327TIP3    H249397   4.253   3.172   4.264  0.1321 -1.3091  1.2151
 9328TIP3   OH249398   2.691   4.208   3.494  0.3268 -0.0113  0.2817
 9328TIP3    H149399   2.611   4.183   3.541 -0.6017  0.2898 -1.0597
 9328TIP3    H249400   2.662   4.277   3.434  1.4420 -0.3930 -0.7271
 9329TIP3   OH249401   1.641   6.491  15.291 -0.0781 -0.2820 -0.6726
 9329TIP3    H149402   1.644   6.449  15.205 -2.7849 -0.3928 -0.8178
 9329TIP3    H249403   1.591   6.572  15.277  1.0938  0.6858  0.4588
 9330TIP3   OH249404   4.918   5.227   5.774  0.1048 -0.1995 -0.1813
 9330TIP3    H149405   4.924   5.213   5.679 -0.9808 -1.1586 -0.1299
 9330TIP3    H249406   4.836   5.274   5.786  1.0164  1.3730  0.1701
 9331TIP3   OH249407   0.389   3.315  14.653  0.0057  0.4760  0.8686
 9331TIP3    H149408   0.344   3.392  14.619  1.1768  1.2611  1.0311
 9331TIP3    H249409   0.418   3.341  14.741  1.1907  0.1940  0.5820
 9332TIP3   OH249410   2.132   5.757  14.188  0.1965  0.0113 -0.1874
 9332TIP3    H149411   2.129   5.844  14.148 -0.1836 -0.9668 -2.4182
 9332TIP3    H249412   2.207   5.713  14.147 -0.6781 -1.3021 -0.4642
 9333TIP3   OH249413   3.737   1.346  14.462  0.2359 -0.4702  0.1555
 9333TIP3    H149414   3.660   1.382  14.417 -0.1466 -0.0085  1.1500
 9333TIP3    H249415   3.793   1.422  14.476 -0.1687 -0.3918  1.4667
 9334TIP3   OH249416   3.489   0.596  10.435 -0.2538 -0.0980  0.6926
 9334TIP3    H149417   3.482   0.692  10.436 -1.2788 -0.1626  0.9760
 9334TIP3    H249418   3.581   0.579  10.416  0.1937  0.9562  1.7465
 9335TIP3   OH249419   4.624   6.627  15.959 -0.0828 -0.7180 -0.0442
 9335TIP3    H149420   4.575   6.680  16.021  0.4820 -0.6814  0.3750
 9335TIP3    H249421   4.607   6.537  15.985 -1.4040 -0.7889 -1.0291
 9336TIP3   OH249422   3.355   3.174   2.337 -0.5374  0.0928 -0.3424
 9336TIP3    H149423   3.430   3.152   2.393 -2.5791  2.1435  3.6576
 9336TIP3    H249424   3.307   3.092   2.329  1.5688 -1.0778 -2.3419
 9337TIP3   OH249425   4.969   4.767   1.649 -0.0107 -0.0689  0.8434
 9337TIP3    H149426   5.034   4.746   1.581 -2.5415 -1.7438 -1.2565
 9337TIP3    H249427   4.990   4.706   1.721  0.5930 -0.7733  0.0926
 9338TIP3   OH249428   0.964   5.887   3.440 -0.2060 -0.4179  0.6581
 9338TIP3    H149429   0.969   5.982   3.430  0.6836 -0.6137 -0.9437
 9338TIP3    H249430   1.035   5.866   3.500  0.6262 -0.2377 -0.2584
 9339TIP3   OH249431   5.637   6.239  10.999  0.3562 -0.5398  0.3331
 9339TIP3    H149432   5.634   6.186  10.919  1.1350  0.0385 -0.0913
 9339TIP3    H249433   5.545   6.255  11.021  0.1348 -0.8302 -0.3632
 9340TIP3   OH249434   5.680   2.963  12.835  0.6838 -0.3358  0.2677
 9340TIP3    H149435   5.669   2.971  12.930 -0.6516  0.7187  0.0610
 9340TIP3    H249436   5.686   3.054  12.804 -0.9720 -0.5459 -0.8395
 9341TIP3   OH249437   3.933   0.188   5.194 -0.2760  0.3027  0.1745
 9341TIP3    H149438   3.852   0.173   5.146 -0.7064  1.0722  0.6405
 9341TIP3    H249439   4.000   0.196   5.126 -0.5160 -0.6725 -0.2027
 9342TIP3   OH249440   4.558   0.880  16.368  0.3319  0.0469  0.2134
 9342TIP3    H149441   4.635   0.937  16.372  1.2363 -0.9852 -1.3991
 9342TIP3    H249442   4.573   0.815  16.436  0.3743  0.4346  0.5826
 9343TIP3   OH249443   6.609   4.929   1.429 -0.0458 -0.2409 -0.3114
 9343TIP3    H149444   6.616   4.834   1.425 -1.7305 -0.4834  1.1672
 9343TIP3    H249445   6.623   4.950   1.522  0.0750  0.9149 -0.5808
 9344TIP3   OH249446   0.729   4.093  12.304  0.3241  0.0473  0.1174
 9344TIP3    H149447   0.771   4.022  12.256 -2.3623 -1.6734  0.1529
 9344TIP3    H249448   0.706   4.054  12.389 -1.5449  0.8004 -0.0061
 9345TIP3   OH249449   1.504   0.878   5.793 -0.3822  0.0616  0.0547
 9345TIP3    H149450   1.518   0.906   5.883  1.2365 -0.2961 -0.0500
 9345TIP3    H249451   1.513   0.783   5.796  0.8674  0.1360 -0.6510
 9346TIP3   OH249452   1.397   5.780  17.167  0.0683  1.2859  0.6177
 9346TIP3    H149453   1.484   5.815  17.184  0.0653  0.6191  2.1570
 9346TIP3    H249454   1.355   5.776  17.252 -1.3340  1.1976 -0.0419
 9347TIP3   OH249455   0.194   4.723  13.886 -0.3593  0.1228  0.0094
 9347TIP3    H149456   0.280   4.756  13.863  0.1111 -1.1708 -0.1875
 9347TIP3    H249457   0.143   4.730  13.805 -0.9660  2.3921  0.5380
 9348TIP3   OH249458   1.902   5.447   5.370 -0.4343  0.0947 -0.3805
 9348TIP3    H149459   1.889   5.477   5.460 -0.8199 -1.3619  0.0736
 9348TIP3    H249460   1.817   5.411   5.344  0.0530 -0.8052 -0.7970
 9349TIP3   OH249461   1.751   4.272  13.867 -0.2579 -0.3056 -0.4308
 9349TIP3    H149462   1.742   4.200  13.805 -2.1964 -0.9938  0.6002
 9349TIP3    H249463   1.721   4.349  13.819 -1.4311 -0.7780 -0.4735
 9350TIP3   OH249464   3.282   5.861   4.169 -0.1008  0.5552  0.4143
 9350TIP3    H149465   3.196   5.903   4.174 -1.5736 -2.0491 -0.7005
 9350TIP3    H249466   3.326   5.905   4.096 -2.6902 -1.4252 -2.6351
 9351TIP3   OH249467   4.874   2.172  10.878 -0.4735 -0.2710 -0.4463
 9351TIP3    H149468   4.931   2.137  10.948 -1.5756 -0.0741  0.5794
 9351TIP3    H249469   4.902   2.263  10.868  0.8754 -0.7693 -1.5308
 9352TIP3   OH249470   5.732   3.395   5.129 -0.2975 -0.0561 -0.0402
 9352TIP3    H149471   5.688   3.479   5.116 -2.2226 -0.7292  1.6564
 9352TIP3    H249472   5.716   3.346   5.048 -3.6720 -0.6344  0.8244
 9353TIP3   OH249473   5.911   2.946   4.506 -0.4404  0.3818 -0.0869
 9353TIP3    H149474   5.823   2.910   4.524 -0.7685  0.2336 -1.8548
 9353TIP3    H249475   5.963   2.870   4.480 -0.1645  0.6818 -0.4125
 9354TIP3   OH249476   6.591   2.406   1.717 -0.5759 -0.5018  0.0151
 9354TIP3    H149477   6.640   2.336   1.673  0.3901 -0.3533  0.8118
 9354TIP3    H249478   6.599   2.481   1.657  0.5746 -0.3543  0.3163
 9355TIP3   OH249479   1.528   3.291  15.467 -0.1431  0.4890 -0.4740
 9355TIP3    H149480   1.475   3.213  15.481  0.5118  0.2109  0.5263
 9355TIP3    H249481   1.599   3.262  15.411  0.5673  0.1425  0.5760
 9356TIP3   OH249482   5.508   6.248   2.877 -0.4666 -0.6156 -0.0254
 9356TIP3    H149483   5.484   6.156   2.878 -1.2951 -0.4144 -0.4819
 9356TIP3    H249484   5.533   6.265   2.786  0.7863 -0.6593  0.3019
 9357TIP3   OH249485   6.597   2.088  16.824 -0.2379  0.1822 -0.0071
 9357TIP3    H149486   6.566   2.001  16.845 -1.2017  0.8821  1.5829
 9357TIP3    H249487   6.610   2.131  16.908 -0.8677  1.9431 -0.7535
 9358TIP3   OH249488   3.814   0.702  14.898 -0.6057  0.3100 -0.0211
 9358TIP3    H149489   3.897   0.740  14.925 -0.8549  0.3943  0.6637
 9358TIP3    H249490   3.752   0.729  14.966 -1.0038 -0.4684 -0.0570
 9359TIP3   OH249491   1.393   0.844  12.174  0.1286 -0.6131 -0.0230
 9359TIP3    H149492   1.431   0.788  12.242 -0.5860 -0.1480  0.7659
 9359TIP3    H249493   1.447   0.923  12.175 -0.9026  0.1015  1.1864
 9360TIP3   OH249494   4.439   2.314  15.202  0.5148  0.5120  0.4558
 9360TIP3    H149495   4.458   2.399  15.242  1.6694  0.4836  0.0139
 9360TIP3    H249496   4.513   2.298  15.144 -0.8080  0.2822 -1.2637
 9361TIP3   OH249497   3.204   1.224   3.888 -0.1562  0.5799  0.2475
 9361TIP3    H149498   3.131   1.272   3.926 -0.2164  0.3657  0.4055
 9361TIP3    H249499   3.208   1.253   3.797 -1.2770 -0.3798 -0.1367
 9362TIP3   OH249500   3.824   3.034  16.777 -0.0094 -0.5478 -0.3881
 9362TIP3    H149501   3.868   3.014  16.859  0.7037  0.4108 -0.5251
 9362TIP3    H249502   3.895   3.054  16.716 -0.5791 -0.1935 -0.9437
 9363TIP3   OH249503   1.317   3.697  12.924  0.2601 -0.0726 -0.2104
 9363TIP3    H149504   1.223   3.676  12.920 -0.2490  2.1701 -1.5315
 9363TIP3    H249505   1.350   3.674  12.838  0.5648  0.6930 -0.3006
 9364TIP3   OH249506   3.984   2.166  14.956  0.9087  0.0065 -0.0381
 9364TIP3    H149507   4.019   2.082  14.985  2.4475  0.8295  0.6115
 9364TIP3    H249508   3.901   2.144  14.913  2.0269 -2.0238 -1.3357
 9365TIP3   OH249509   0.702   2.749   3.648 -0.2618  0.1830 -0.5263
 9365TIP3    H149510   0.764   2.792   3.589  1.0062  0.4248  0.9172
 9365TIP3    H249511   0.643   2.819   3.677 -1.4670 -0.1093 -2.1504
 9366TIP3   OH249512   3.344   5.288   3.640  0.0658 -0.1026 -0.2873
 9366TIP3    H149513   3.271   5.227   3.649  0.9856 -0.9600  2.6848
 9366TIP3    H249514   3.304   5.374   3.646 -0.9181 -0.4659 -1.2854
 9367TIP3   OH249515   2.095   4.254   3.257 -0.2177  0.2839  0.4871
 9367TIP3    H149516   2.122   4.278   3.346  0.4570  0.4888  0.2280
 9367TIP3    H249517   2.006   4.220   3.268 -0.5067  1.2091  1.1059
 9368TIP3   OH249518   1.244   4.460  10.797  0.1405  0.2752  0.4252
 9368TIP3    H149519   1.311   4.516  10.757 -0.5071  1.3740  0.8262
 9368TIP3    H249520   1.213   4.405  10.725  2.0672 -0.8920  0.4195
 9369TIP3   OH249521   5.074   5.944   0.901 -0.1547  0.4623  0.4101
 9369TIP3    H149522   5.085   5.967   0.809  0.8211 -0.5522  0.2500
 9369TIP3    H249523   5.143   5.992   0.947 -0.3093  0.5596  0.5417
 9370TIP3   OH249524   2.303   2.082   4.350 -0.4578 -0.0752 -0.2812
 9370TIP3    H149525   2.393   2.084   4.315 -0.5333 -0.9624 -0.5622
 9370TIP3    H249526   2.252   2.134   4.288  0.0454  1.3944  0.4872
 9371TIP3   OH249527   3.908   5.774   0.049  0.1425 -0.2379  0.7511
 9371TIP3    H149528   3.972   5.816   0.107  0.4190  1.2485 -0.5716
 9371TIP3    H249529   3.960   5.720  -0.010  0.0023 -0.4819  0.8485
 9372TIP3   OH249530   3.376   3.881  11.339 -0.4640  0.3661  0.9134
 9372TIP3    H149531   3.395   3.816  11.272 -0.9476  1.9213 -0.8327
 9372TIP3    H249532   3.461   3.897  11.382  0.4894  1.2116 -1.1435
 9373TIP3   OH249533   4.214   5.240   2.459 -0.0386 -0.4249  0.0744
 9373TIP3    H149534   4.233   5.284   2.377 -2.5261  2.2216  0.7306
 9373TIP3    H249535   4.239   5.303   2.527 -1.8057 -0.7674  1.1302
 9374TIP3   OH249536   1.192   1.551  15.125  0.2861 -0.7038 -0.4753
 9374TIP3    H149537   1.176   1.611  15.052 -2.5604 -0.3777  0.2817
 9374TIP3    H249538   1.158   1.467  15.094 -1.5336 -0.4221  0.5984
 9375TIP3   OH249539   5.525   6.202   5.412  0.0310 -0.4251  0.1223
 9375TIP3    H149540   5.583   6.146   5.360 -1.2874 -0.8924 -0.8960
 9375TIP3    H249541   5.448   6.215   5.357  0.0427  1.9481  0.5704
 9376TIP3   OH249542   2.687   2.228   3.524  0.2103  0.2896  0.0319
 9376TIP3    H149543   2.603   2.271   3.506  1.4448  2.9037  0.0773
 9376TIP3    H249544   2.725   2.212   3.438  0.0519 -0.0820  0.0305
 9377TIP3   OH249545   0.783   6.307  17.234  0.0614  0.2616 -0.0306
 9377TIP3    H149546   0.845   6.342  17.170  0.1266  0.3160  0.0612
 9377TIP3    H249547   0.802   6.356  17.314 -0.4104  0.6055 -0.1213
 9378TIP3   OH249548   5.242   3.506   3.914  0.6996  0.4600 -0.4353
 9378TIP3    H149549   5.186   3.540   3.845 -1.6391  0.2635  1.2181
 9378TIP3    H249550   5.272   3.421   3.881 -0.0426  0.5438 -1.3673
 9379TIP3   OH249551   0.704   4.663  12.249 -0.0974  0.9739 -0.0827
 9379TIP3    H149552   0.785   4.699  12.214  0.4748 -0.0104  0.1975
 9379TIP3    H249553   0.729   4.579  12.287 -1.1981  0.7814  0.2614
 9380TIP3   OH249554   1.478   1.476   1.124 -0.3736  0.2329 -0.4297
 9380TIP3    H149555   1.394   1.505   1.158  0.3317  2.1897 -0.2448
 9380TIP3    H249556   1.487   1.521   1.040  1.1058  1.2731  0.2367
 9381TIP3   OH249557   0.357   4.875   2.321  0.2460  0.4340  0.1285
 9381TIP3    H149558   0.416   4.812   2.361  0.3695  0.4174 -0.0762
 9381TIP3    H249559   0.395   4.892   2.235 -0.6219 -0.3767 -0.4365
 9382TIP3   OH249560   3.074   0.037  13.676  0.1872  0.2970  0.4018
 9382TIP3    H149561   2.982   0.055  13.657  0.6999  2.2065 -0.4786
 9382TIP3    H249562   3.114   0.019  13.591  0.1802 -3.2889  0.9925
 9383TIP3   OH249563   3.712   0.461  15.536 -0.1675 -0.1974 -0.8589
 9383TIP3    H149564   3.701   0.366  15.540  0.7401 -0.3195 -0.9413
 9383TIP3    H249565   3.628   0.496  15.564 -0.0224 -1.0307  0.7854
 9384TIP3   OH249566   3.302   0.672  15.750  0.0476 -0.4252  0.4129
 9384TIP3    H149567   3.256   0.728  15.812  1.2056 -0.8820  1.7117
 9384TIP3    H249568   3.380   0.722  15.725 -1.7181  1.0331 -2.9730
 9385TIP3   OH249569   1.430   4.391  15.915  0.2292 -0.4258  0.5300
 9385TIP3    H149570   1.359   4.424  15.970  1.3850  1.0638  1.1794
 9385TIP3    H249571   1.421   4.440  15.833 -0.3132 -1.2541  0.0752
 9386TIP3   OH249572   3.122   2.653  15.663  0.7944 -0.3594 -0.1465
 9386TIP3    H149573   3.139   2.612  15.748 -3.1189 -0.9500  0.5494
 9386TIP3    H249574   3.104   2.580  15.604  1.3959  0.1351 -0.9595
 9387TIP3   OH249575   4.228   1.564  12.277 -0.6586 -0.1019 -0.1270
 9387TIP3    H149576   4.292   1.501  12.311  0.7535  1.1909 -0.2312
 9387TIP3    H249577   4.172   1.585  12.352 -0.0228 -0.1809  0.3805
 9388TIP3   OH249578   6.081   1.380   1.381  0.0536  0.0641  0.2417
 9388TIP3    H149579   6.032   1.447   1.430  0.0466 -0.2750  0.7050
 9388TIP3    H249580   6.014   1.326   1.340 -0.0215 -0.9597  1.6175
 9389TIP3   OH249581   5.146   1.605   0.437  0.1415  0.4156 -0.2926
 9389TIP3    H149582   5.066   1.557   0.453  0.5432 -0.1158  0.1425
 9389TIP3    H249583   5.124   1.666   0.366 -0.3994 -0.3312 -0.7750
 9390TIP3   OH249584   4.025   3.059   5.343 -0.0718 -0.0668  0.2340
 9390TIP3    H149585   4.055   2.973   5.373  1.6571  0.5422  0.3122
 9390TIP3    H249586   4.080   3.079   5.268 -1.2894  0.4559 -0.5382
 9391TIP3   OH249587   0.336   5.585   3.300  0.3124  0.2138  0.4422
 9391TIP3    H149588   0.328   5.522   3.373  1.6443 -0.7453 -0.1879
 9391TIP3    H249589   0.430   5.606   3.298  0.0537  1.3644 -0.0892
 9392TIP3   OH249590   5.694   4.182   2.418  0.0985 -0.1372 -0.7093
 9392TIP3    H149591   5.662   4.270   2.400 -1.0906 -0.4238 -0.0905
 9392TIP3    H249592   5.668   4.164   2.509  1.9727 -0.4323 -0.1842
 9393TIP3   OH249593   4.663   3.368   6.603 -0.5546  0.2904  0.2162
 9393TIP3    H149594   4.587   3.310   6.608  0.0475 -0.5962 -0.7212
 9393TIP3    H249595   4.639   3.443   6.658 -1.5339 -0.6144  1.0675
 9394TIP3   OH249596   6.092   4.331  15.990 -0.0513  0.8168 -0.0900
 9394TIP3    H149597   6.083   4.291  16.077  1.8661 -0.4121 -0.4023
 9394TIP3    H249598   6.183   4.314  15.965 -0.6091  0.9474 -2.4384
 9395TIP3   OH249599   5.280   4.533  12.202 -0.2573  0.3430  0.3210
 9395TIP3    H149600   5.371   4.533  12.174  0.1922 -1.6108  1.5756
 9395TIP3    H249601   5.261   4.625  12.224  0.2102  1.4640 -3.3811
 9396TIP3   OH249602   1.753   5.083   0.238 -0.0927 -0.2615  1.0165
 9396TIP3    H149603   1.728   4.991   0.252  0.2864 -0.9704 -2.1607
 9396TIP3    H249604   1.669   5.130   0.234 -0.5035 -1.0577 -0.4676
 9397TIP3   OH249605   5.693   1.776  15.898 -0.1554 -0.1098 -0.0322
 9397TIP3    H149606   5.618   1.834  15.880 -0.7970 -0.8686  0.1610
 9397TIP3    H249607   5.654   1.691  15.917  0.7573 -0.4880  0.2042
 9398TIP3   OH249608   1.958   3.736   2.380 -0.4309 -0.1958  0.5105
 9398TIP3    H149609   2.038   3.733   2.432 -0.6698 -1.6580  0.8284
 9398TIP3    H249610   1.936   3.644   2.364 -1.6154  0.1973 -0.2391
 9399TIP3   OH249611   1.442   6.049   1.507  0.4279 -0.3125  0.2471
 9399TIP3    H149612   1.351   6.031   1.484  0.2330  2.1809 -1.3369
 9399TIP3    H249613   1.448   6.029   1.600 -1.9775  0.2751  0.5971
 9400TIP3   OH249614   4.381   5.427   2.337 -0.1941 -0.3468 -0.0259
 9400TIP3    H149615   4.453   5.367   2.316  0.4332 -0.0839  1.3000
 9400TIP3    H249616   4.424   5.508   2.365 -0.9783  1.5150 -3.5401
 9401TIP3   OH249617   4.150   2.939  14.875  0.0311  0.2543  0.2018
 9401TIP3    H149618   4.179   2.952  14.784 -2.2258 -0.9964 -0.7697
 9401TIP3    H249619   4.101   3.018  14.896  0.6952  0.6186  0.4328
 9402TIP3   OH249620   5.434   2.698  13.022 -0.3775  0.5039  0.0969
 9402TIP3    H149621   5.377   2.630  13.059  2.3718 -0.3837  3.2281
 9402TIP3    H249622   5.423   2.772  13.082  0.6804  0.8089 -0.0802
 9403TIP3   OH249623   0.919   4.349   4.142  0.2833 -0.1268  0.0573
 9403TIP3    H149624   0.923   4.392   4.228 -0.1930 -0.0672  0.0532
 9403TIP3    H249625   1.004   4.367   4.102  0.4228  0.0371  0.4280
 9404TIP3   OH249626   3.117   6.360   4.616  0.6334  0.1525  0.0552
 9404TIP3    H149627   3.194   6.317   4.579  1.2912 -0.4862  2.0561
 9404TIP3    H249628   3.153   6.431   4.669 -0.0197 -1.0492  2.1956
 9405TIP3   OH249629   4.734   2.114   2.122 -0.1075  0.5331 -0.2991
 9405TIP3    H149630   4.648   2.129   2.082 -0.7488  3.1296  1.7402
 9405TIP3    H249631   4.726   2.152   2.210  2.4547 -1.2150  0.8066
 9406TIP3   OH249632   6.552   4.650   5.907  0.2941 -0.0900  0.3705
 9406TIP3    H149633   6.576   4.719   5.969 -0.8129 -0.6408  1.4528
 9406TIP3    H249634   6.463   4.625   5.931  0.3371 -1.2879 -0.5714
 9407TIP3   OH249635   3.590   3.782   4.426  0.0581 -0.1257  0.0047
 9407TIP3    H149636   3.546   3.849   4.477  0.2591 -0.2837  0.3880
 9407TIP3    H249637   3.661   3.829   4.381  1.3599 -0.3792  1.6920
 9408TIP3   OH249638   2.364   5.564   1.237 -0.2197 -0.3451 -0.0016
 9408TIP3    H149639   2.339   5.475   1.211 -1.1713  0.5325 -2.3256
 9408TIP3    H249640   2.428   5.590   1.171  0.0332  0.7106  0.6511
 9409TIP3   OH249641   2.987   0.060   3.979 -0.3078 -0.6972 -0.6261
 9409TIP3    H149642   2.955  -0.007   3.919  3.5816 -0.5904 -3.1501
 9409TIP3    H249643   3.049   0.013   4.036 -1.0097 -0.0357  0.7377
 9410TIP3   OH249644   0.062   0.446   4.336 -0.1332 -0.1460  0.0021
 9410TIP3    H149645   0.099   0.366   4.301  0.0870 -0.0201 -0.0575
 9410TIP3    H249646   0.037   0.497   4.259 -0.8316 -0.4156  0.0497
 9411TIP3   OH249647   1.461   4.870  15.271  0.1851 -0.3189  0.1139
 9411TIP3    H149648   1.407   4.913  15.337  1.2410  0.5014  0.4727
 9411TIP3    H249649   1.494   4.791  15.314 -2.5073 -2.0991 -0.8454
 9412TIP3   OH249650   1.006   2.578  10.789  0.1180 -0.2870 -0.0666
 9412TIP3    H149651   0.945   2.571  10.715  0.7505 -0.4136 -0.5845
 9412TIP3    H249652   1.036   2.489  10.803  0.7082 -0.1231 -0.2667
 9413TIP3   OH249653   4.555   0.639  14.629 -0.5183  0.0478 -0.4770
 9413TIP3    H149654   4.622   0.604  14.570 -1.5927 -0.5249 -1.3902
 9413TIP3    H249655   4.598   0.640  14.714  0.9433  0.5191 -1.1750
 9414TIP3   OH249656   1.898   1.580   4.128 -0.0693 -0.0084 -0.6368
 9414TIP3    H149657   1.956   1.650   4.157  0.6709 -0.6604 -0.5245
 9414TIP3    H249658   1.823   1.585   4.188  0.6518 -0.2397  0.3042
 9415TIP3   OH249659   5.478   0.870  11.873  0.6749 -0.2571 -0.2121
 9415TIP3    H149660   5.391   0.896  11.906 -0.1559  0.6606 -2.8684
 9415TIP3    H249661   5.474   0.775  11.868 -0.1133 -0.2415 -0.0883
 9416TIP3   OH249662   0.162   5.715  17.069 -0.2170 -0.2498 -0.7851
 9416TIP3    H149663   0.158   5.625  17.034 -0.4929 -0.5871  0.0940
 9416TIP3    H249664   0.250   5.722  17.107  0.2296  0.2502 -1.8626
 9417TIP3   OH249665   5.573   5.168   4.161  0.3084 -0.1275  0.2544
 9417TIP3    H149666   5.574   5.219   4.243  0.8334 -0.0220  0.1904
 9417TIP3    H249667   5.481   5.147   4.147 -0.1201  1.8906 -0.3862
 9418TIP3   OH249668   2.331   3.503   0.329  0.2615  0.0932 -0.4563
 9418TIP3    H149669   2.347   3.589   0.292  0.8185  0.3666  0.3905
 9418TIP3    H249670   2.404   3.489   0.390  0.3471 -1.1076 -0.8133
 9419TIP3   OH249671   3.211   3.186   1.135  0.5459 -0.2986  0.4536
 9419TIP3    H149672   3.218   3.153   1.046  1.5719 -0.9572  0.7685
 9419TIP3    H249673   3.116   3.196   1.149  0.3960  2.4972 -1.6404
 9420TIP3   OH249674   1.908   2.772   4.699 -0.1244 -0.7023  0.0998
 9420TIP3    H149675   1.980   2.725   4.741 -1.3095 -0.6137  2.3729
 9420TIP3    H249676   1.909   2.859   4.740 -0.3932 -0.0561 -1.2022
 9421TIP3   OH249677   0.572   2.389  15.738 -0.0656  0.1845  0.0115
 9421TIP3    H149678   0.594   2.481  15.728 -1.0664  0.4342  0.0997
 9421TIP3    H249679   0.522   2.384  15.819 -0.5214 -0.3458 -0.2964
 9422TIP3   OH249680   5.079   5.769   5.631 -0.3430 -0.3213 -0.2704
 9422TIP3    H149681   5.116   5.728   5.709  0.5009 -1.6312 -1.3033
 9422TIP3    H249682   5.036   5.697   5.584  0.0302  0.2106 -1.4854
 9423TIP3   OH249683   1.855   3.893   4.385 -0.3374  0.4333  0.4257
 9423TIP3    H149684   1.943   3.887   4.346 -0.6968 -0.1873 -0.3158
 9423TIP3    H249685   1.849   3.983   4.416  1.1487  0.0734  1.9086
 9424TIP3   OH249686   4.349   0.150   0.275 -0.1580 -0.0888 -0.2239
 9424TIP3    H149687   4.367   0.180   0.364 -2.7559 -0.2958  0.4556
 9424TIP3    H249688   4.337   0.055   0.284  1.4258 -0.4214 -1.1789
 9425TIP3   OH249689   5.635   1.161   5.360 -0.4177 -0.3743 -0.2431
 9425TIP3    H149690   5.660   1.245   5.398 -1.5319 -0.6909  1.2335
 9425TIP3    H249691   5.699   1.099   5.394 -0.1450 -0.2986 -0.6055
 9426TIP3   OH249692   2.898   5.484  16.090  0.1189  0.3393  0.3320
 9426TIP3    H149693   2.925   5.565  16.046 -1.2803  0.6274 -0.0398
 9426TIP3    H249694   2.810   5.467  16.056  0.1647 -1.0229  0.8572
 9427TIP3   OH249695   3.232   5.326  11.637  0.7172 -0.2111 -0.1330
 9427TIP3    H149696   3.210   5.265  11.707  0.9769  0.7369  0.7947
 9427TIP3    H249697   3.162   5.315  11.573  1.2852 -2.1847 -0.4677
 9428TIP3   OH249698   5.710   2.320   2.371  0.3407 -0.2883  0.5299
 9428TIP3    H149699   5.797   2.343   2.404  1.9296 -2.4338 -1.7355
 9428TIP3    H249700   5.677   2.400   2.331  1.4660  0.4650  1.0676
 9429TIP3   OH249701   3.286   1.322  14.321 -0.1792 -0.0130  0.2549
 9429TIP3    H149702   3.331   1.407  14.323  1.4389 -0.8296  0.6833
 9429TIP3    H249703   3.331   1.274  14.252 -0.6184 -0.7715  0.4941
 9430TIP3   OH249704   4.872   2.120   4.407 -0.3046  0.4581 -0.0785
 9430TIP3    H149705   4.798   2.176   4.383 -1.6915  0.1363  2.9696
 9430TIP3    H249706   4.840   2.069   4.481  1.4318 -3.2748 -1.6420
 9431TIP3   OH249707   2.334   6.550   5.664 -0.3858  0.3598 -0.1715
 9431TIP3    H149708   2.363   6.471   5.618 -1.6462 -0.6405  0.6866
 9431TIP3    H249709   2.414   6.587   5.701  0.3141 -0.1338 -1.1258
 9432TIP3   OH249710   0.953   3.124   2.882  0.0035 -0.3670  0.0644
 9432TIP3    H149711   0.899   3.150   2.808  1.6431 -1.2047 -1.4920
 9432TIP3    H249712   0.940   3.193   2.947 -1.0843  0.6403 -1.1843
 9433TIP3   OH249713   4.956   3.414  12.710 -0.1724  0.0674  0.6293
 9433TIP3    H149714   4.990   3.500  12.733 -2.3923  1.0276  0.5606
 9433TIP3    H249715   4.927   3.376  12.794 -0.4733 -0.0277  0.4831
 9434TIP3   OH249716   0.153   3.877   6.384 -0.6548 -0.6339  0.0466
 9434TIP3    H149717   0.176   3.899   6.474  0.1076 -0.7504 -0.1155
 9434TIP3    H249718   0.057   3.877   6.383 -0.6920  0.8934  0.4948
 9435TIP3   OH249719   6.643   2.104   5.378 -0.3548 -0.3231 -0.3636
 9435TIP3    H149720   6.706   2.085   5.308  0.0296  0.3680 -0.2162
 9435TIP3    H249721   6.695   2.109   5.458 -0.6518 -0.1626 -0.1752
 9436TIP3   OH249722   5.681   5.671   2.827 -0.3236 -0.3873 -0.5458
 9436TIP3    H149723   5.649   5.639   2.912  1.0729  0.0449  0.1779
 9436TIP3    H249724   5.612   5.646   2.765 -0.2949 -2.8957  0.3006
 9437TIP3   OH249725   4.860   6.572   1.076 -0.2234 -0.0207  0.1549
 9437TIP3    H149726   4.857   6.654   1.026 -0.3604  0.3782  0.8060
 9437TIP3    H249727   4.820   6.594   1.160  1.5510 -0.2366  1.0890
 9438TIP3   OH249728   0.289   1.524   3.585 -0.6426 -0.2387  0.3966
 9438TIP3    H149729   0.303   1.593   3.649  0.6569  0.5635 -0.6791
 9438TIP3    H249730   0.256   1.449   3.635 -1.4033  0.9293  1.6859
 9439TIP3   OH249731   2.849   1.220  14.462  0.1199 -0.1302 -0.1469
 9439TIP3    H149732   2.782   1.155  14.483 -0.1317  0.5332  1.2117
 9439TIP3    H249733   2.800   1.299  14.438  0.4156  0.0504 -0.1623
 9440TIP3   OH249734   1.342   4.577  12.547 -0.1361  0.8426 -0.0848
 9440TIP3    H149735   1.342   4.643  12.478  2.6362  2.9098  1.6504
 9440TIP3    H249736   1.272   4.605  12.606 -0.5590  0.7943 -0.5549
 9441TIP3   OH249737   1.376   0.736  14.173 -0.7011 -0.2489  0.4341
 9441TIP3    H149738   1.466   0.752  14.144 -1.4369 -1.1011 -2.7262
 9441TIP3    H249739   1.336   0.822  14.174 -0.0993  0.0333  0.9588
 9442TIP3   OH249740   5.446   2.362  13.102 -0.5303  0.0352  0.5215
 9442TIP3    H149741   5.522   2.393  13.052 -1.7719  0.6748 -1.0644
 9442TIP3    H249742   5.479   2.288  13.153  1.5891  1.4597  1.3633
 9443TIP3   OH249743   0.088   3.921   6.012  0.6042  0.0866 -0.0437
 9443TIP3    H149744   0.076   3.904   5.918  2.4295 -1.8326  0.0069
 9443TIP3    H249745   0.171   3.968   6.018 -0.4391  1.9894  0.5324
 9444TIP3   OH249746   5.229   2.169  11.192  0.4666  0.0261  0.0815
 9444TIP3    H149747   5.249   2.262  11.180  0.5731 -0.0631 -0.5101
 9444TIP3    H249748   5.273   2.145  11.273  0.6815  0.4282  0.0890
 9445TIP3   OH249749   2.869   0.283  11.682 -0.2683 -0.2649  0.3385
 9445TIP3    H149750   2.857   0.237  11.599 -1.4445  1.5552 -0.5877
 9445TIP3    H249751   2.819   0.233  11.746  0.2446 -1.4193 -0.1429
 9446TIP3   OH249752   1.649   1.311   5.386 -0.3336  0.3789  0.3211
 9446TIP3    H149753   1.634   1.310   5.292 -0.0454 -1.3037  0.2605
 9446TIP3    H249754   1.706   1.386   5.400  0.2139  0.2278 -0.9576
 9447TIP3   OH249755   1.195   1.840   1.903  0.0152 -0.4590 -0.1497
 9447TIP3    H149756   1.160   1.757   1.871 -1.3329  0.6305 -1.6302
 9447TIP3    H249757   1.163   1.847   1.993 -1.2999 -0.7535 -0.5826
 9448TIP3   OH249758   3.625   0.602  11.843 -0.3755 -0.0007 -0.5688
 9448TIP3    H149759   3.656   0.681  11.798  0.2587 -0.1635 -0.4329
 9448TIP3    H249760   3.672   0.530  11.800  2.7175  0.0434  2.2711
 9449TIP3   OH249761   1.413   4.021  17.212  0.3746  0.2587 -0.1381
 9449TIP3    H149762   1.387   4.091  17.152  1.4393  1.0170  0.2609
 9449TIP3    H249763   1.491   3.983  17.172  1.6502  1.3858  1.1866
 9450TIP3   OH249764   0.829   5.242   6.111 -0.0177 -0.1134  0.9939
 9450TIP3    H149765   0.780   5.200   6.182  1.5243  1.3949  3.0800
 9450TIP3    H249766   0.916   5.203   6.115 -0.3903 -1.3220 -1.3566
 9451TIP3   OH249767   1.652   0.701  17.006  0.3485  0.0005  0.4286
 9451TIP3    H149768   1.641   0.780  17.058 -4.1175  0.5870 -1.0432
 9451TIP3    H249769   1.651   0.731  16.915 -0.7665 -1.6503 -0.1447
 9452TIP3   OH249770   4.521   6.364  15.825 -0.1915  0.0067  0.3625
 9452TIP3    H149771   4.533   6.373  15.730 -0.5420 -0.7697  0.2359
 9452TIP3    H249772   4.433   6.399  15.841 -0.3535 -0.3765  0.3163
 9453TIP3   OH249773   6.174   1.382  12.594  0.2228 -0.2227  0.2502
 9453TIP3    H149774   6.167   1.435  12.673 -0.3005 -1.1410  0.8346
 9453TIP3    H249775   6.248   1.419  12.546 -1.2672  2.2454 -0.2994
 9454TIP3   OH249776   3.212   2.587   1.412  0.3063 -0.4681 -0.4920
 9454TIP3    H149777   3.171   2.670   1.433  1.4813  0.0004  0.0065
 9454TIP3    H249778   3.170   2.560   1.330  0.0516  0.7044 -0.7652
 9455TIP3   OH249779   4.233   4.526   4.902  0.5839  0.2724  0.0221
 9455TIP3    H149780   4.258   4.438   4.874  0.3793  0.6681 -1.5368
 9455TIP3    H249781   4.286   4.584   4.847 -0.3717  1.1106 -0.0540
 9456TIP3   OH249782   0.443   6.479  14.009 -0.6783 -0.0077 -0.1802
 9456TIP3    H149783   0.423   6.388  14.029 -0.7030 -0.3718 -1.7172
 9456TIP3    H249784   0.381   6.530  14.062 -0.5904 -0.8590  0.7690
 9457TIP3   OH249785   3.741   1.615  13.614  0.4260 -0.1991 -0.4197
 9457TIP3    H149786   3.666   1.647  13.564  0.8925  0.0492 -0.9765
 9457TIP3    H249787   3.769   1.535  13.568  0.4241 -0.3543 -0.1488
 9458TIP3   OH249788   4.961   5.005   2.466 -0.2585  0.8416  0.4292
 9458TIP3    H149789   4.958   4.910   2.482 -2.2961  0.4663 -1.7412
 9458TIP3    H249790   5.054   5.027   2.471  0.4739 -1.6378 -0.8254
 9459TIP3   OH249791   0.406   2.209   3.204  0.3499 -0.5508  0.1419
 9459TIP3    H149792   0.423   2.173   3.117  0.3923  0.2210 -0.1712
 9459TIP3    H249793   0.317   2.244   3.199  1.0128  1.1876 -0.1806
 9460TIP3   OH249794   1.744   5.917   2.626  0.1295 -0.6246  0.6067
 9460TIP3    H149795   1.814   5.871   2.579 -0.4654  0.0004 -0.9514
 9460TIP3    H249796   1.672   5.854   2.630  0.3633 -0.8622  1.1741
 9461TIP3   OH249797   5.200   3.450   0.301  0.5973  0.4348  0.2683
 9461TIP3    H149798   5.231   3.539   0.320 -0.0128  0.4038  1.5562
 9461TIP3    H249799   5.276   3.394   0.314  0.5915  0.6062  1.1429
 9462TIP3   OH249800   2.795   4.884  17.250 -0.3813 -0.0265  0.3230
 9462TIP3    H149801   2.889   4.899  17.238 -0.4138 -0.4428 -0.5220
 9462TIP3    H249802   2.753   4.953  17.200 -0.5171 -0.9597 -0.9060
 9463TIP3   OH249803   3.464   5.113   2.220  0.3258 -0.3603  0.5258
 9463TIP3    H149804   3.391   5.097   2.161  1.0399 -0.9250 -0.2141
 9463TIP3    H249805   3.422   5.133   2.304 -0.6716 -0.7435  0.1350
 9464TIP3   OH249806   0.172   3.312   3.266 -0.6116 -0.4008  0.0903
 9464TIP3    H149807   0.215   3.360   3.195 -0.9796  1.3059  0.9831
 9464TIP3    H249808   0.244   3.282   3.322 -0.2008 -2.9585 -1.6284
 9465TIP3   OH249809   2.461   4.168   1.182 -0.2310  0.3174 -0.3403
 9465TIP3    H149810   2.376   4.133   1.212  0.1623 -1.1317 -0.8127
 9465TIP3    H249811   2.443   4.201   1.094 -0.2033 -0.4752 -0.6502
 9466TIP3   OH249812   1.544   0.469  14.797  0.2318  0.4294  0.2418
 9466TIP3    H149813   1.562   0.543  14.856  0.7089  1.3242 -0.9879
 9466TIP3    H249814   1.466   0.495  14.748 -0.1958 -0.3318  0.4950
 9467TIP3   OH249815   3.188   1.580   0.931  0.5464 -0.0601  0.1963
 9467TIP3    H149816   3.207   1.673   0.939  0.7427 -0.1402  0.7465
 9467TIP3    H249817   3.119   1.564   0.995  0.1004 -0.1846 -0.3062
 9468TIP3   OH249818   0.204   1.196   1.667  0.1701 -0.3248  0.7801
 9468TIP3    H149819   0.240   1.279   1.698 -0.5849 -0.4480  2.0425
 9468TIP3    H249820   0.257   1.129   1.710  0.2341 -0.4995  0.4312
 9469TIP3   OH249821   5.985   5.984  13.611 -0.3989 -0.1428  0.3856
 9469TIP3    H149822   5.906   5.986  13.665 -0.4351 -2.3660  0.4891
 9469TIP3    H249823   6.053   5.949  13.668 -0.3215 -2.0714 -0.8205
 9470TIP3   OH249824   2.856   0.413   2.807  0.1745 -0.8565  0.1883
 9470TIP3    H149825   2.945   0.410   2.773  0.0072 -2.3179 -0.1904
 9470TIP3    H249826   2.855   0.349   2.879 -0.8647 -1.8268 -0.6399
 9471TIP3   OH249827   4.515   2.128  17.083 -0.1032 -1.2606 -0.9915
 9471TIP3    H149828   4.507   2.139  16.988  3.3723 -0.1322 -1.3118
 9471TIP3    H249829   4.589   2.068  17.093  2.0488  1.4455  0.8756
 9472TIP3   OH249830   6.763   6.468   5.462  0.1633  0.3055 -0.0629
 9472TIP3    H149831   6.722   6.533   5.520 -3.1959 -1.5883 -0.0855
 9472TIP3    H249832   6.780   6.393   5.519 -0.3806 -0.4856 -0.9232
 9473TIP3   OH249833   2.188   0.842  17.210  0.4079  0.1030 -0.0432
 9473TIP3    H149834   2.137   0.922  17.194 -1.5514 -1.0306  0.3153
 9473TIP3    H249835   2.173   0.822  17.302  0.0478 -1.2277 -0.3786
 9474TIP3   OH249836   6.209   3.419   4.229 -0.2854  0.2363  0.0812
 9474TIP3    H149837   6.178   3.354   4.293  0.1366  1.0676  1.1506
 9474TIP3    H249838   6.130   3.466   4.203 -0.3041  0.7147  0.9470
 9475TIP3   OH249839   0.677   5.469   0.026 -0.8081 -1.0155  0.2148
 9475TIP3    H149840   0.614   5.541   0.026 -0.8337 -0.9650 -2.0003
 9475TIP3    H249841   0.758   5.508   0.057 -1.4135 -0.6356  1.3471
 9476TIP3   OH249842   6.232   3.020   2.174  0.1213  0.2393  0.6319
 9476TIP3    H149843   6.302   2.970   2.134 -1.6508 -0.0541 -2.3966
 9476TIP3    H249844   6.261   3.111   2.170  0.9752 -0.0137  0.9473
 9477TIP3   OH249845   0.180   5.872  15.126  0.7464  0.5131  0.1288
 9477TIP3    H149846   0.258   5.827  15.094 -0.4817 -2.1770  0.6735
 9477TIP3    H249847   0.129   5.804  15.170 -1.8015  2.2209  0.0401
 9478TIP3   OH249848   4.892   4.217   1.407  0.6537 -0.2495  0.1583
 9478TIP3    H149849   4.883   4.301   1.362 -0.0298 -0.7548 -0.6763
 9478TIP3    H249850   4.835   4.157   1.358  3.1915 -1.9193 -0.9899
 9479TIP3   OH249851   0.522   4.282  15.630  0.4193  0.1028 -0.3269
 9479TIP3    H149852   0.580   4.220  15.586 -0.6900 -1.9570  0.9317
 9479TIP3    H249853   0.581   4.346  15.670  1.9374 -2.1043  1.2069
 9480TIP3   OH249854   1.697   0.036  16.673  0.0931  0.3928 -0.1224
 9480TIP3    H149855   1.640  -0.008  16.610  0.1123  1.0389 -0.6048
 9480TIP3    H249856   1.643   0.104  16.712  1.0237  2.3360 -2.0221
 9481TIP3   OH249857   1.782   3.291   0.740 -0.0865 -0.3214  0.1011
 9481TIP3    H149858   1.860   3.236   0.729 -0.6673 -0.9616 -1.0393
 9481TIP3    H249859   1.783   3.315   0.832  0.8179 -1.3006  0.3767
 9482TIP3   OH249860   3.024   5.541  12.905 -0.2240  0.4197 -0.0348
 9482TIP3    H149861   3.082   5.482  12.954 -0.4140  1.1119  1.0539
 9482TIP3    H249862   2.990   5.487  12.834  0.6473 -0.4013  0.1430
 9483TIP3   OH249863   4.728   0.910   4.015  0.5169  0.2077 -0.3503
 9483TIP3    H149864   4.791   0.972   4.051  1.5010 -1.5776  1.1640
 9483TIP3    H249865   4.742   0.915   3.920  0.3908  2.4146 -0.3111
 9484TIP3   OH249866   5.214   6.210  15.515 -0.6139  0.3279  0.2711
 9484TIP3    H149867   5.189   6.135  15.568  0.0338  0.3588  0.6334
 9484TIP3    H249868   5.309   6.204  15.507 -0.7309  0.0288 -1.3516
 9485TIP3   OH249869   0.705   5.136   0.968 -0.2080 -0.4125  0.2707
 9485TIP3    H149870   0.632   5.193   0.942 -1.2532 -1.6546  0.3866
 9485TIP3    H249871   0.711   5.147   1.063  0.1419  0.1196  0.1918
 9486TIP3   OH249872   2.982   2.977  16.693 -0.3961 -0.4907 -0.3589
 9486TIP3    H149873   2.975   2.901  16.636  0.0078 -0.0627 -0.9843
 9486TIP3    H249874   2.927   2.955  16.769  0.7911 -1.9853  0.1247
 9487TIP3   OH249875   2.900   0.804  12.316  0.4459  0.2520  0.1453
 9487TIP3    H149876   2.875   0.713  12.334  2.1479 -0.3023 -0.0787
 9487TIP3    H249877   2.984   0.797  12.271  0.7632  1.9609  0.4064
 9488TIP3   OH249878   3.842   5.411   2.729 -0.7757  0.0195  0.1928
 9488TIP3    H149879   3.870   5.415   2.821  0.1907 -2.4949  0.0793
 9488TIP3    H249880   3.771   5.475   2.723 -1.3742 -0.2769  2.8855
 9489TIP3   OH249881   2.482   5.599  16.157  0.5299  1.5238 -0.3344
 9489TIP3    H149882   2.500   5.665  16.224 -0.7793  1.6704 -0.0995
 9489TIP3    H249883   2.481   5.516  16.205  0.5532  1.5207 -0.3398
 9490TIP3   OH249884   4.115   5.193   0.048 -0.2063 -0.3524 -0.2653
 9490TIP3    H149885   4.157   5.250   0.113 -0.4016 -0.1335 -0.3303
 9490TIP3    H249886   4.175   5.195  -0.027 -1.5111  1.9784 -1.3436
 9491TIP3   OH249887   1.561   3.814   0.287  0.0072 -0.0477  1.0345
 9491TIP3    H149888   1.533   3.841   0.374 -0.1321 -1.3333  1.4023
 9491TIP3    H249889   1.648   3.854   0.277 -0.4174  0.9890  1.3171
 9492TIP3   OH249890   1.586   5.850  14.709 -0.2263 -0.0337 -0.2346
 9492TIP3    H149891   1.535   5.811  14.638  1.8550 -0.5607 -1.5293
 9492TIP3    H249892   1.677   5.844  14.679  0.5155  2.0505  1.3844
 9493TIP3   OH249893   5.043   3.313  11.736  0.4391 -0.7902 -0.5898
 9493TIP3    H149894   5.056   3.326  11.642  1.9694  0.5742 -0.2478
 9493TIP3    H249895   5.062   3.220  11.751 -1.4181 -1.4067 -1.8288
 9494TIP3   OH249896   5.451   0.048   3.094 -0.2987 -0.7868  0.3026
 9494TIP3    H149897   5.456   0.069   3.001  0.1881 -0.1316  0.4732
 9494TIP3    H249898   5.514  -0.023   3.106  0.9327  0.2924  0.4440
 9495TIP3   OH249899   3.935   0.691   2.008  0.1407  0.0636  0.2302
 9495TIP3    H149900   4.025   0.723   2.002  0.6153 -0.8434  1.8371
 9495TIP3    H249901   3.887   0.762   2.051  0.3381  0.0879  0.4096
 9496TIP3   OH249902   0.740   0.666   5.334 -0.1967 -0.5915  0.0685
 9496TIP3    H149903   0.761   0.643   5.424 -0.4596 -1.3401 -0.0523
 9496TIP3    H249904   0.652   0.704   5.338 -0.3200 -0.8818  0.0892
 9497TIP3   OH249905   1.641   0.694   1.866 -0.0037 -0.7120 -0.1375
 9497TIP3    H149906   1.646   0.748   1.945  0.5482 -1.3996  0.3035
 9497TIP3    H249907   1.705   0.625   1.880  2.0678  0.6184 -2.3068
 9498TIP3   OH249908   6.730   5.099  12.737 -0.6842 -0.2318  0.4302
 9498TIP3    H149909   6.646   5.063  12.708 -0.5920  0.0561 -0.2325
 9498TIP3    H249910   6.731   5.188  12.702  0.6415 -0.7986 -1.1151
 9499TIP3   OH249911   3.471   5.082   1.099 -0.4867 -0.3195  0.0582
 9499TIP3    H149912   3.557   5.101   1.138  0.1174 -1.9114 -0.4618
 9499TIP3    H249913   3.482   5.101   1.006  0.5201 -4.0316 -0.7382
 9500TIP3   OH249914   3.191   3.343  10.806 -0.0041 -0.5001 -0.3438
 9500TIP3    H149915   3.229   3.268  10.761  0.4308 -0.0033 -0.8171
 9500TIP3    H249916   3.196   3.415  10.742  0.0922  0.0733  0.2910
 9501TIP3   OH249917   2.187   3.675   0.098  0.3327 -0.2576  0.1507
 9501TIP3    H149918   2.186   3.718   0.013  1.5906  0.3390  0.4073
 9501TIP3    H249919   2.194   3.582   0.078  1.3306 -0.0756 -0.4251
 9502TIP3   OH249920   3.775   1.703  11.924 -0.3994  0.4726 -0.2162
 9502TIP3    H149921   3.818   1.658  11.852 -0.8689 -0.6831  0.1880
 9502TIP3    H249922   3.846   1.727  11.983 -0.2368 -1.5638  0.5269
 9503TIP3   OH249923   6.253   1.444  12.075 -0.2531 -0.0819 -0.9447
 9503TIP3    H149924   6.282   1.450  11.984 -2.3147  0.4268 -1.6231
 9503TIP3    H249925   6.303   1.512  12.120 -0.5402  0.9434 -2.1054
 9504TIP3   OH249926   0.795   2.012   2.211  0.3470 -0.5535  0.3867
 9504TIP3    H149927   0.727   2.077   2.229  0.8809  0.1824 -0.2289
 9504TIP3    H249928   0.830   1.989   2.297  2.2139  2.2111  0.4935
 9505TIP3   OH249929   1.097   0.943   5.581 -0.1834 -0.4893  0.1080
 9505TIP3    H149930   1.046   0.890   5.519 -0.0391 -0.6503  0.1263
 9505TIP3    H249931   1.066   1.033   5.567  0.0298 -0.4885 -0.3729
 9506TIP3   OH249932   4.257   4.982  12.367 -0.4101 -0.2678  0.2598
 9506TIP3    H149933   4.349   4.991  12.344 -0.3561 -0.8120  0.2566
 9506TIP3    H249934   4.210   5.028  12.297 -0.2063 -1.1143 -0.4441
 9507TIP3   OH249935   3.434   0.726  11.523 -0.2831 -0.1164 -0.2606
 9507TIP3    H149936   3.520   0.733  11.481 -0.2423 -0.7496 -0.3016
 9507TIP3    H249937   3.383   0.671  11.464  0.3073 -2.4891  1.2847
 9508TIP3   OH249938   5.916   1.182   2.247 -0.1493  0.2874 -0.0184
 9508TIP3    H149939   5.957   1.204   2.330  2.3680  0.1275 -1.1408
 9508TIP3    H249940   5.829   1.222   2.252  0.1726  0.8447  2.3887
 9509TIP3   OH249941   6.134   5.040  15.786  0.1022 -0.3005 -0.2088
 9509TIP3    H149942   6.079   5.005  15.856 -0.8115  0.8964 -0.2963
 9509TIP3    H249943   6.154   4.965  15.731  0.5319 -1.2030  1.1139
 9510TIP3   OH249944   0.468   5.912  15.249  0.8250  0.0888  0.4941
 9510TIP3    H149945   0.416   5.984  15.212 -0.6306 -1.7091 -1.1639
 9510TIP3    H249946   0.403   5.844  15.269  1.9937 -0.3102  3.3092
 9511TIP3   OH249947   0.133   1.729  11.893 -0.0367 -0.5696 -0.6902
 9511TIP3    H149948   0.192   1.654  11.899  1.5212  0.7311  2.2331
 9511TIP3    H249949   0.081   1.725  11.973 -0.8391  0.7417 -1.1115
 9512TIP3   OH249950   5.934   2.924  12.491 -0.3633  0.8776 -0.3451
 9512TIP3    H149951   5.972   2.904  12.577 -0.8449 -1.9032 -0.6968
 9512TIP3    H249952   5.909   3.017  12.497 -3.1359  0.1384  3.6234
 9513TIP3   OH249953   0.020   0.171  14.155  0.4907 -0.4820 -0.2414
 9513TIP3    H149954  -0.020   0.086  14.135 -0.9465 -0.5024  2.2922
 9513TIP3    H249955  -0.050   0.221  14.196  2.4593  0.2658  2.4665
 9514TIP3   OH249956   2.783   1.838   5.697  0.2623 -0.5055  0.1412
 9514TIP3    H149957   2.873   1.835   5.728  0.0171 -0.9664  0.8374
 9514TIP3    H249958   2.788   1.813   5.605  0.7292 -1.7174  0.4686
 9515TIP3   OH249959   3.145   3.617  16.350  0.0495  0.2493  0.3149
 9515TIP3    H149960   3.073   3.636  16.289  0.5013  0.4623 -0.1586
 9515TIP3    H249961   3.140   3.687  16.415 -1.0557 -0.5307  1.1039
 9516TIP3   OH249962   3.041   1.389   4.084 -0.3828 -0.3623 -0.4942
 9516TIP3    H149963   3.000   1.451   4.145  0.8187 -0.2496  0.2347
 9516TIP3    H249964   3.063   1.442   4.008  2.0937  0.5632  0.7454
 9517TIP3   OH249965   0.766   1.980   2.509 -0.5282  0.2341  0.2520
 9517TIP3    H149966   0.734   2.066   2.537 -0.8826  0.6937 -1.4199
 9517TIP3    H249967   0.694   1.920   2.529 -0.8885  0.5953  0.0613
 9518TIP3   OH249968   4.756   6.177  14.993 -0.4542  0.4738  0.3511
 9518TIP3    H149969   4.788   6.260  15.027  0.3275  0.3367 -0.0185
 9518TIP3    H249970   4.767   6.115  15.065  1.6993  0.0624 -0.2553
 9519TIP3   OH249971   2.592   2.220  16.882  0.1810  0.1303  0.1687
 9519TIP3    H149972   2.648   2.172  16.942  0.7781  0.7856  0.1447
 9519TIP3    H249973   2.513   2.239  16.933 -0.5225 -1.7443 -0.1297
 9520TIP3   OH249974   1.124   2.842  10.746  0.1100 -0.0635 -0.3731
 9520TIP3    H149975   1.067   2.884  10.682  1.7498 -0.2795 -2.0761
 9520TIP3    H249976   1.090   2.753  10.753 -1.6606  0.6724  1.1099
 9521TIP3   OH249977   3.124   4.313   0.191  0.0677  0.0783  0.2199
 9521TIP3    H149978   3.059   4.249   0.160 -3.1962  2.9403  0.4701
 9521TIP3    H249979   3.208   4.274   0.170 -1.7357 -2.5150 -3.2808
 9522TIP3   OH249980   0.944   1.095  12.380 -0.6371 -0.0569 -0.4859
 9522TIP3    H149981   0.912   1.152  12.310 -2.4139 -1.0002 -0.5015
 9522TIP3    H249982   0.991   1.025  12.334  1.7570  1.4068 -0.4562
 9523TIP3   OH249983   3.352   5.098   5.137  0.2822  0.0777 -0.7009
 9523TIP3    H149984   3.296   5.173   5.120 -0.1779 -0.6083 -2.3980
 9523TIP3    H249985   3.421   5.131   5.194 -2.1714  0.8231  2.0880
 9524TIP3   OH249986   4.969   5.018   3.260 -0.2145 -0.6298  0.5602
 9524TIP3    H149987   5.063   5.022   3.245 -0.3346  1.5402  0.0789
 9524TIP3    H249988   4.947   5.102   3.300 -2.1860 -0.4095 -0.8325
 9525TIP3   OH249989   2.205   0.997  10.744  0.3753  0.0253 -0.2609
 9525TIP3    H149990   2.256   1.006  10.663  0.9961  0.2422  0.1433
 9525TIP3    H249991   2.210   1.083  10.785  2.6217 -0.8357  1.4626
 9526TIP3   OH249992   4.333   0.749  11.835  0.3985 -0.5326 -0.5819
 9526TIP3    H149993   4.404   0.799  11.795 -0.3536  1.5661  0.5768
 9526TIP3    H249994   4.261   0.753  11.771  0.1388  0.4124 -0.2393
 9527TIP3   OH249995   6.398   0.606   2.037 -0.2330 -0.2366 -0.2607
 9527TIP3    H149996   6.343   0.621   1.959 -0.8692 -0.8885  0.0553
 9527TIP3    H249997   6.407   0.693   2.076 -0.5294 -0.0231 -0.6542
 9528TIP3   OH249998   6.666   3.465   1.613 -0.6783 -0.0557  0.1918
 9528TIP3    H149999   6.657   3.534   1.547 -1.4450 -0.1743  0.1628
 9528TIP3    H250000   6.719   3.398   1.569 -1.2358 -0.1621 -0.3346
 9529TIP3   OH250001   0.866   5.894   5.618 -0.3226  0.0701 -0.1234
 9529TIP3    H150002   0.958   5.913   5.639 -0.1877 -1.3905  0.6962
 9529TIP3    H250003   0.836   5.837   5.688 -1.7858  0.2808 -0.5483
 9530TIP3   OH250004   5.171   0.878   3.719 -0.5639  0.0381 -0.2418
 9530TIP3    H150005   5.255   0.835   3.732 -1.3482 -1.8584 -1.0656
 9530TIP3    H250006   5.108   0.807   3.714 -1.5351  0.8613 -4.9498
 9531TIP3   OH250007   5.899   6.146   0.444 -0.4545  0.2119  0.0296
 9531TIP3    H150008   5.917   6.062   0.403  2.1018  0.7362 -0.0822
 9531TIP3    H250009   5.915   6.211   0.375  1.4929  0.9581  1.1048
 9532TIP3   OH250010   1.118   4.033   5.395 -0.0799 -0.6704 -0.2243
 9532TIP3    H150011   1.077   3.946   5.397 -1.8833  0.1211 -0.4196
 9532TIP3    H250012   1.118   4.061   5.486  0.7204 -0.9546 -0.1302
 9533TIP3   OH250013   5.897   3.445   0.462 -0.1481  0.6092  0.1158
 9533TIP3    H150014   5.967   3.380   0.473  0.5942  1.3789  0.0380
 9533TIP3    H250015   5.850   3.416   0.384  1.3440  1.1861 -1.0426
 9534TIP3   OH250016   5.645   5.232  14.985 -0.2062 -0.0924 -0.5809
 9534TIP3    H150017   5.709   5.298  15.014 -0.6410 -0.1450  0.5057
 9534TIP3    H250018   5.568   5.283  14.961  0.0566 -0.0723 -1.4221
 9535TIP3   OH250019   0.087   6.531  16.871 -0.4568  0.3315 -0.1603
 9535TIP3    H150020   0.058   6.597  16.808  0.6630  1.8911  0.8634
 9535TIP3    H250021   0.105   6.581  16.951  0.0142 -1.2996  0.7996
 9536TIP3   OH250022   3.616   3.135   2.174 -0.1530  0.6412  0.1230
 9536TIP3    H150023   3.535   3.167   2.134 -1.5732 -1.4226  1.1439
 9536TIP3    H250024   3.605   3.155   2.267  0.5022  0.3398  0.2674
 9537TIP3   OH250025   4.172   3.865  14.094  0.0132  0.2195 -0.8840
 9537TIP3    H150026   4.193   3.774  14.072 -0.1977  0.4774 -2.2268
 9537TIP3    H250027   4.186   3.913  14.012 -1.3919  1.1395 -0.6040
 9538TIP3   OH250028   0.517   0.180   1.211 -0.4343  0.0553 -0.2293
 9538TIP3    H150029   0.424   0.158   1.214 -0.5661  0.3951 -1.4005
 9538TIP3    H250030   0.521   0.264   1.166  0.1949  1.8323  2.8621
 9539TIP3   OH250031   5.255   2.574   3.304  0.2398 -0.1815 -0.1059
 9539TIP3    H150032   5.269   2.509   3.235 -1.3385  1.3728 -2.0106
 9539TIP3    H250033   5.311   2.545   3.376  1.2765 -2.3844 -1.6859
 9540TIP3   OH250034   4.367   0.612  15.816  0.3760  0.0795 -0.9650
 9540TIP3    H150035   4.330   0.546  15.757  1.8047 -0.6448 -1.0993
 9540TIP3    H250036   4.462   0.602  15.806  0.6279  1.0266  0.2755
 9541TIP3   OH250037   5.954   2.468  16.403 -0.4148 -0.9447 -0.0281
 9541TIP3    H150038   5.958   2.413  16.481 -0.9287  0.5581  1.1043
 9541TIP3    H250039   6.040   2.510  16.398 -1.1699  0.8930  1.2566
 9542TIP3   OH250040   1.723   0.623  12.248  0.4349  0.0537 -0.2183
 9542TIP3    H150041   1.677   0.654  12.171 -0.3656  2.3567  1.0771
 9542TIP3    H250042   1.715   0.527  12.245 -0.4777  0.1544 -2.3797
 9543TIP3   OH250043   1.205   6.592  16.947 -0.0264 -0.2171 -0.1011
 9543TIP3    H150044   1.142   6.639  16.893 -1.2652 -0.6619  0.9106
 9543TIP3    H250045   1.225   6.512  16.897  0.4437  0.3475 -0.8343
 9544TIP3   OH250046   3.612   5.614  16.635  0.0847  0.0805  0.0239
 9544TIP3    H150047   3.558   5.554  16.688 -0.9018  1.8981  1.1723
 9544TIP3    H250048   3.654   5.557  16.571 -1.6897 -1.6994  0.3247
 9545TIP3   OH250049   5.650   2.922   1.262 -0.2103  0.3229  0.2791
 9545TIP3    H150050   5.656   2.952   1.172 -0.0149 -0.6479 -0.0393
 9545TIP3    H250051   5.574   2.968   1.298 -1.4396 -0.6643 -0.9273
 9546TIP3   OH250052   5.120   5.616   6.097  0.3494  0.0788  0.5084
 9546TIP3    H150053   5.101   5.532   6.138 -0.8572  0.2235  0.2940
 9546TIP3    H250054   5.130   5.677   6.170 -2.7335  0.5362  0.7086
 9547TIP3   OH250055   4.411   5.954  14.912  0.4042 -0.3133  0.0657
 9547TIP3    H150056   4.410   5.897  14.835  2.6926 -3.1966  1.9745
 9547TIP3    H250057   4.440   6.039  14.878  2.5900 -1.8077 -2.1106
 9548TIP3   OH250058   5.801   4.889  16.446  0.3245 -0.2561  0.2389
 9548TIP3    H150059   5.726   4.936  16.484  1.1365  1.0237  0.3233
 9548TIP3    H250060   5.828   4.828  16.515 -1.0710 -1.2665 -0.0674
 9549TIP3   OH250061   0.520   0.612  11.522  0.4961  0.0206 -0.0696
 9549TIP3    H150062   0.494   0.521  11.508 -0.0217 -0.0892  1.4102
 9549TIP3    H250063   0.564   0.637  11.441  0.0021 -1.3126 -0.7858
 9550TIP3   OH250064   2.879   2.688  12.368  0.4577 -0.1497 -0.3557
 9550TIP3    H150065   2.832   2.734  12.299 -0.1763 -1.6455 -0.9624
 9550TIP3    H250066   2.816   2.682  12.440  1.2479  1.7600  0.5621
 9551TIP3   OH250067   0.751   2.570   1.882 -0.0206 -0.3025  0.1905
 9551TIP3    H150068   0.696   2.523   1.819  1.1041 -0.8163 -0.4428
 9551TIP3    H250069   0.804   2.629   1.828  0.5273 -0.3047  0.7209
 9552TIP3   OH250070   2.457   0.562  16.439 -0.1316  0.6396  0.3397
 9552TIP3    H150071   2.417   0.575  16.525 -1.6893 -0.1421 -0.2291
 9552TIP3    H250072   2.526   0.497  16.455 -1.4826 -0.7509  0.7523
 9553TIP3   OH250073   2.806   5.770  15.777  0.1439 -0.4178  0.2220
 9553TIP3    H150074   2.867   5.750  15.848  0.0762 -2.1956 -0.1637
 9553TIP3    H250075   2.720   5.752  15.813  0.1006 -1.2019 -0.2513
 9554TIP3   OH250076   0.758   2.483  16.715 -0.0548  0.0812 -0.5311
 9554TIP3    H150077   0.707   2.560  16.741  1.2233  0.3382  1.4430
 9554TIP3    H250078   0.824   2.516  16.655 -0.3347  0.2859 -0.7260
 9555TIP3   OH250079   1.731   2.567   1.225 -0.3337  0.7718 -0.5023
 9555TIP3    H150080   1.695   2.500   1.283  0.3740  0.1578 -0.7676
 9555TIP3    H250081   1.715   2.533   1.137  0.1186  0.8986 -0.6347
 9556TIP3   OH250082   6.504   3.567  15.569  0.4840 -0.3522  0.3062
 9556TIP3    H150083   6.470   3.652  15.595 -0.1781 -0.7860  0.8860
 9556TIP3    H250084   6.574   3.549  15.632  2.8177  1.1460 -1.6813
 9557TIP3   OH250085   1.096   4.578   0.107  0.4133 -0.0136  0.0927
 9557TIP3    H150086   1.142   4.658   0.082 -2.4449  1.5794 -0.4463
 9557TIP3    H250087   1.103   4.576   0.203  0.0170  1.2487  0.1717
 9558TIP3   OH250088   2.133   0.444  12.706  0.2657 -0.2916  0.0394
 9558TIP3    H150089   2.166   0.364  12.666  1.3580 -0.0876  0.5108
 9558TIP3    H250090   2.185   0.454  12.786 -3.1024 -1.7728  2.6966
 9559TIP3   OH250091   4.269   6.550  12.433  0.8139 -0.3758 -0.0583
 9559TIP3    H150092   4.316   6.626  12.467  3.0450 -1.8122  0.3108
 9559TIP3    H250093   4.220   6.516  12.508 -2.2239  1.9689 -0.7819
 9560TIP3   OH250094   0.440   4.457   3.765  0.1641  0.1006 -0.3850
 9560TIP3    H150095   0.510   4.415   3.815  0.0998 -1.0557 -1.2141
 9560TIP3    H250096   0.359   4.422   3.801  0.0020  1.1496  0.3201
 9561TIP3   OH250097   4.961   2.074   1.382 -0.4060 -0.3027  0.1089
 9561TIP3    H150098   4.889   2.040   1.327 -0.1263 -0.9260  0.1165
 9561TIP3    H250099   5.006   1.995   1.413 -1.0883 -0.0036  1.9670
 9562TIP3   OH250100   4.377   2.755  11.246  0.1550  0.4141  0.1654
 9562TIP3    H150101   4.365   2.715  11.159  2.7914 -0.6401  0.1992
 9562TIP3    H250102   4.310   2.714  11.300  0.4328 -1.2770 -0.6846
 9563TIP3   OH250103   3.742   2.018   4.612 -0.5168  0.0337  0.4402
 9563TIP3    H150104   3.744   2.097   4.558  0.4206 -0.4000 -0.1959
 9563TIP3    H250105   3.775   1.949   4.554 -0.5678 -0.6613  1.2298
 9564TIP3   OH250106   4.197   3.041  15.651  0.2853  0.2609  0.1550
 9564TIP3    H150107   4.120   2.990  15.624 -0.2961  0.2414  1.7673
 9564TIP3    H250108   4.272   2.987  15.623 -0.3119 -1.0718  1.0050
 9565TIP3   OH250109   1.956   3.648   2.984  0.4174 -0.0162  0.5396
 9565TIP3    H150110   1.905   3.573   3.015 -0.1169  0.1461  0.0753
 9565TIP3    H250111   1.917   3.670   2.899 -0.6389  1.9238  1.4742
 9566TIP3   OH250112   1.985   3.872  13.892 -0.9788  0.3869  0.1035
 9566TIP3    H150113   1.945   3.956  13.917 -0.9857 -0.0619  1.7217
 9566TIP3    H250114   1.912   3.820  13.860 -1.1939  0.5761  0.2767
 9567TIP3   OH250115   1.953   1.297   2.000 -0.2758  0.3096  0.0528
 9567TIP3    H150116   2.032   1.351   1.992  0.1010  0.1326  1.9749
 9567TIP3    H250117   1.986   1.209   2.018 -0.8993  0.0979  0.1870
 9568TIP3   OH250118   2.168   6.373   2.013  0.1336  0.2988  0.5132
 9568TIP3    H150119   2.240   6.427   1.981 -0.4013  0.5451 -0.3038
 9568TIP3    H250120   2.101   6.436   2.040 -0.7866  0.0810 -1.1247
 9569TIP3   OH250121   3.026   5.982   4.237 -1.1486  0.2326 -0.1295
 9569TIP3    H150122   3.030   6.077   4.251  0.0271  0.6219 -2.5668
 9569TIP3    H250123   2.934   5.965   4.216 -1.3710  0.8212  0.3298
 9570TIP3   OH250124   1.105   0.856   3.962  0.0922 -0.6055  0.2031
 9570TIP3    H150125   1.137   0.824   4.046  0.1437 -1.4234 -0.1123
 9570TIP3    H250126   1.021   0.898   3.982  1.6919  2.3545  1.1675
 9571TIP3   OH250127   3.734   1.592  11.056 -0.5183  0.7859 -0.0386
 9571TIP3    H150128   3.654   1.589  11.003 -1.6466  2.0095  1.4917
 9571TIP3    H250129   3.805   1.595  10.992 -1.6856 -0.1543 -1.4441
 9572TIP3   OH250130   4.262   1.642  11.222  0.1790 -0.7055 -0.1946
 9572TIP3    H150131   4.309   1.613  11.301 -0.2020  1.6902  1.0202
 9572TIP3    H250132   4.316   1.713  11.188 -0.4602 -0.7054 -1.2285
 9573TIP3   OH250133   5.946   5.740   0.583  0.0417 -0.1164  0.1643
 9573TIP3    H150134   6.037   5.740   0.615  0.0963  0.6889  0.0174
 9573TIP3    H250135   5.903   5.808   0.634  0.4383  2.0870 -2.2761
 9574TIP3   OH250136   6.129   1.773  11.241 -0.0455  0.0305  0.6949
 9574TIP3    H150137   6.089   1.743  11.160 -1.2952  2.0173  0.5136
 9574TIP3    H250138   6.173   1.855  11.218  1.8559 -0.7048  1.4913
 9575TIP3   OH250139   4.013   4.079   0.122 -0.2570  0.0677  0.0871
 9575TIP3    H150140   4.076   4.007   0.129 -0.6297 -0.1348  1.5690
 9575TIP3    H250141   4.020   4.126   0.205 -1.8255  0.2463  0.1472
 9576TIP3   OH250142   5.023   6.168  11.402  0.1219  0.8961  0.0770
 9576TIP3    H150143   4.943   6.157  11.453  1.0064  0.4366  1.4254
 9576TIP3    H250144   5.012   6.110  11.327 -1.3817  1.8971 -0.5267
 9577TIP3   OH250145   4.208   4.851  11.507  0.0363 -0.3336 -0.6967
 9577TIP3    H150146   4.169   4.919  11.451  1.8487 -0.0915 -1.7342
 9577TIP3    H250147   4.213   4.891  11.594 -0.7143  0.1351 -0.8593
 9578TIP3   OH250148   5.752   6.524  13.410  0.1244  0.1829 -0.1462
 9578TIP3    H150149   5.721   6.550  13.497  1.0470 -1.1466  0.6097
 9578TIP3    H250150   5.778   6.433  13.420 -0.2956 -0.1772 -1.9853
 9579TIP3   OH250151   6.620   0.334  12.863 -0.2225  0.3348  0.1789
 9579TIP3    H150152   6.567   0.399  12.910  0.3491  0.8660  0.1001
 9579TIP3    H250153   6.556   0.272  12.828 -0.7412  0.5839  0.6616
 9580TIP3   OH250154   1.125   1.547  13.056  0.3959  0.0167 -0.0272
 9580TIP3    H150155   1.201   1.591  13.019  0.7273 -0.9347 -0.5153
 9580TIP3    H250156   1.054   1.565  12.994  0.6406 -0.4919 -0.4668
 9581TIP3   OH250157   2.067   5.635  17.113  0.1836  0.4447 -0.1444
 9581TIP3    H150158   2.049   5.543  17.097  1.2588  0.0026  1.0895
 9581TIP3    H250159   1.984   5.679  17.094 -0.6491 -0.8915  0.2920
 9582TIP3   OH250160   3.264   3.366  12.463  0.3402  0.2349 -0.3327
 9582TIP3    H150161   3.190   3.324  12.507  1.3476 -1.1687  0.0517
 9582TIP3    H250162   3.232   3.382  12.374 -0.5602  0.0167 -0.0603
 9583TIP3   OH250163   1.705   1.483  11.044 -0.4630 -0.2295 -0.4564
 9583TIP3    H150164   1.624   1.532  11.033 -0.5493 -0.3830 -0.5048
 9583TIP3    H250165   1.746   1.483  10.958  1.0291  2.3422  0.1366
 9584TIP3   OH250166   1.179   4.504   5.568  0.7078  0.0643  0.3168
 9584TIP3    H150167   1.193   4.442   5.496  1.2781  1.0910 -0.4797
 9584TIP3    H250168   1.107   4.466   5.619 -2.3236  1.0290 -2.8491
 9585TIP3   OH250169   6.586   6.452   0.686 -0.4173  0.3211 -0.2421
 9585TIP3    H150170   6.659   6.486   0.738  0.6124 -2.7719  0.5614
 9585TIP3    H250171   6.625   6.387   0.628 -2.4256 -1.0351 -0.1940
 9586TIP3   OH250172   4.794   2.089   2.984 -0.3058  0.1113  0.0067
 9586TIP3    H150173   4.841   2.146   3.046 -0.1887 -0.5765  0.5758
 9586TIP3    H250174   4.780   2.143   2.907  0.3657  0.7131  0.2906
 9587TIP3   OH250175   3.511   1.951  15.249  0.4977  0.3380  0.7289
 9587TIP3    H150176   3.446   1.887  15.220  0.4627 -0.0483  1.6333
 9587TIP3    H250177   3.515   1.941  15.344  1.0880  1.1168  0.8031
 9588TIP3   OH250178   1.012   0.292   2.049  0.3037 -0.0364  0.2535
 9588TIP3    H150179   1.090   0.302   1.995  0.2057 -0.8765 -0.0525
 9588TIP3    H250180   0.939   0.303   1.989  0.1806  0.4517  0.4852
 9589TIP3   OH250181   3.652   3.484   4.597  0.7904  0.5856  0.1865
 9589TIP3    H150182   3.648   3.390   4.580  0.7296  0.8953 -1.8323
 9589TIP3    H250183   3.565   3.516   4.573  0.1779  0.9587  2.6473
 9590TIP3   OH250184   2.433   1.275   2.032  0.0725  0.4426  0.0292
 9590TIP3    H150185   2.487   1.313   1.962  0.7078  0.3480  0.4559
 9590TIP3    H250186   2.419   1.347   2.093  0.6529  0.1918  0.4679
 9591TIP3   OH250187   5.116   0.681   0.926  0.0079  0.2416  0.0010
 9591TIP3    H150188   5.171   0.635   0.862  2.4904 -0.8322  2.6789
 9591TIP3    H250189   5.029   0.643   0.914  0.8147 -1.2937 -1.4392
 9592TIP3   OH250190   4.194   1.420  14.246 -0.6700  0.0756  0.1756
 9592TIP3    H150191   4.285   1.416  14.216 -1.3003 -0.4915 -1.8600
 9592TIP3    H250192   4.200   1.429  14.341  1.5262  2.3390 -0.0721
 9593TIP3   OH250193   2.803   5.344  15.029 -0.1728  0.3156  0.0052
 9593TIP3    H150194   2.746   5.397  15.085 -0.9800 -0.8649  0.3345
 9593TIP3    H250195   2.869   5.309  15.089 -0.7540 -0.5596  0.1480
 9594TIP3   OH250196   1.579   6.397   0.476  0.1306 -0.5359 -0.5059
 9594TIP3    H150197   1.540   6.446   0.549 -1.3227 -0.6057 -1.2050
 9594TIP3    H250198   1.612   6.465   0.416  0.2841 -0.4625 -0.3397
 9595TIP3   OH250199   0.081   3.073   6.459  0.5695 -0.2660 -1.0282
 9595TIP3    H150200   0.037   3.158   6.461 -0.9198 -0.9692 -2.0825
 9595TIP3    H250201   0.169   3.091   6.490 -0.3212  1.2792  0.7782
 9596TIP3   OH250202   1.522   3.548   1.043 -0.2619 -0.1952 -0.2856
 9596TIP3    H150203   1.435   3.572   1.011 -1.4716  0.3334  3.0150
 9596TIP3    H250204   1.551   3.623   1.094  1.7480 -0.7727 -0.4739
 9597TIP3   OH250205   3.043   6.118  11.375  0.7013  0.0328  0.0220
 9597TIP3    H150206   2.981   6.189  11.395 -0.0657 -0.6571  0.1525
 9597TIP3    H250207   2.994   6.059  11.318  1.9440  0.5310 -1.6328
 9598TIP3   OH250208   3.111   6.317   1.204 -0.5109 -0.5530  0.4255
 9598TIP3    H150209   3.180   6.352   1.261 -0.3120 -1.0578  0.4991
 9598TIP3    H250210   3.124   6.362   1.120 -1.3829  0.8837  1.0294
 9599TIP3   OH250211   4.369   3.144   0.345 -0.1602 -0.2525  0.1383
 9599TIP3    H150212   4.296   3.105   0.392 -0.5425 -0.5981 -0.7164
 9599TIP3    H250213   4.416   3.195   0.411 -2.0816  1.3196  0.3934
 9600TIP3   OH250214   0.567   4.925  10.873  0.0626 -0.1166  0.3169
 9600TIP3    H150215   0.482   4.895  10.841 -0.5247  0.1579  1.5766
 9600TIP3    H250216   0.589   4.999  10.817 -0.1441 -0.6631 -0.5173
 9601TIP3   OH250217   2.875   4.873   0.888 -0.2317 -0.3297 -0.4158
 9601TIP3    H150218   2.912   4.897   0.973  2.0228  1.4989 -1.8218
 9601TIP3    H250219   2.881   4.777   0.886  3.3216 -0.2476  0.0395
 9602TIP3   OH250220   4.902   2.699  16.799  0.1863  0.1121  0.3712
 9602TIP3    H150221   4.959   2.631  16.764 -0.5853 -1.2003  1.5632
 9602TIP3    H250222   4.816   2.658  16.804 -0.6445  1.6926 -0.3365
 9603TIP3   OH250223   3.095   3.983  11.293 -0.9425 -0.1151  0.6600
 9603TIP3    H150224   3.118   3.908  11.237  1.0712  0.5501  0.5422
 9603TIP3    H250225   3.113   3.952  11.382  1.1577  0.5938  0.5321
 9604TIP3   OH250226   0.368   5.314   0.229 -0.0234 -0.2260 -0.0913
 9604TIP3    H150227   0.303   5.313   0.300  0.5194 -2.4064  0.4491
 9604TIP3    H250228   0.436   5.373   0.261  0.2262 -1.1956  1.2679
 9605TIP3   OH250229   1.438   4.276  11.954  0.1370 -0.3134  0.7944
 9605TIP3    H150230   1.409   4.363  11.981  0.9123  0.5756 -1.1365
 9605TIP3    H250231   1.419   4.221  12.030 -0.2211  1.5466  2.1238
 9606TIP3   OH250232   2.025   1.700  14.109  0.6089 -0.2373  0.0498
 9606TIP3    H150233   2.033   1.711  14.015  1.0842 -0.5425  0.0488
 9606TIP3    H250234   2.110   1.665  14.137  0.7450  0.5830  0.7059
 9607TIP3   OH250235   5.350   6.097   5.186  0.1527 -0.3682 -0.0250
 9607TIP3    H150236   5.391   6.011   5.178 -1.2400 -1.0520  0.0201
 9607TIP3    H250237   5.398   6.153   5.125  1.3538 -1.0482  0.2671
 9608TIP3   OH250238   6.155   0.530  15.142  0.9139  0.5583 -0.0190
 9608TIP3    H150239   6.153   0.541  15.237 -0.3507 -0.1641  0.0691
 9608TIP3    H250240   6.209   0.452  15.128 -0.0041 -0.1392  0.2238
 9609TIP3   OH250241   1.738   4.012  14.589 -0.0113 -0.6578 -0.3093
 9609TIP3    H150242   1.769   3.922  14.583 -0.7546 -1.0529  1.2719
 9609TIP3    H250243   1.814   4.061  14.620  0.4614 -0.6895 -1.3954
 9610TIP3   OH250244   3.591   5.910   2.714  0.2533  0.1639  0.1653
 9610TIP3    H150245   3.529   5.848   2.753  0.1169 -0.1110 -0.4707
 9610TIP3    H250246   3.626   5.959   2.788  0.1518 -0.4851  0.6555
 9611TIP3   OH250247   6.670   5.876  15.631 -0.2679  0.3419 -0.7114
 9611TIP3    H150248   6.760   5.852  15.612  0.4348  2.0813  0.1361
 9611TIP3    H250249   6.674   5.915  15.719 -1.9688 -0.1850 -0.3610
 9612TIP3   OH250250   6.081   6.196  15.124  0.3242 -0.2945  0.3662
 9612TIP3    H150251   6.173   6.170  15.135  0.7458  0.2072 -1.5962
 9612TIP3    H250252   6.065   6.257  15.195  1.7383  0.1706  0.3263
 9613TIP3   OH250253   4.975   2.541   2.492  0.3061  0.3548 -0.2127
 9613TIP3    H150254   4.957   2.463   2.544 -0.9899  0.8244  0.0668
 9613TIP3    H250255   4.901   2.598   2.507  0.1099  0.7044 -2.2048
 9614TIP3   OH250256   2.049   2.589  11.559  0.0918 -0.1396  0.3057
 9614TIP3    H150257   2.030   2.667  11.506  0.6905  0.6846  1.2778
 9614TIP3    H250258   2.074   2.624  11.644  2.3875 -1.2829  0.1740
 9615TIP3   OH250259   4.070   5.103   5.029 -0.0386  0.2434  0.0614
 9615TIP3    H150260   4.066   5.157   4.950 -1.4438 -0.1792 -0.1861
 9615TIP3    H250261   3.995   5.044   5.021 -0.5405  0.5677  1.9716
 9616TIP3   OH250262   4.858   6.310   4.054  0.4236 -0.1975  0.5538
 9616TIP3    H150263   4.769   6.301   4.089 -0.4138  0.9585 -1.1308
 9616TIP3    H250264   4.907   6.352   4.124 -1.1520  1.9187  0.5092
 9617TIP3   OH250265   3.853   4.429  11.720 -0.3766 -0.0156  0.0277
 9617TIP3    H150266   3.889   4.386  11.798 -0.0286  0.2642  0.0244
 9617TIP3    H250267   3.816   4.511  11.752  0.8300  0.6710 -0.2588
 9618TIP3   OH250268   2.945   6.545   0.571 -0.6935 -0.2692 -0.0392
 9618TIP3    H150269   2.928   6.511   0.659 -0.8646  0.8806  0.3866
 9618TIP3    H250270   3.023   6.600   0.581 -0.1635 -0.8586 -0.8039
 9619TIP3   OH250271   1.841   4.701  16.061 -0.0699  0.1675  0.0260
 9619TIP3    H150272   1.903   4.768  16.090  0.8880 -0.6833 -0.0095
 9619TIP3    H250273   1.843   4.706  15.966 -1.3733  1.2920  0.0180
 9620TIP3   OH250274   6.564   0.731  10.836  0.8680 -0.1847 -0.6189
 9620TIP3    H150275   6.577   0.793  10.764  1.2770 -0.1649 -0.5314
 9620TIP3    H250276   6.647   0.731  10.883  1.0721 -1.2085 -0.9372
 9621TIP3   OH250277   1.384   0.872  15.534  0.0895 -0.8592  0.2482
 9621TIP3    H150278   1.393   0.964  15.560  0.5278 -0.3716 -1.5278
 9621TIP3    H250279   1.290   0.861  15.517  0.1486 -0.5149 -0.3154
 9622TIP3   OH250280   3.779   0.920  14.627 -0.3864 -0.4648  0.4290
 9622TIP3    H150281   3.867   0.913  14.590 -0.2503  0.1245  0.6471
 9622TIP3    H250282   3.792   0.931  14.721 -0.5235  3.1049  0.1609
 9623TIP3   OH250283   4.680   1.515  11.361  0.5450 -0.2582  0.4489
 9623TIP3    H150284   4.775   1.507  11.354  0.5910  0.3517  0.2899
 9623TIP3    H250285   4.660   1.599  11.318 -0.3379 -1.5016 -1.7128
 9624TIP3   OH250286   6.214   5.749  12.594  0.0992 -0.3604  0.1023
 9624TIP3    H150287   6.278   5.689  12.556  1.5851  2.4821 -2.3457
 9624TIP3    H250288   6.267   5.818  12.635 -1.4632  0.3693  0.9910
 9625TIP3   OH250289   2.209   3.596   5.967  0.3626  0.2179 -0.0388
 9625TIP3    H150290   2.195   3.501   5.961 -2.0425  0.5359 -0.4468
 9625TIP3    H250291   2.205   3.614   6.061 -0.1918  0.0452 -0.0274
 9626TIP3   OH250292   0.459   6.164   5.285  0.9546  0.6521 -0.0286
 9626TIP3    H150293   0.401   6.106   5.333  1.1418  0.7623  0.3303
 9626TIP3    H250294   0.418   6.250   5.291  0.6952  0.5703 -0.5306
 9627TIP3   OH250295   0.566   0.960   0.981  0.2411  0.2017  0.2531
 9627TIP3    H150296   0.572   1.017   1.058  2.2935  1.2848 -0.6343
 9627TIP3    H250297   0.653   0.965   0.941 -0.8932  0.0129 -2.3920
 9628TIP3   OH250298   3.853   6.438   1.805 -0.2940  0.1033 -0.2032
 9628TIP3    H150299   3.859   6.490   1.725  0.6788  0.2928 -0.0250
 9628TIP3    H250300   3.789   6.369   1.785  0.2046 -0.0674 -1.2669
 9629TIP3   OH250301   4.678   3.923  16.652  0.0490  0.0191  0.1884
 9629TIP3    H150302   4.750   3.982  16.672  0.2063  0.3544 -1.2548
 9629TIP3    H250303   4.603   3.957  16.701  0.5813  0.3380  0.7879
 9630TIP3   OH250304   0.100   0.661   5.367  0.4447  0.7674  0.0935
 9630TIP3    H150305   0.105   0.597   5.437 -0.1824 -0.1844 -0.7100
 9630TIP3    H250306   0.161   0.629   5.300 -2.0485 -0.7500 -1.6526
 9631TIP3   OH250307   1.509   3.884   2.316 -0.1794  0.0646 -0.0874
 9631TIP3    H150308   1.448   3.954   2.293 -0.1287 -0.0477 -0.5662
 9631TIP3    H250309   1.550   3.914   2.397  1.2094  1.4729 -1.2489
 9632TIP3   OH250310   5.799   4.888   4.694 -0.1047 -0.1277  0.2191
 9632TIP3    H150311   5.858   4.843   4.633  0.5622 -0.6646  1.2450
 9632TIP3    H250312   5.856   4.948   4.742 -0.4468 -0.4515  1.0343
 9633TIP3   OH250313   3.556   1.865   2.778 -0.4900  0.0442 -0.2057
 9633TIP3    H150314   3.637   1.859   2.727  0.2932  0.1809  0.9617
 9633TIP3    H250315   3.497   1.918   2.724  0.0180 -0.4702 -1.2916
 9634TIP3   OH250316   1.449   4.494  13.366  0.3361  0.0169 -0.7761
 9634TIP3    H150317   1.429   4.443  13.445  2.7895  0.1497  0.0204
 9634TIP3    H250318   1.468   4.582  13.399 -3.0272  1.3623 -2.0551
 9635TIP3   OH250319   6.219   0.552  15.925 -0.7788 -0.2489  0.3526
 9635TIP3    H150320   6.257   0.571  16.011 -0.3924 -0.1401  0.1622
 9635TIP3    H250321   6.247   0.625  15.870 -3.1389  1.0373  0.7476
 9636TIP3   OH250322   2.276   4.666   2.386 -0.0189  0.6544  0.4579
 9636TIP3    H150323   2.320   4.743   2.423  0.5221 -0.0825  1.3950
 9636TIP3    H250324   2.219   4.635   2.456 -0.4351  0.3589 -0.0098
 9637TIP3   OH250325   3.092   5.563  12.506  0.0288  0.3421 -0.4837
 9637TIP3    H150326   3.079   5.603  12.420 -0.3303 -0.6304 -0.8985
 9637TIP3    H250327   3.184   5.536  12.506 -0.2744 -0.7383 -1.0508
 9638TIP3   OH250328   1.029   6.225  16.883 -1.0731 -0.4507 -0.1690
 9638TIP3    H150329   1.124   6.237  16.886 -1.2786  2.3601 -1.4554
 9638TIP3    H250330   1.015   6.134  16.907  1.7096 -0.1710  3.1827
 9639TIP3   OH250331   2.045   4.770  13.724  0.1897  0.0011 -0.0055
 9639TIP3    H150332   2.027   4.747  13.815 -1.1551  1.9257  0.2674
 9639TIP3    H250333   2.140   4.771  13.717  0.3133 -1.4978  0.9867
 9640TIP3   OH250334   3.717   1.925  10.391 -0.1768  0.1079  0.4726
 9640TIP3    H150335   3.773   1.859  10.432 -0.5429  0.3541  1.3861
 9640TIP3    H250336   3.770   2.005  10.391 -0.0361  0.0132  0.1213
 9641TIP3   OH250337   3.380   6.486  11.628  0.1619  0.0963  0.1467
 9641TIP3    H150338   3.325   6.416  11.595  0.7983  0.6104 -2.2091
 9641TIP3    H250339   3.463   6.443  11.651 -0.7848 -0.5210  2.8004
 9642TIP3   OH250340   2.498   1.423  14.640  0.0146 -0.7571  0.0352
 9642TIP3    H150341   2.430   1.475  14.683 -0.8490 -0.1495 -1.9746
 9642TIP3    H250342   2.548   1.384  14.713 -2.4321 -1.1942  1.5852
 9643TIP3   OH250343   1.272   4.127   3.854 -0.2559 -0.0488  0.5809
 9643TIP3    H150344   1.317   4.195   3.905  0.8108  0.6626 -1.2246
 9643TIP3    H250345   1.305   4.044   3.890  1.3736  0.4468  0.2885
 9644TIP3   OH250346   0.220   2.849   3.959  0.5954 -0.2240 -0.3508
 9644TIP3    H150347   0.211   2.932   3.912  0.9870  0.9697  1.5314
 9644TIP3    H250348   0.150   2.851   4.024  0.9925 -1.0873  0.1221
 9645TIP3   OH250349   5.034   0.529  16.149  0.1567  0.4626  0.2045
 9645TIP3    H150350   5.054   0.597  16.213  0.5156  1.2656 -0.7502
 9645TIP3    H250351   4.956   0.560  16.103  0.5940  0.4779 -0.5522
 9646TIP3   OH250352   2.239   2.663   4.539 -0.3426 -0.3850  0.0118
 9646TIP3    H150353   2.262   2.595   4.601  1.2452 -0.1571 -0.2920
 9646TIP3    H250354   2.186   2.725   4.589  2.8839  1.0720  1.9142
 9647TIP3   OH250355   5.364   2.054  11.415 -0.7068 -0.0639 -0.1047
 9647TIP3    H150356   5.450   2.033  11.452 -0.6094  0.0872 -0.2440
 9647TIP3    H250357   5.314   1.973  11.423 -0.3765 -0.3090 -0.5159
 9648TIP3   OH250358   0.650   4.865   0.467 -0.4279 -0.4233  0.3151
 9648TIP3    H150359   0.718   4.812   0.425 -0.2319 -0.3962  0.5938
 9648TIP3    H250360   0.695   4.908   0.540 -1.0105 -1.3816  1.2810
 9649TIP3   OH250361   6.475   0.960  16.738  0.0472 -0.0408  0.0934
 9649TIP3    H150362   6.428   0.928  16.661  0.2224 -0.4792  0.1686
 9649TIP3    H250363   6.492   1.053  16.719 -1.9491  0.4902  0.5934
 9650TIP3   OH250364   2.562   4.823   5.192  0.4577  0.0080 -0.2682
 9650TIP3    H150365   2.567   4.903   5.139  2.9732 -0.9060 -1.5350
 9650TIP3    H250366   2.584   4.852   5.281  0.0611  0.9076 -0.4499
 9651TIP3   OH250367   0.251   5.353   5.695  0.4256  0.4832 -0.4866
 9651TIP3    H150368   0.332   5.311   5.668  0.5976  1.7718 -2.1358
 9651TIP3    H250369   0.222   5.402   5.618 -2.1328 -0.2291 -0.0972
 9652TIP3   OH250370   5.233   0.985  11.976  0.5994  0.3177 -0.1459
 9652TIP3    H150371   5.238   1.038  11.896 -2.0276  2.2844  0.8517
 9652TIP3    H250372   5.166   0.919  11.957  1.4005 -0.4954 -0.2057
 9653TIP3   OH250373   0.395   0.119   2.155 -0.7141  0.0882  0.3953
 9653TIP3    H150374   0.346   0.059   2.212  0.1368 -0.3272  0.7050
 9653TIP3    H250375   0.426   0.063   2.083 -0.6918  0.3484  0.2014
 9654TIP3   OH250376   4.729   4.113  11.247  0.8067  0.4218  0.5870
 9654TIP3    H150377   4.761   4.026  11.224 -3.5105 -0.5312 -3.2006
 9654TIP3    H250378   4.656   4.098  11.306 -0.5351  1.3101 -0.7820
 9655TIP3   OH250379   1.527   6.026  13.401  0.5586 -0.8426  0.5918
 9655TIP3    H150380   1.550   6.003  13.311  0.2130 -0.6031  0.4423
 9655TIP3    H250381   1.434   6.049  13.397  0.4293 -1.2716  1.0935
 9656TIP3   OH250382   2.935   4.874  14.872  0.2270 -0.2247  0.0500
 9656TIP3    H150383   2.937   4.969  14.886 -2.0793  0.1774 -1.7334
 9656TIP3    H250384   2.861   4.844  14.924  0.2613 -0.8705 -0.2694
 9657TIP3   OH250385   3.926   4.671  15.195 -0.0635 -0.5241 -0.1668
 9657TIP3    H150386   3.955   4.691  15.284 -1.7424 -0.7697  0.4624
 9657TIP3    H250387   3.973   4.734  15.140 -0.5805  1.0502  1.1172
 9658TIP3   OH250388   0.630   1.113  10.253  0.3385  0.2697  0.5019
 9658TIP3    H150389   0.621   1.025  10.288  1.2819  0.3637  1.0183
 9658TIP3    H250390   0.541   1.138  10.226 -0.1467 -0.3763  1.4601
 9659TIP3   OH250391   4.543   2.958  11.255 -0.1126 -0.1895  0.2580
 9659TIP3    H150392   4.491   2.879  11.263  0.4254 -0.5782  0.0058
 9659TIP3    H250393   4.614   2.934  11.195  0.5780  0.2028  0.8933
 9660TIP3   OH250394   3.531   2.790   5.401 -0.6543 -0.7965 -0.1737
 9660TIP3    H150395   3.623   2.773   5.379 -0.1064  1.3808  0.2190
 9660TIP3    H250396   3.514   2.733   5.476  1.2842  0.7521  1.5569
 9661TIP3   OH250397   0.626   5.933   4.497 -0.0611 -0.5178  0.1616
 9661TIP3    H150398   0.579   5.990   4.558 -2.3678 -0.4546 -1.5009
 9661TIP3    H250399   0.563   5.919   4.426  2.3894 -0.6982 -2.1185
 9662TIP3   OH250400   0.857   3.387  16.242 -0.0147 -0.2835 -0.3082
 9662TIP3    H150401   0.929   3.449  16.232 -0.5563  0.0419 -2.6857
 9662TIP3    H250402   0.781   3.433  16.207 -1.3015 -0.8493  1.6015
 9663TIP3   OH250403   6.448   0.015  15.363 -0.3554  0.5696  0.0753
 9663TIP3    H150404   6.374   0.075  15.351  0.8261  2.3244  1.1713
 9663TIP3    H250405   6.458   0.007  15.458  1.9246  1.8279  0.0177
 9664TIP3   OH250406   3.113   3.741  13.066 -0.6996  0.2054  0.0710
 9664TIP3    H150407   3.156   3.795  13.000 -0.2527 -2.4003 -1.9452
 9664TIP3    H250408   3.181   3.722  13.130 -0.7471  1.5774  0.5642
 9665TIP3   OH250409   2.345   0.134   0.375  0.0349 -0.5068 -0.0032
 9665TIP3    H150410   2.366   0.075   0.303 -0.9814 -1.5684  0.5385
 9665TIP3    H250411   2.423   0.189   0.384 -0.9987  2.1704 -4.2466
 9666TIP3   OH250412   1.416   0.229   1.202 -0.2109  0.1419 -0.2357
 9666TIP3    H150413   1.482   0.179   1.249  0.2772 -1.0143 -2.0538
 9666TIP3    H250414   1.412   0.189   1.115 -2.9039  0.5226 -0.3877
 9667TIP3   OH250415   2.646   6.520   5.521  0.3971 -0.0227  0.8493
 9667TIP3    H150416   2.610   6.480   5.600  0.3978  1.2092  1.5042
 9667TIP3    H250417   2.625   6.613   5.530  0.6051  0.1743 -0.4985
 9668TIP3   OH250418   6.706   3.812  15.878 -0.7089  0.3575  0.0896
 9668TIP3    H150419   6.669   3.869  15.944  1.1921 -0.4396  1.9466
 9668TIP3    H250420   6.787   3.779  15.916 -0.2841 -1.3481 -2.0325
 9669TIP3   OH250421   2.609   5.171   0.389  0.5330  0.8259 -0.7068
 9669TIP3    H150422   2.670   5.153   0.460  0.7509 -0.2215 -1.1346
 9669TIP3    H250423   2.639   5.114   0.317 -2.7174 -2.1583  0.0169
 9670TIP3   OH250424   4.484   4.810   0.659  0.8167 -0.4745  0.0681
 9670TIP3    H150425   4.510   4.792   0.569  0.6878  0.9635 -0.2694
 9670TIP3    H250426   4.542   4.881   0.687 -0.8159  0.8369  0.2509
 9671TIP3   OH250427   5.340   4.018  13.715 -0.5515  0.2214  0.1417
 9671TIP3    H150428   5.355   4.095  13.660  0.3008  1.2512  1.7429
 9671TIP3    H250429   5.265   4.042  13.770  0.0419  0.1345  1.0027
 9672TIP3   OH250430   2.397   2.755   2.801 -0.2277  0.0690 -0.3261
 9672TIP3    H150431   2.473   2.794   2.844 -0.4042  0.9075 -0.7513
 9672TIP3    H250432   2.429   2.672   2.766  0.9730  1.1775 -1.9939
 9673TIP3   OH250433   2.699   6.381  14.804 -0.4333 -0.4814 -0.1832
 9673TIP3    H150434   2.639   6.456  14.805 -3.0889 -2.4348  2.5263
 9673TIP3    H250435   2.643   6.306  14.787  0.9421 -2.5354  3.3229
 9674TIP3   OH250436   1.131   0.263   1.105 -0.6833 -0.1196  0.1263
 9674TIP3    H150437   1.147   0.356   1.090 -2.6611 -0.0254 -1.7239
 9674TIP3    H250438   1.183   0.243   1.183  0.0569  2.4286  0.3835
 9675TIP3   OH250439   3.608   1.871  13.028  0.3315  0.6831  0.4991
 9675TIP3    H150440   3.525   1.883  12.982  1.0751  2.8751 -0.4171
 9675TIP3    H250441   3.606   1.935  13.099  0.7533 -0.0711  1.2071
 9676TIP3   OH250442   3.292   0.282   1.817  0.1511  0.1720 -0.3827
 9676TIP3    H150443   3.303   0.295   1.723 -0.8191  0.9534 -0.4058
 9676TIP3    H250444   3.364   0.331   1.857 -0.7001  1.7410 -0.6664
 9677TIP3   OH250445   1.144   0.447   3.405  0.6807  0.3806 -0.1254
 9677TIP3    H150446   1.174   0.369   3.453  0.7673  0.1278 -0.5836
 9677TIP3    H250447   1.096   0.498   3.470  1.8472  0.6528  0.5570
 9678TIP3   OH250448   3.159   3.560   1.690 -0.3562 -0.0688  0.2382
 9678TIP3    H150449   3.080   3.582   1.739 -0.9860  0.5800 -1.0079
 9678TIP3    H250450   3.191   3.644   1.657 -1.8842 -0.6551 -3.2598
 9679TIP3   OH250451   4.169   5.294   2.054 -0.0587  0.3603 -0.3876
 9679TIP3    H150452   4.111   5.303   2.129  1.2893 -2.5721  1.2256
 9679TIP3    H250453   4.210   5.380   2.045  0.4690  0.6312  2.9804
 9680TIP3   OH250454   5.920   0.759   2.025  0.2706  0.1696 -0.0432
 9680TIP3    H150455   5.912   0.754   1.930 -0.2731 -0.5520  0.0262
 9680TIP3    H250456   5.850   0.702   2.058 -1.2523  2.3825  0.8413
 9681TIP3   OH250457   3.307   0.262  16.289 -0.4191  0.1927 -0.3060
 9681TIP3    H150458   3.306   0.225  16.200 -0.6893 -1.4658  0.3384
 9681TIP3    H250459   3.217   0.251  16.320  0.0568 -0.8603  0.7748
 9682TIP3   OH250460   5.209   4.027  17.177 -0.7026 -0.3607 -0.6086
 9682TIP3    H150461   5.199   4.018  17.271 -0.5532 -0.8299 -0.6401
 9682TIP3    H250462   5.303   4.025  17.161 -0.7302 -0.3941 -0.7796
 9683TIP3   OH250463   6.484   5.987   1.023 -0.5518 -0.3743 -0.0999
 9683TIP3    H150464   6.553   5.995   1.089 -0.1597 -0.0262 -0.5538
 9683TIP3    H250465   6.434   6.069   1.031  0.6135  0.5243 -1.4917
 9684TIP3   OH250466   6.315   1.623   4.514  0.7806  0.1011 -0.1104
 9684TIP3    H150467   6.303   1.711   4.551 -0.3322 -0.3310  0.5772
 9684TIP3    H250468   6.312   1.564   4.589  0.6464 -0.6099 -0.6635
 9685TIP3   OH250469   1.199   5.887  14.500 -0.2222  0.6535 -0.4118
 9685TIP3    H150470   1.105   5.895  14.484 -0.2120  1.4050 -0.1561
 9685TIP3    H250471   1.237   5.963  14.455  0.4689 -0.5906 -2.0472
 9686TIP3   OH250472   0.417   2.430   5.325 -0.4311 -0.6568  0.3726
 9686TIP3    H150473   0.431   2.396   5.237  0.4578 -2.0205  1.0010
 9686TIP3    H250474   0.352   2.499   5.315 -0.0013 -0.4803 -1.4034
 9687TIP3   OH250475   5.176   0.332   4.824 -0.2616  0.3454 -0.0984
 9687TIP3    H150476   5.207   0.374   4.744 -2.1526  0.2375 -0.9428
 9687TIP3    H250477   5.156   0.242   4.798  0.1903 -0.0198  0.7818
 9688TIP3   OH250478   3.595   2.544  13.916 -0.2608 -0.2545  0.3852
 9688TIP3    H150479   3.568   2.613  13.855 -0.7038 -0.4945  0.3016
 9688TIP3    H250480   3.687   2.528  13.896 -0.2984 -0.0524  0.0515
 9689TIP3   OH250481   3.130   5.420  14.394 -0.2607  0.1511 -0.0722
 9689TIP3    H150482   3.191   5.480  14.437  0.0358 -1.3396  1.6915
 9689TIP3    H250483   3.072   5.391  14.464 -0.8274 -1.1029 -1.0215
 9690TIP3   OH250484   4.102   0.505  14.750  0.4419  0.7680 -0.1645
 9690TIP3    H150485   4.013   0.479  14.771  0.1165  1.3097 -0.8333
 9690TIP3    H250486   4.112   0.486  14.657  1.3757 -0.2336  0.1177
 9691TIP3   OH250487   0.449   0.096  14.327  0.6384  0.1760 -0.2102
 9691TIP3    H150488   0.513   0.099  14.398  0.0118  0.7645  0.3522
 9691TIP3    H250489   0.466   0.175  14.276 -0.6554  1.2145  0.8844
 9692TIP3   OH250490   3.872   4.904   6.565  0.7060 -0.2855 -0.1086
 9692TIP3    H150491   3.832   4.829   6.522  0.9527 -1.6475  1.8921
 9692TIP3    H250492   3.887   4.968   6.495  0.7430 -2.1971 -1.9139
 9693TIP3   OH250493   2.874   0.071  14.692 -0.3301 -0.2407  0.0788
 9693TIP3    H150494   2.838  -0.017  14.685 -0.6481 -0.0928 -0.2316
 9693TIP3    H250495   2.839   0.117  14.615 -1.7415  0.6975  1.2349
 9694TIP3   OH250496   5.376   3.038   5.687  0.6165  0.9753 -0.0257
 9694TIP3    H150497   5.304   2.989   5.725 -0.7812  1.0288 -2.4028
 9694TIP3    H250498   5.455   2.997   5.723 -0.5487  0.3337  1.9444
 9695TIP3   OH250499   1.953   5.273  10.980 -0.1825 -0.3535 -0.0930
 9695TIP3    H150500   1.924   5.288  10.890 -0.4260 -1.2944 -0.1865
 9695TIP3    H250501   2.025   5.210  10.971 -1.1697 -1.5961  0.4620
 9696TIP3   OH250502   5.839   5.863   0.353  0.4812 -0.2575  0.3649
 9696TIP3    H150503   5.882   5.819   0.425 -1.2017 -1.4494  0.6918
 9696TIP3    H250504   5.792   5.794   0.306  0.0912  0.7569 -0.8202
 9697TIP3   OH250505   3.131   2.039   4.575 -0.0802 -0.6258 -0.2580
 9697TIP3    H150506   3.047   2.077   4.550  0.0117 -0.6020 -0.5352
 9697TIP3    H250507   3.120   2.015   4.667 -0.6513 -1.3356 -0.4975
 9698TIP3   OH250508   4.705   3.856   3.181 -0.3335 -0.6999  0.6713
 9698TIP3    H150509   4.639   3.788   3.195 -1.1331  0.1265  1.0874
 9698TIP3    H250510   4.785   3.809   3.162 -1.5301 -1.7530 -2.3253
 9699TIP3   OH250511   2.155   3.569  16.390 -0.1887  0.0090  0.1097
 9699TIP3    H150512   2.172   3.507  16.319  0.0963  1.0423 -0.7552
 9699TIP3    H250513   2.065   3.552  16.416 -0.0318 -0.9327  0.0668
 9700TIP3   OH250514   1.753   1.056   4.835  0.0406  0.0649 -0.2507
 9700TIP3    H150515   1.669   1.079   4.876 -0.3888 -0.9639 -0.5135
 9700TIP3    H250516   1.810   1.035   4.908 -0.7733 -1.9308 -0.1223
 9701TIP3   OH250517   5.751   4.308   2.699 -0.0334 -0.3521  0.0442
 9701TIP3    H150518   5.667   4.347   2.676 -0.6551 -0.3197  2.1720
 9701TIP3    H250519   5.732   4.214   2.710 -0.3348 -0.0739  2.5263
 9702TIP3   OH250520   3.577   5.216  10.311 -0.1554 -0.4032 -0.5291
 9702TIP3    H150521   3.553   5.309  10.310  2.7989  0.4489 -1.9614
 9702TIP3    H250522   3.511   5.175  10.255 -2.0185  0.5958  0.7906
 9703TIP3   OH250523   1.489   5.400   1.598 -0.0013 -0.5169  0.7950
 9703TIP3    H150524   1.518   5.457   1.527  1.5208  1.0507  2.5456
 9703TIP3    H250525   1.397   5.381   1.577 -0.2312  1.6173 -0.5231
 9704TIP3   OH250526   2.207   1.446   3.380 -0.5491  0.4035 -0.1434
 9704TIP3    H150527   2.252   1.509   3.324 -0.8351  0.5486 -0.2130
 9704TIP3    H250528   2.272   1.420   3.445  0.5115 -1.4325 -1.8093
 9705TIP3   OH250529   2.967   1.085   1.228  0.4475  0.6469  0.9518
 9705TIP3    H150530   2.906   1.064   1.157  2.5162 -1.6827 -0.3244
 9705TIP3    H250531   2.942   1.172   1.256 -0.7086  1.5893 -2.4484
 9706TIP3   OH250532   2.348   4.547  16.189  0.5857 -0.0921 -0.1248
 9706TIP3    H150533   2.439   4.572  16.175  0.6863 -0.3688  0.0200
 9706TIP3    H250534   2.353   4.457  16.221  0.3306  0.2783  1.0142
 9707TIP3   OH250535   6.187   4.440  12.592 -0.6418 -0.5297 -0.0292
 9707TIP3    H150536   6.229   4.354  12.595  4.2487  1.4948  0.5221
 9707TIP3    H250537   6.188   4.470  12.683  1.5405  1.4983 -0.6229
 9708TIP3   OH250538   2.762   1.624   5.103  0.2592  0.0186 -0.3594
 9708TIP3    H150539   2.790   1.651   5.016 -0.4772 -0.5622 -0.7894
 9708TIP3    H250540   2.830   1.658   5.162  1.2138 -0.3076 -1.2365
 9709TIP3   OH250541   5.588   5.249   3.258 -0.8714  0.1759  0.2255
 9709TIP3    H150542   5.599   5.337   3.295  0.5767  0.7266 -1.4305
 9709TIP3    H250543   5.561   5.196   3.333 -0.8562  1.8163  1.4638
 9710TIP3   OH250544   2.806   1.160  16.303  0.0318  0.2811 -0.2486
 9710TIP3    H150545   2.772   1.125  16.385  0.2417  0.7052  0.0209
 9710TIP3    H250546   2.799   1.087  16.241  0.5035 -0.2568  0.3123
 9711TIP3   OH250547   4.187   6.257   2.294  0.2316  0.4311 -0.2410
 9711TIP3    H150548   4.248   6.303   2.236 -0.0681  1.6639  0.3885
 9711TIP3    H250549   4.151   6.326   2.350 -1.4293 -0.3413 -0.3104
 9712TIP3   OH250550   6.554   0.948   4.151 -0.2990  0.1233 -0.2415
 9712TIP3    H150551   6.586   1.035   4.126 -0.4156  0.2082 -0.0997
 9712TIP3    H250552   6.510   0.962   4.235  0.9234 -0.3299  0.5007
 9713TIP3   OH250553   6.303   6.549  15.932 -0.0633  0.3606  0.0065
 9713TIP3    H150554   6.383   6.501  15.911 -1.5733 -2.2060 -0.3211
 9713TIP3    H250555   6.264   6.569  15.847 -1.2611 -1.1840  0.1543
 9714TIP3   OH250556   2.296   4.391  14.252 -0.1902 -0.8262 -0.5036
 9714TIP3    H150557   2.208   4.428  14.243 -0.5363 -1.1333  1.2551
 9714TIP3    H250558   2.281   4.298  14.266  0.3640 -0.7901  0.3870
 9715TIP3   OH250559   6.370   0.259  16.726 -0.2951  0.7088 -0.4639
 9715TIP3    H150560   6.428   0.309  16.783 -0.2623  0.6896 -0.4806
 9715TIP3    H250561   6.422   0.239  16.649  0.2400 -0.8062  0.2564
 9716TIP3   OH250562   5.950   3.104   6.556 -0.3518 -0.1623 -0.4255
 9716TIP3    H150563   6.026   3.064   6.597 -1.2364  0.4370  2.0032
 9716TIP3    H250564   5.886   3.033   6.549 -0.1149 -0.3229 -1.0827
 9717TIP3   OH250565   0.025   1.861  11.475  0.1461 -0.1587  0.1129
 9717TIP3    H150566  -0.014   1.948  11.462 -1.6954 -1.0638 -0.7056
 9717TIP3    H250567  -0.027   1.821  11.544  1.1840 -0.5299  0.7100
 9718TIP3   OH250568   1.551   2.094  13.666 -0.1961  0.6487  0.1460
 9718TIP3    H150569   1.582   2.104  13.757 -1.8679  0.2821  0.7991
 9718TIP3    H250570   1.505   2.010  13.665 -1.6174  1.3980 -0.5869
 9719TIP3   OH250571   1.931   1.144  16.648  0.6915  0.4807 -0.5335
 9719TIP3    H150572   1.933   1.229  16.692  0.6656 -1.0733  2.6851
 9719TIP3    H250573   2.016   1.138  16.604  2.3348  0.6319  2.4175
 9720TIP3   OH250574   5.754   5.540   5.139  0.1013  0.0248 -0.5432
 9720TIP3    H150575   5.709   5.587   5.068 -0.8535 -0.3060 -0.1817
 9720TIP3    H250576   5.706   5.565   5.218 -1.3052 -2.5128 -0.4866
 9721TIP3   OH250577   1.298   3.365   0.062 -0.4317  0.0817  0.3310
 9721TIP3    H150578   1.352   3.306   0.010 -1.6723  0.0719 -1.0290
 9721TIP3    H250579   1.360   3.424   0.104  0.6575 -0.2467 -0.7538
 9722TIP3   OH250580   0.353   5.100  15.724 -0.0691  0.0114 -0.4565
 9722TIP3    H150581   0.341   5.018  15.677  0.3904  0.3753 -1.2290
 9722TIP3    H250582   0.269   5.145  15.716  0.6829  1.1331 -3.0690
 9723TIP3   OH250583   1.165   2.712  17.213 -0.0909 -0.8472 -0.2712
 9723TIP3    H150584   1.217   2.775  17.263  0.3092 -1.7193  0.4389
 9723TIP3    H250585   1.081   2.709  17.259  0.6911 -2.5699  1.1616
 9724TIP3   OH250586   5.492   3.448   4.021  0.6568 -0.3063 -0.0562
 9724TIP3    H150587   5.426   3.508   3.986  2.2366  0.8332 -1.1959
 9724TIP3    H250588   5.495   3.375   3.959  0.1973 -0.5687  0.2231
 9725TIP3   OH250589   5.596   1.813   4.232 -0.5568 -0.6286 -0.8726
 9725TIP3    H150590   5.518   1.758   4.228  0.4510 -2.2013 -0.0209
 9725TIP3    H250591   5.615   1.822   4.325  0.2247 -0.1900 -1.0604
 9726TIP3   OH250592   5.457   5.764  15.116 -0.7870  0.1573 -0.0178
 9726TIP3    H150593   5.375   5.715  15.130 -0.7085  0.1934  0.6204
 9726TIP3    H250594   5.448   5.841  15.172 -1.4295  1.5360 -1.9199
 9727TIP3   OH250595   0.639   6.592  10.870 -0.2044  0.0335  0.0729
 9727TIP3    H150596   0.652   6.539  10.948 -1.6146  1.9106  1.7040
 9727TIP3    H250597   0.726   6.601  10.832  0.7894  0.2218  2.2569
 9728TIP3   OH250598   2.106   3.114  16.397 -0.0847  0.3811 -0.3338
 9728TIP3    H150599   2.190   3.107  16.350 -0.1663  0.4642 -0.4922
 9728TIP3    H250600   2.083   3.023  16.417 -0.0767  0.3405 -0.5050
 9729TIP3   OH250601   0.320   0.311  12.750  0.1135  0.0743  0.4589
 9729TIP3    H150602   0.231   0.322  12.716  0.8016  1.1174 -1.1213
 9729TIP3    H250603   0.362   0.395  12.735  1.7985 -0.8302 -0.1759
 9730TIP3   OH250604   0.795   1.873   6.288 -0.1321 -0.1247  0.2033
 9730TIP3    H150605   0.788   1.802   6.224  0.9330  0.4034 -0.5239
 9730TIP3    H250606   0.712   1.869   6.336 -0.3358 -1.4858 -0.1970
 9731TIP3   OH250607   0.123   6.738  13.540  0.1162 -0.7843 -0.0509
 9731TIP3    H150608   0.143   6.714  13.450 -0.0147 -0.8275 -0.0680
 9731TIP3    H250609   0.120   6.655  13.587  0.6169 -0.7316  0.0800
 9732TIP3   OH250610   3.930   1.693  15.039  0.1153 -0.1751  0.0556
 9732TIP3    H150611   3.918   1.619  14.979 -0.3868  1.3323 -1.7950
 9732TIP3    H250612   3.885   1.666  15.119 -0.1730 -1.8125 -0.6174
 9733TIP3   OH250613   1.524   1.734   6.488 -0.1320 -0.1669  0.3089
 9733TIP3    H150614   1.572   1.774   6.561  0.3448  0.8506 -0.5422
 9733TIP3    H250615   1.507   1.806   6.428 -1.2591 -0.8454 -0.2028
 9734TIP3   OH250616   0.051   2.438  16.938  0.0488 -0.7033  0.1216
 9734TIP3    H150617  -0.031   2.487  16.929  0.2608  0.0600  1.9542
 9734TIP3    H250618   0.035   2.375  17.008  0.9225 -0.7459  0.3064
 9735TIP3   OH250619   0.740   3.810  10.881  0.1949  0.2280 -0.4662
 9735TIP3    H150620   0.809   3.871  10.856  1.9321 -0.2410  2.6717
 9735TIP3    H250621   0.666   3.865  10.906 -0.3880  0.7603 -3.0610
 9736TIP3   OH250622   3.119   2.525  11.074 -0.2111  0.0098  0.3217
 9736TIP3    H150623   3.178   2.464  11.118  0.6500 -0.5321 -1.4692
 9736TIP3    H250624   3.063   2.469  11.020 -0.4897  0.6901 -0.1026
 9737TIP3   OH250625   1.530   5.722   4.506  0.4984  0.4300  0.3986
 9737TIP3    H150626   1.489   5.766   4.431 -1.4098 -2.2236 -0.2702
 9737TIP3    H250627   1.458   5.706   4.567  2.0876  3.1067  3.3122
 9738TIP3   OH250628   2.786   2.285  14.423 -0.0612 -0.1058 -0.2716
 9738TIP3    H150629   2.833   2.236  14.491 -0.4756 -0.7130 -0.4189
 9738TIP3    H250630   2.714   2.328  14.470 -0.9136 -1.2791 -0.4559
 9739TIP3   OH250631   5.724   4.286  16.567  1.1558 -0.0186  0.1610
 9739TIP3    H150632   5.756   4.259  16.653 -2.3171  0.0390  1.6137
 9739TIP3    H250633   5.690   4.206  16.527  0.5117  0.3859 -0.1102
 9740TIP3   OH250634   3.675   3.152  15.210  0.5591 -1.1599 -0.6381
 9740TIP3    H150635   3.709   3.236  15.243  0.9860 -1.1277 -1.1478
 9740TIP3    H250636   3.670   3.097  15.287 -0.5775 -0.3938 -0.1361
 9741TIP3   OH250637   4.605   4.444   0.921 -0.2313  0.4786 -0.5408
 9741TIP3    H150638   4.520   4.486   0.913  0.4916  1.8948 -1.2396
 9741TIP3    H250639   4.599   4.393   1.002 -1.2445  1.7647  0.2313
 9742TIP3   OH250640   6.106   3.608  15.246 -0.3359 -0.1802  0.4832
 9742TIP3    H150641   6.131   3.524  15.282  1.2192 -1.1173 -2.4654
 9742TIP3    H250642   6.022   3.592  15.203 -0.2836 -0.1035  0.3495
 9743TIP3   OH250643   5.007   4.428   3.002 -0.0421  0.3182 -0.0143
 9743TIP3    H150644   5.087   4.407   2.954 -0.7443  0.8161 -1.4699
 9743TIP3    H250645   5.031   4.502   3.058  0.4706  0.5838 -0.5801
 9744TIP3   OH250646   1.502   3.400  16.237 -0.0080  0.7986 -0.5938
 9744TIP3    H150647   1.479   3.308  16.246 -0.7666  1.0907  0.6201
 9744TIP3    H250648   1.592   3.406  16.267  0.0989  0.4273 -0.8405
 9745TIP3   OH250649   5.732   0.499  15.959  0.0470 -0.0826  0.3676
 9745TIP3    H150650   5.683   0.417  15.962  2.1653 -1.4387  0.0463
 9745TIP3    H250651   5.824   0.473  15.963  0.9702  2.0223 -2.9081
 9746TIP3   OH250652   6.443   4.722   4.795  0.1446 -0.3105  0.3389
 9746TIP3    H150653   6.367   4.746   4.847  0.7265  2.1347  0.1705
 9746TIP3    H250654   6.515   4.774   4.832  1.3118 -1.1081 -0.7246
 9747TIP3   OH250655   5.350   5.325  17.066 -0.1147 -0.4682  0.0775
 9747TIP3    H150656   5.355   5.232  17.048 -0.1438 -0.7917  1.6352
 9747TIP3    H250657   5.282   5.334  17.132  0.6557  0.5165  0.7776
 9748TIP3   OH250658   5.599   2.309   5.960  0.5607  0.1899  0.2331
 9748TIP3    H150659   5.637   2.397   5.965  1.8990 -0.0674 -3.0493
 9748TIP3    H250660   5.527   2.316   5.898  1.0320 -1.0918 -0.5146
 9749TIP3   OH250661   0.828   1.498  17.063  0.8753 -0.8784 -0.0722
 9749TIP3    H150662   0.899   1.559  17.084 -0.0904  0.1251  0.3781
 9749TIP3    H250663   0.756   1.554  17.035  0.8304 -1.9705 -2.3613
 9750TIP3   OH250664   5.369   6.008   3.683 -0.1491  0.3155  0.4895
 9750TIP3    H150665   5.374   5.924   3.636 -0.6399 -0.3393  1.5639
 9750TIP3    H250666   5.328   5.986   3.766  0.7724  1.4424  1.2681
 9751TIP3   OH250667   2.695   0.571  15.763  0.3064 -0.1602 -0.3226
 9751TIP3    H150668   2.696   0.509  15.691 -0.3683  1.3012 -1.6643
 9751TIP3    H250669   2.630   0.536  15.825  0.9332 -1.4539 -0.3669
 9752TIP3   OH250670   6.357   3.275  13.096  0.6546 -0.5155 -0.1543
 9752TIP3    H150671   6.430   3.279  13.158  0.6532  0.7603 -0.1971
 9752TIP3    H250672   6.383   3.334  13.025 -0.9572  1.0469  0.4753
 9753TIP3   OH250673   1.249   5.790   2.077  0.4682  0.2000  0.5273
 9753TIP3    H150674   1.214   5.879   2.084 -0.3432 -0.0919  0.2272
 9753TIP3    H250675   1.337   5.802   2.041  0.4179  0.8948  0.6230
 9754TIP3   OH250676   2.341   1.179   1.619 -0.0336 -0.5020 -0.0572
 9754TIP3    H150677   2.419   1.142   1.658  1.4168  1.2636 -1.0948
 9754TIP3    H250678   2.360   1.273   1.612 -2.1062 -0.0701 -0.6576
 9755TIP3   OH250679   5.058   0.058   2.550 -0.1642  0.4699 -0.2598
 9755TIP3    H150680   4.974   0.043   2.506  0.5886  0.0598 -1.6081
 9755TIP3    H250681   5.095  -0.029   2.561  1.3348  0.7878 -2.2632
 9756TIP3   OH250682   1.473   5.128   4.606 -0.4970  0.1256 -0.0227
 9756TIP3    H150683   1.550   5.124   4.550  0.7367  0.1099  1.6008
 9756TIP3    H250684   1.419   5.054   4.579 -0.1699  0.3957 -1.4810
 9757TIP3   OH250685   5.716   3.991  14.167 -0.5420  0.2976  0.0974
 9757TIP3    H150686   5.650   4.058  14.147 -0.7515  0.2452  0.5798
 9757TIP3    H250687   5.668   3.908  14.162 -0.2462  0.1704 -0.6530
 9758TIP3   OH250688   0.123   1.455   5.410  0.4521  0.5811 -0.2247
 9758TIP3    H150689   0.079   1.525   5.458  1.4659 -0.1604  1.8727
 9758TIP3    H250690   0.216   1.474   5.419  0.8692 -1.9389  2.0326
 9759TIP3   OH250691   5.041   2.887   2.395 -0.3391 -0.0271 -0.3370
 9759TIP3    H150692   4.971   2.935   2.352 -0.2703  1.9665  1.6222
 9759TIP3    H250693   5.060   2.937   2.474  1.8239 -1.6908  0.2999
 9760TIP3   OH250694   4.890   0.519  12.198  0.1730  0.6890 -0.6067
 9760TIP3    H150695   4.922   0.610  12.196  0.8958  0.4697  0.1026
 9760TIP3    H250696   4.937   0.480  12.271 -1.9134  0.3816  0.6429
 9761TIP3   OH250697   1.152   3.746   0.311 -0.3932 -0.1414 -0.8613
 9761TIP3    H150698   1.106   3.822   0.347  0.5627  0.0717 -0.0277
 9761TIP3    H250699   1.213   3.783   0.248 -1.7957 -0.4835 -2.4807
 9762TIP3   OH250700   5.537   6.047   5.702  0.5098  0.4757  0.6443
 9762TIP3    H150701   5.463   5.992   5.730  1.3608 -0.6489  0.7417
 9762TIP3    H250702   5.610   5.986   5.692  1.4315  1.5668  0.5219
 9763TIP3   OH250703   1.473   0.045  16.498  0.0227 -0.0342 -0.1804
 9763TIP3    H150704   1.479   0.124  16.445  0.6307  0.1442  0.1406
 9763TIP3    H250705   1.402  -0.006  16.458  0.4678  0.0925 -1.1704
 9764TIP3   OH250706   1.093   1.035  14.393  0.1036  0.1614 -0.0812
 9764TIP3    H150707   1.061   1.080  14.472  1.7068  3.0213 -0.9091
 9764TIP3    H250708   1.014   1.023  14.340 -0.7716 -0.4312  1.3019
 9765TIP3   OH250709   3.178   0.261   3.550 -0.5526 -0.5284 -0.0936
 9765TIP3    H150710   3.097   0.211   3.542  0.9204 -3.0923  0.0806
 9765TIP3    H250711   3.244   0.208   3.506  0.8601  2.1048 -1.4191
 9766TIP3   OH250712   0.426   3.682  14.571  0.3363 -0.5006  0.3036
 9766TIP3    H150713   0.485   3.632  14.515 -1.0649  0.2847 -2.0155
 9766TIP3    H250714   0.343   3.634  14.568 -1.3013  2.1551 -2.6559
 9767TIP3   OH250715   1.662   2.780  11.465  0.3310 -0.0061 -0.0179
 9767TIP3    H150716   1.591   2.731  11.425 -0.2388 -0.1971  1.1812
 9767TIP3    H250717   1.642   2.780  11.559  2.4088 -0.9294  0.4957
 9768TIP3   OH250718   4.222   1.866   2.353 -0.6595  0.0207 -0.6766
 9768TIP3    H150719   4.194   1.819   2.432  2.7421  0.4686  0.9830
 9768TIP3    H250720   4.208   1.959   2.374 -1.4641  0.0603 -1.3689
 9769TIP3   OH250721   0.392   5.799   0.527  0.5185 -0.1731  0.0756
 9769TIP3    H150722   0.393   5.850   0.446  0.5420 -0.5923 -0.1919
 9769TIP3    H250723   0.428   5.858   0.593  0.7600  0.0780 -0.2768
 9770TIP3   OH250724   1.616   0.883   2.058  0.1441 -0.2612  0.0178
 9770TIP3    H150725   1.555   0.836   2.115  0.8141 -1.7017 -0.3956
 9770TIP3    H250726   1.662   0.943   2.116 -0.2553 -0.6122  0.7103
 9771TIP3   OH250727   2.745   2.088   5.670 -0.5115 -0.6349  0.0981
 9771TIP3    H150728   2.772   2.001   5.698  0.4808 -0.3998 -0.0892
 9771TIP3    H250729   2.816   2.119   5.614 -2.0576 -0.7504 -2.0622
 9772TIP3   OH250730   6.760   3.393   6.123  0.5262  0.4833  0.2964
 9772TIP3    H150731   6.696   3.322   6.133  1.5152 -0.3501  0.8188
 9772TIP3    H250732   6.843   3.355   6.151  0.8813  2.1946  1.7233
 9773TIP3   OH250733   1.166   4.510   3.754 -0.3367 -0.4659 -0.3581
 9773TIP3    H150734   1.150   4.542   3.665  1.2526 -2.0367 -1.3026
 9773TIP3    H250735   1.258   4.531   3.770 -0.4616 -0.6954  0.7080
 9774TIP3   OH250736   5.471   4.780   2.975  0.7771  0.0029 -0.0660
 9774TIP3    H150737   5.487   4.802   2.883  4.1547  0.2726  0.4552
 9774TIP3    H250738   5.526   4.840   3.024 -1.9510  0.7910  2.3255
 9775TIP3   OH250739   1.553   6.716   4.492 -0.3729 -0.7931 -0.8390
 9775TIP3    H150740   1.609   6.648   4.529  1.5665  1.2081  0.1611
 9775TIP3    H250741   1.518   6.762   4.569  0.4915  0.9373 -1.4271
 9776TIP3   OH250742   5.004   1.993  12.415  0.0610  0.0086 -0.1834
 9776TIP3    H150743   5.089   1.964  12.446 -1.1052 -1.8946  1.4911
 9776TIP3    H250744   5.023   2.069  12.360  2.5796  1.5117  2.4662
 9777TIP3   OH250745   1.804   5.307  16.180 -0.3607  0.1817  0.1960
 9777TIP3    H150746   1.737   5.315  16.248 -0.8003 -0.6856 -0.1184
 9777TIP3    H250747   1.850   5.391  16.182  0.5833 -0.2868  2.5342
 9778TIP3   OH250748   0.842   4.212   4.695 -0.2133 -0.5453  0.1109
 9778TIP3    H150749   0.817   4.230   4.604  1.1562 -3.6415 -1.0094
 9778TIP3    H250750   0.764   4.231   4.746 -1.4610 -0.0433 -1.8940
 9779TIP3   OH250751   2.279   2.261  13.602 -0.2073  0.1407 -0.0178
 9779TIP3    H150752   2.291   2.263  13.697 -1.6666 -0.7129  0.2070
 9779TIP3    H250753   2.195   2.218  13.589 -0.8916  1.8385 -1.6453
 9780TIP3   OH250754   6.037   0.476  12.359 -0.5469  0.0216 -0.3568
 9780TIP3    H150755   5.964   0.436  12.406 -1.3919  0.1819 -1.4989
 9780TIP3    H250756   6.063   0.409  12.295  0.7221 -0.2784  0.4356
 9781TIP3   OH250757   5.249   2.892   0.366  0.3782 -0.5415 -0.2854
 9781TIP3    H150758   5.299   2.912   0.287 -0.0800 -2.6009 -1.1490
 9781TIP3    H250759   5.306   2.918   0.438  1.2657  0.3277 -1.2734
 9782TIP3   OH250760   4.387   0.997  16.201 -0.4895 -0.0284  0.6376
 9782TIP3    H150761   4.445   0.942  16.253 -0.0499  0.1226  0.3142
 9782TIP3    H250762   4.315   1.018  16.260 -0.5688 -0.7931  0.8205
 9783TIP3   OH250763   3.511   0.145   5.527  0.0207  0.0484 -0.2094
 9783TIP3    H150764   3.494   0.052   5.543 -0.6353 -0.1326 -1.7959
 9783TIP3    H250765   3.606   0.152   5.535  0.0766 -0.7420 -0.0041
 9784TIP3   OH250766   1.592   3.790   4.014 -0.0790  0.2667  0.1107
 9784TIP3    H150767   1.630   3.871   4.048  0.5500 -0.1716  0.4882
 9784TIP3    H250768   1.628   3.721   4.071  0.1687 -0.3748 -0.7873
 9785TIP3   OH250769   3.519   6.695  14.020  0.2089 -0.1941  0.4935
 9785TIP3    H150770   3.511   6.603  13.996 -1.3202 -0.3659  1.5454
 9785TIP3    H250771   3.437   6.735  13.991  0.2624  0.5224  1.2726
 9786TIP3   OH250772   4.151   1.909   3.820  0.6225 -0.6053 -0.1078
 9786TIP3    H150773   4.234   1.956   3.809 -0.5974  1.5151 -0.7907
 9786TIP3    H250774   4.174   1.834   3.874  2.7690  0.5987  0.8038
 9787TIP3   OH250775   0.649   4.309   0.082 -0.0903 -0.4121  0.5613
 9787TIP3    H150776   0.693   4.392   0.099  1.1137 -0.9901  0.3398
 9787TIP3    H250777   0.719   4.244   0.077 -0.9086 -1.2649 -0.4427
 9788TIP3   OH250778   0.572   2.322   3.653  0.0728 -0.7976 -0.5758
 9788TIP3    H150779   0.531   2.406   3.633  1.0930 -0.5324 -1.6566
 9788TIP3    H250780   0.499   2.265   3.678 -0.6158  0.4488  0.3959
 9789TIP3   OH250781   1.514   2.167  11.965  0.4600 -0.0317 -0.7014
 9789TIP3    H150782   1.559   2.236  12.014  0.2275  0.1662 -0.7659
 9789TIP3    H250783   1.545   2.178  11.875 -0.5038  0.7781 -0.9595
 9790TIP3   OH250784   1.479   0.089   4.713  0.7344  0.7691 -0.1750
 9790TIP3    H150785   1.486   0.184   4.702  2.6814  0.4881 -2.0630
 9790TIP3    H250786   1.547   0.067   4.776 -0.1143  0.6576  0.7251
 9791TIP3   OH250787   0.707   5.038   6.301  0.8283  0.1172 -0.5569
 9791TIP3    H150788   0.632   5.003   6.349  2.3060 -0.6506  1.2992
 9791TIP3    H250789   0.758   4.960   6.277  1.3968  0.6693 -1.1680
 9792TIP3   OH250790   0.913   5.707  11.338 -0.1578 -0.3066  0.2906
 9792TIP3    H150791   0.844   5.659  11.290  0.7545 -0.4640 -0.9186
 9792TIP3    H250792   0.866   5.752  11.408 -1.7231  0.6638 -1.2931
 9793TIP3   OH250793   5.704   4.021  13.040 -0.0566 -0.3784 -0.2280
 9793TIP3    H150794   5.780   4.009  12.984  0.0747  1.6804 -0.5556
 9793TIP3    H250795   5.704   4.114  13.061 -1.9303 -0.5226  0.5887
 9794TIP3   OH250796   3.749   5.211  15.396 -0.0966 -0.1855  1.0973
 9794TIP3    H150797   3.825   5.188  15.449  0.4196  1.0125  0.9060
 9794TIP3    H250798   3.753   5.150  15.322  0.6381 -0.1891  1.1304
 9795TIP3   OH250799   5.515   1.265  13.608 -0.2256 -0.8071 -0.3484
 9795TIP3    H150800   5.421   1.276  13.593 -0.0714 -0.1824 -0.8789
 9795TIP3    H250801   5.520   1.216  13.691 -1.0073 -0.0616  0.1596
 9796TIP3   OH250802   0.152   4.853  16.201  0.2097  0.2219  0.1177
 9796TIP3    H150803   0.208   4.930  16.194 -0.5986  0.6869 -1.9250
 9796TIP3    H250804   0.212   4.781  16.223  0.7955  1.5509  3.5176
 9797TIP3   OH250805   1.408   3.209   3.608  0.5815  0.3339 -0.1038
 9797TIP3    H150806   1.492   3.225   3.565  0.5693  1.7222  0.3619
 9797TIP3    H250807   1.376   3.128   3.568  1.4923  0.5207 -1.2580
 9798TIP3   OH250808   0.653   5.786  16.413 -0.1532 -0.0174  0.5515
 9798TIP3    H150809   0.607   5.721  16.360 -2.6137  0.5377  1.8432
 9798TIP3    H250810   0.644   5.867  16.363 -0.4771  0.0662  0.7441
 9799TIP3   OH250811   4.347   2.042   6.222  0.1599  0.4047  0.1538
 9799TIP3    H150812   4.411   2.000   6.163 -0.8606 -0.6958 -0.2069
 9799TIP3    H250813   4.379   2.023   6.310 -0.4369 -1.4533  0.0062
 9800TIP3   OH250814   2.480   0.575   2.357 -0.5419 -1.0755 -0.0334
 9800TIP3    H150815   2.542   0.642   2.328 -1.5485 -0.0067  0.2305
 9800TIP3    H250816   2.497   0.500   2.300 -0.9220  0.1728 -1.8623
 9801TIP3   OH250817   4.553   3.794  14.082 -0.1456  0.0663 -0.1369
 9801TIP3    H150818   4.543   3.716  14.028  1.2716 -0.7630  0.7363
 9801TIP3    H250819   4.625   3.842  14.043 -0.1319  0.2481  0.1077
 9802TIP3   OH250820   2.494   4.506   2.291 -0.2067 -0.3445  0.1190
 9802TIP3    H150821   2.459   4.426   2.331  1.8922 -0.2224  2.4623
 9802TIP3    H250822   2.424   4.570   2.301 -0.8995 -1.1723  0.7739
 9803TIP3   OH250823   5.761   1.260  16.180 -0.3208  0.2110  0.3127
 9803TIP3    H150824   5.818   1.184  16.187 -0.4986  0.1912  1.7996
 9803TIP3    H250825   5.743   1.286  16.270 -0.5258  1.8261 -0.1491
 9804TIP3   OH250826   3.735   3.764  13.113 -0.0866 -0.2609 -0.3077
 9804TIP3    H150827   3.774   3.761  13.025  0.8184  2.3881 -0.0688
 9804TIP3    H250828   3.796   3.817  13.165 -1.0620 -1.0046  1.7105
 9805TIP3   OH250829   0.641   6.318  15.311 -0.1251 -0.4587  0.3740
 9805TIP3    H150830   0.681   6.404  15.324 -1.1355  0.2257 -0.7532
 9805TIP3    H250831   0.668   6.292  15.224  1.5964 -2.1383  1.3447
 9806TIP3   OH250832   1.846   6.708  14.710  0.0140 -0.2180 -0.2301
 9806TIP3    H150833   1.800   6.664  14.782 -0.3573  0.9660  0.2728
 9806TIP3    H250834   1.911   6.763  14.753  2.5528 -2.4175 -0.9351
 9807TIP3   OH250835   1.662   5.511  14.000  0.1232 -0.2367  0.0997
 9807TIP3    H150836   1.582   5.483  13.955 -1.4842  1.9076  1.4353
 9807TIP3    H250837   1.689   5.591  13.955 -0.5032  0.9539  1.7376
 9808TIP3   OH250838   4.973   0.493   5.303 -0.1552  0.2594 -0.0871
 9808TIP3    H150839   4.884   0.475   5.273  0.5876 -0.1380 -2.2804
 9808TIP3    H250840   5.028   0.440   5.246  1.4786 -0.1173  1.7347
 9809TIP3   OH250841   4.151   6.558  11.660  0.6490  0.0786  0.1794
 9809TIP3    H150842   4.113   6.592  11.579  0.5764  1.5962  0.8059
 9809TIP3    H250843   4.220   6.498  11.632 -0.0160 -0.1542 -0.9884
 9810TIP3   OH250844   0.063   0.946   1.869 -0.6666  0.4298 -0.2117
 9810TIP3    H150845   0.069   0.864   1.918  1.1008  1.9981  2.4191
 9810TIP3    H250846   0.040   0.918   1.780  2.9705 -3.2647 -0.3062
 9811TIP3   OH250847   2.341   6.574  13.308 -0.0376  0.3178 -0.0921
 9811TIP3    H150848   2.366   6.665  13.295  0.6241  0.6581  2.9010
 9811TIP3    H250849   2.423   6.525  13.306  0.1297  0.3897  2.0936
 9812TIP3   OH250850   5.689   6.509  13.881  0.3835  0.3663 -0.6158
 9812TIP3    H150851   5.731   6.428  13.853 -0.5143 -0.8213  1.2563
 9812TIP3    H250852   5.610   6.480  13.927  0.5477  2.2317  0.9943
 9813TIP3   OH250853   6.775   3.764  14.732 -0.1850  0.1833 -0.6238
 9813TIP3    H150854   6.683   3.772  14.758 -0.0269  0.8281 -0.2268
 9813TIP3    H250855   6.773   3.719  14.648 -0.7930 -0.8343 -0.0848
 9814TIP3   OH250856   1.060   0.061  15.722 -0.1821  0.2998  0.2138
 9814TIP3    H150857   0.987   0.022  15.674  0.5234 -0.6171 -0.1408
 9814TIP3    H250858   1.045   0.155  15.716 -2.4484  0.1183  1.9162
 9815TIP3   OH250859   6.490   1.273  11.326  0.0465 -0.0863 -0.1326
 9815TIP3    H150860   6.425   1.228  11.272 -1.3098  1.9613 -0.3177
 9815TIP3    H250861   6.572   1.227  11.307 -0.9237 -1.3343 -1.6136
 9816TIP3   OH250862   0.743   6.792   0.937  0.4521 -0.4599  0.2507
 9816TIP3    H150863   0.800   6.807   0.862 -0.4579 -2.7741 -1.0066
 9816TIP3    H250864   0.672   6.856   0.927  0.4023 -0.6648 -0.8043
 9817TIP3   OH250865   4.021   2.982   4.214  0.1172  0.6125  0.2624
 9817TIP3    H150866   3.943   3.010   4.167  0.0312 -0.2506 -0.1319
 9817TIP3    H250867   4.065   3.064   4.238 -1.2691  1.1372  1.1507
 9818TIP3   OH250868   5.853   5.564  14.520  0.3359  0.2508 -0.4640
 9818TIP3    H150869   5.870   5.652  14.555  1.7869 -1.0075  2.3433
 9818TIP3    H250870   5.779   5.532  14.571  0.7652 -0.6471 -0.3776
 9819TIP3   OH250871   4.554   2.361  12.023  0.0906 -0.5394 -0.3018
 9819TIP3    H150872   4.469   2.317  12.014  0.1095 -0.8448  0.8818
 9819TIP3    H250873   4.617   2.297  11.990 -0.0359 -0.7538 -0.1288
 9820TIP3   OH250874   2.110   6.455  16.868 -0.0154 -0.2835 -0.5816
 9820TIP3    H150875   2.184   6.462  16.928  0.3130  0.2890 -1.0405
 9820TIP3    H250876   2.115   6.366  16.834 -0.3468 -0.6918  0.4101
 9821TIP3   OH250877   2.250   4.248  12.570  0.1435 -0.0611  0.4941
 9821TIP3    H150878   2.339   4.253  12.605  0.3272 -0.0133  0.0354
 9821TIP3    H250879   2.200   4.201  12.637  1.3102 -3.2434 -0.6768
 9822TIP3   OH250880   5.037   5.284   2.153 -0.1598 -0.9757 -0.7690
 9822TIP3    H150881   4.990   5.200   2.148 -2.8396  0.3507 -0.1039
 9822TIP3    H250882   4.999   5.327   2.229  0.1645  1.3802 -1.8643
 9823TIP3   OH250883   0.968   0.010  15.393 -0.3790 -0.7294  0.5144
 9823TIP3    H150884   1.000   0.088  15.347  0.4051 -0.0424  2.1150
 9823TIP3    H250885   0.899   0.044  15.451 -0.2496 -1.2751  0.9934
 9824TIP3   OH250886   3.745   4.877   4.129 -0.0379 -0.1319 -0.1095
 9824TIP3    H150887   3.816   4.878   4.194 -1.0664  0.7518  1.0580
 9824TIP3    H250888   3.789   4.890   4.045  1.1762  0.5031  0.5967
 9825TIP3   OH250889   1.607   6.075   1.288  0.1199 -0.2257 -0.0520
 9825TIP3    H150890   1.566   6.072   1.374  0.2588 -1.0767 -0.0076
 9825TIP3    H250891   1.651   5.990   1.279  1.5086  0.4999 -0.2864
 9826TIP3   OH250892   5.006   5.662  12.423  0.8627  0.5435 -0.8503
 9826TIP3    H150893   5.010   5.753  12.395  1.4915  0.4282 -1.1657
 9826TIP3    H250894   5.062   5.658  12.501 -1.3365  0.9821  0.8500
 9827TIP3   OH250895   0.742   4.118   0.743 -0.5462  0.5952 -0.9057
 9827TIP3    H150896   0.700   4.105   0.828 -0.2127 -2.0869 -1.0640
 9827TIP3    H250897   0.799   4.194   0.755 -1.1068  0.7430  1.0196
 9828TIP3   OH250898   3.618   0.386   4.486  0.0218 -0.6530  0.0268
 9828TIP3    H150899   3.668   0.411   4.563  1.0049  0.1381 -0.8452
 9828TIP3    H250900   3.573   0.466   4.459 -2.4888 -1.5384  1.2980
 9829TIP3   OH250901   3.819   2.297  13.654  0.8906  0.1733  0.3176
 9829TIP3    H150902   3.834   2.368  13.717 -0.0393  1.5249 -0.9343
 9829TIP3    H250903   3.842   2.217  13.703 -1.2387  0.9879  2.9199
 9830TIP3   OH250904   2.430   1.386   3.046  0.4028  0.5103  0.5382
 9830TIP3    H150905   2.500   1.326   3.072  0.3123  0.2371  0.1673
 9830TIP3    H250906   2.409   1.360   2.956  0.6668  1.3804  0.2113
 9831TIP3   OH250907   5.468   0.831   2.007 -0.4152  0.4417  0.0061
 9831TIP3    H150908   5.492   0.768   1.939 -0.1860  0.7730 -0.2232
 9831TIP3    H250909   5.539   0.895   2.006  0.3918 -0.3900  1.6255
 9832TIP3   OH250910   0.153   2.911  15.206 -0.2991  0.1835 -0.3267
 9832TIP3    H150911   0.063   2.881  15.211 -0.4971  0.4490 -1.9214
 9832TIP3    H250912   0.202   2.853  15.265 -1.1791 -1.2090 -0.9360
 9833TIP3   OH250913   2.903   2.371   5.283 -0.1446 -0.1269 -0.4359
 9833TIP3    H150914   2.970   2.317   5.242  0.6519  0.2310  0.3650
 9833TIP3    H250915   2.907   2.454   5.237 -0.8923 -0.5020 -1.2029
 9834TIP3   OH250916   1.335   0.972  13.563 -0.4647  0.4581  0.0766
 9834TIP3    H150917   1.289   1.053  13.540  0.9071  0.8051 -1.6306
 9834TIP3    H250918   1.346   0.926  13.480 -0.4376 -1.0972  0.8872
 9835TIP3   OH250919   6.026   3.855   0.455  0.2305 -0.6232  0.1367
 9835TIP3    H150920   6.099   3.806   0.419 -0.1382  0.3977 -2.2059
 9835TIP3    H250921   6.063   3.941   0.476 -0.5271  0.6295 -2.9816
 9836TIP3   OH250922   6.346   6.503  12.675 -0.0616 -0.4932 -0.2711
 9836TIP3    H150923   6.264   6.552  12.672 -1.2153 -2.3190 -0.5945
 9836TIP3    H250924   6.359   6.484  12.768 -0.7208 -1.2642 -0.3197
 9837TIP3   OH250925   6.171   0.676  13.356 -0.0025 -0.1510 -0.1163
 9837TIP3    H150926   6.156   0.636  13.442 -0.3637 -0.0199 -0.1172
 9837TIP3    H250927   6.114   0.627  13.297 -0.8162  0.6710 -0.0354
 9838TIP3   OH250928   2.035   3.863  11.391  0.1025 -0.0024 -0.8013
 9838TIP3    H150929   2.003   3.950  11.367 -2.0047 -0.9554 -1.7741
 9838TIP3    H250930   2.072   3.829  11.310 -1.5570 -0.9844 -1.1890
 9839TIP3   OH250931   3.989   6.188   1.164  0.3623 -0.1091 -0.0756
 9839TIP3    H150932   4.040   6.232   1.232  0.4740  2.7577 -1.8599
 9839TIP3    H250933   3.900   6.220   1.175 -0.4758 -2.5536  0.9604
 9840TIP3   OH250934   6.619   3.060   5.891 -0.8619 -0.1452  0.3193
 9840TIP3    H150935   6.675   3.046   5.815  2.0855 -1.3939  2.5240
 9840TIP3    H250936   6.541   3.007   5.874 -0.1546 -0.6237 -1.6708
 9841TIP3   OH250937   0.078   1.378   3.414  0.0131  0.4059 -0.5396
 9841TIP3    H150938   0.011   1.342   3.471  0.0341  0.3343 -0.5609
 9841TIP3    H250939   0.101   1.462   3.455 -0.6033  0.7712 -0.9285
 9842TIP3   OH250940   5.720   2.803  15.965 -0.2237 -0.4169 -0.5036
 9842TIP3    H150941   5.658   2.850  16.020 -0.6707 -0.3182 -1.0725
 9842TIP3    H250942   5.687   2.817  15.876  0.4847 -0.5665 -0.7906
 9843TIP3   OH250943   2.496   0.151  15.204  0.3250  0.2995  0.1632
 9843TIP3    H150944   2.497   0.234  15.156  0.1347  0.2033 -0.0066
 9843TIP3    H250945   2.517   0.176  15.294  0.1519  0.5476  0.1355
 9844TIP3   OH250946   3.688   1.890   5.122  0.1672  0.2472 -0.4681
 9844TIP3    H150947   3.665   1.801   5.149 -1.6443  1.1672  1.2568
 9844TIP3    H250948   3.652   1.899   5.034 -0.1098 -0.5247 -0.4417
 9845TIP3   OH250949   5.447   0.140  14.327 -0.6669  0.4587  0.6898
 9845TIP3    H150950   5.387   0.068  14.306 -0.3007  0.4274 -0.2910
 9845TIP3    H250951   5.397   0.219  14.309 -0.2110  0.4356 -0.8258
 9846TIP3   OH250952   4.651   2.147  15.016 -0.2383  0.7798  0.1501
 9846TIP3    H150953   4.720   2.115  14.958 -1.9504 -2.1494 -0.4678
 9846TIP3    H250954   4.681   2.125  15.104  0.3239  0.9948  0.0131
 9847TIP3   OH250955   0.249   6.550   4.517  0.0290 -0.5586  0.3472
 9847TIP3    H150956   0.243   6.595   4.602 -0.3740  0.2809 -0.1131
 9847TIP3    H250957   0.283   6.616   4.457  0.0030 -1.0540 -0.2249
 9848TIP3   OH250958   0.919   2.672  16.581 -0.5776  0.3908 -0.7506
 9848TIP3    H150959   0.831   2.669  16.544  0.2244 -3.8372 -2.9429
 9848TIP3    H250960   0.977   2.653  16.508  1.7941 -0.7904  1.2576
 9849TIP3   OH250961   4.227   3.038   4.671 -0.0348 -0.1918 -0.5504
 9849TIP3    H150962   4.204   2.945   4.666 -0.5978 -0.1297  0.4909
 9849TIP3    H250963   4.151   3.084   4.635  0.4096 -0.1327 -1.4463
 9850TIP3   OH250964   5.176   4.693  15.513 -0.4927  0.0185 -0.0038
 9850TIP3    H150965   5.083   4.686  15.492 -0.4132 -1.0039 -0.0263
 9850TIP3    H250966   5.211   4.605  15.500  0.5461  0.4596 -0.2911
 9851TIP3   OH250967   5.091   0.467  12.410  0.4046  0.0033 -0.0238
 9851TIP3    H150968   5.125   0.545  12.454  1.3462 -0.6242  0.3776
 9851TIP3    H250969   5.153   0.398  12.431 -0.7723 -1.0320  0.1972
 9852TIP3   OH250970   2.554   1.051   0.419 -0.1023  0.3185 -0.2521
 9852TIP3    H150971   2.612   0.975   0.409 -0.8290 -0.2706 -0.0949
 9852TIP3    H250972   2.541   1.084   0.330  1.9969  1.6516 -0.1386
 9853TIP3   OH250973   4.093   1.336   4.581 -0.0110  0.0555 -0.7009
 9853TIP3    H150974   4.154   1.362   4.511 -0.7565  0.9719 -1.0245
 9853TIP3    H250975   4.115   1.392   4.655  1.0524 -1.1991 -0.0338
 9854TIP3   OH250976   4.725   3.199   5.784 -0.2886  0.2805  0.6368
 9854TIP3    H150977   4.784   3.274   5.776 -1.5749  1.2472 -0.1930
 9854TIP3    H250978   4.638   3.236   5.771 -0.8998 -1.4736 -0.6621
 9855TIP3   OH250979   0.589   0.364  10.716  0.4551  0.1216  0.2188
 9855TIP3    H150980   0.584   0.432  10.648  0.1693 -0.6569 -0.5620
 9855TIP3    H250981   0.542   0.290  10.679 -0.0392 -0.1974  1.4446
 9856TIP3   OH250982   0.180   5.976   3.776 -0.0054  0.1296 -0.0659
 9856TIP3    H150983   0.104   5.972   3.834 -0.6549  1.3227 -0.7962
 9856TIP3    H250984   0.254   5.987   3.835 -0.4711 -0.2862  0.6169
 9857TIP3   OH250985   5.045   6.602   3.317  0.1509 -0.3056 -0.3273
 9857TIP3    H150986   5.091   6.684   3.301  1.1037 -1.0036 -1.2809
 9857TIP3    H250987   5.091   6.537   3.263  0.2420 -1.7373  1.3607
 9858TIP3   OH250988   3.687   2.344   1.313  0.2951 -0.2908  0.2210
 9858TIP3    H150989   3.612   2.387   1.353 -0.4252 -1.7405  0.5053
 9858TIP3    H250990   3.716   2.405   1.245 -0.1488  0.9885  1.1514
 9859TIP3   OH250991   1.417   1.872  13.607  0.6834  0.6613 -0.2577
 9859TIP3    H150992   1.428   1.869  13.512  0.8008  0.0939 -0.2254
 9859TIP3    H250993   1.466   1.797  13.640  0.3060  0.6213  0.2221
 9860TIP3   OH250994   2.422   2.168  11.788 -0.4859 -0.2072  0.3135
 9860TIP3    H150995   2.334   2.170  11.750  0.3963 -0.3635 -1.8411
 9860TIP3    H250996   2.434   2.077  11.815  0.3749 -1.2255 -2.9953
 9861TIP3   OH250997   0.482   6.144  13.095  0.1155 -0.6592  0.4239
 9861TIP3    H150998   0.469   6.052  13.072  1.5359 -1.8584  3.7460
 9861TIP3    H250999   0.555   6.173  13.041 -0.2900 -1.4862 -0.5842
 9862TIP3   OH251000   3.425   4.909  12.037 -0.7365  0.1573  0.3185
 9862TIP3    H151001   3.460   4.841  11.979  0.1183  0.5315  0.3829
 9862TIP3    H251002   3.480   4.985  12.021 -0.5409  0.2937  1.5492
 9863TIP3   OH251003   1.605   3.564  10.863 -0.0918  0.1386  0.2906
 9863TIP3    H151004   1.657   3.490  10.831  1.4452  0.8892  0.9246
 9863TIP3    H251005   1.527   3.524  10.902 -1.0620 -0.8960 -2.5117
 9864TIP3   OH251006   5.725   2.747   0.893 -0.1036  0.3262  0.1220
 9864TIP3    H151007   5.641   2.717   0.930  0.5997 -1.3794  0.4278
 9864TIP3    H251008   5.750   2.821   0.948 -1.7521  1.3700 -0.4469
 9865TIP3   OH251009   0.228   2.090  16.565  0.4494  0.1465  0.7165
 9865TIP3    H151010   0.280   2.163  16.598 -1.6282  1.6838  0.7298
 9865TIP3    H251011   0.256   2.015  16.618  2.9212  0.7657  0.4214
 9866TIP3   OH251012   2.924   3.127  10.304  0.0547  0.2394  0.1271
 9866TIP3    H151013   2.985   3.134  10.377  0.7890 -0.4879 -0.3919
 9866TIP3    H251014   2.968   3.069  10.242 -0.8719  0.2586 -0.5694
 9867TIP3   OH251015   5.162   0.278  16.191  0.0894  0.2370 -0.2828
 9867TIP3    H151016   5.130   0.205  16.137 -2.1432 -0.9513  2.3401
 9867TIP3    H251017   5.100   0.349  16.173  1.3855  1.0558 -1.7279
 9868TIP3   OH251018   4.105   2.043   2.583 -0.1676 -0.2763  0.2604
 9868TIP3    H151019   4.111   2.115   2.520  2.9763 -0.7174 -0.0980
 9868TIP3    H251020   4.111   2.085   2.668  0.3799  0.0106  0.0888
 9869TIP3   OH251021   0.256   3.315   4.567  0.3214 -0.0627 -0.5221
 9869TIP3    H151022   0.351   3.325   4.567  0.3048  0.1988  0.7455
 9869TIP3    H251023   0.241   3.232   4.611 -0.1163  1.2915  2.1040
 9870TIP3   OH251024   1.876   2.304  10.713  0.0406 -0.1995  0.3997
 9870TIP3    H151025   1.943   2.363  10.679 -0.7514  2.1197  2.5391
 9870TIP3    H251026   1.812   2.362  10.755 -4.1818 -2.0757 -2.6660
 9871TIP3   OH251027   1.327   2.676  14.390  0.4955  0.3032 -0.4221
 9871TIP3    H151028   1.279   2.749  14.351 -0.3817 -0.6874 -1.2604
 9871TIP3    H251029   1.394   2.654  14.325  0.2245 -0.1616 -0.5482
 9872TIP3   OH251030   5.432   0.326   1.856 -0.0982  0.0432 -0.1159
 9872TIP3    H151031   5.384   0.265   1.799 -2.4452 -0.0282  1.7678
 9872TIP3    H251032   5.484   0.270   1.913 -0.2097 -0.0578 -0.1124
 9873TIP3   OH251033   3.336   3.748   5.516  0.1041  0.2759 -0.3343
 9873TIP3    H151034   3.390   3.708   5.585  0.4652  3.1338  1.1957
 9873TIP3    H251035   3.250   3.707   5.526  0.7354 -0.9245  0.3797
 9874TIP3   OH251036   5.511   2.387  16.272 -0.0209  0.1410  0.3681
 9874TIP3    H151037   5.454   2.457  16.240 -0.3550 -0.5143 -0.5187
 9874TIP3    H251038   5.585   2.387  16.211 -0.8228 -1.3336 -0.6863
 9875TIP3   OH251039   5.821   0.900  16.877  0.2807 -0.4205  0.4599
 9875TIP3    H151040   5.811   0.837  16.806  2.3138 -1.4627  1.0063
 9875TIP3    H251041   5.760   0.870  16.944  1.0488 -1.6901  0.6158
 9876TIP3   OH251042   6.250   0.257   4.945 -0.1837  0.6052  0.4268
 9876TIP3    H151043   6.253   0.167   4.910  0.3869  0.8489 -0.1934
 9876TIP3    H251044   6.220   0.247   5.035 -1.5725 -0.0673 -0.0852
 9877TIP3   OH251045   0.602   1.644  16.984 -0.5615 -0.0929  0.3078
 9877TIP3    H151046   0.534   1.632  16.918  0.0135  0.0887 -0.3312
 9877TIP3    H251047   0.592   1.734  17.013  0.9559  0.7692 -1.6100
 9878TIP3   OH251048   3.056   6.744  16.586 -0.4998 -0.6146  0.1185
 9878TIP3    H151049   3.116   6.780  16.520 -0.5749 -0.7957 -0.0511
 9878TIP3    H251050   2.972   6.739  16.540 -0.4002 -1.3919  0.0121
 9879TIP3   OH251051   3.914   0.733  14.240 -0.0746 -0.2696 -0.2814
 9879TIP3    H151052   3.890   0.681  14.163 -0.1840  0.1175 -0.5078
 9879TIP3    H251053   3.938   0.818  14.205  1.7180 -0.6540 -0.0890
 9880TIP3   OH251054   3.133   5.446   5.805  0.2009  0.0051 -0.1660
 9880TIP3    H151055   3.165   5.471   5.892  0.9464  0.2698 -0.5068
 9880TIP3    H251056   3.053   5.396   5.822  0.3124  0.1003  0.6676
 9881TIP3   OH251057   0.197   0.673  14.810 -0.3647 -0.1729  0.2115
 9881TIP3    H151058   0.253   0.725  14.868  0.4924 -0.8382  0.0106
 9881TIP3    H251059   0.118   0.726  14.797 -0.7964 -0.1892  2.3645
 9882TIP3   OH251060   6.524   1.181   3.393  0.6339  0.0563 -0.7231
 9882TIP3    H151061   6.551   1.263   3.434  1.7198 -0.5871 -0.0845
 9882TIP3    H251062   6.540   1.194   3.299  1.2677  0.4055 -0.5699
 9883TIP3   OH251063   6.444   1.368   3.860 -0.0258  0.3394 -0.0663
 9883TIP3    H151064   6.470   1.459   3.853 -2.2944  1.1986  1.5065
 9883TIP3    H251065   6.351   1.371   3.882  0.1098 -2.3169  1.2931
 9884TIP3   OH251066   3.566   1.765   1.369  0.0607 -0.0700  0.0818
 9884TIP3    H151067   3.633   1.707   1.404  0.7404 -0.3194 -1.5143
 9884TIP3    H251068   3.610   1.811   1.297 -1.2153  0.4640 -0.3912
 9885TIP3   OH251069   2.459   5.383   0.050 -0.2662 -0.0014 -0.8261
 9885TIP3    H151070   2.426   5.472   0.063 -0.9863 -0.5299  1.4810
 9885TIP3    H251071   2.554   5.392   0.049 -0.3310  0.9165 -2.1095
 9886TIP3   OH251072   0.412   1.231  15.238 -0.5744  0.0907  0.0348
 9886TIP3    H151073   0.385   1.319  15.211  0.9329  1.0663  1.4810
 9886TIP3    H251074   0.505   1.241  15.262  0.3503 -2.4572 -2.0937
 9887TIP3   OH251075   0.311   6.023  14.905 -0.0980 -0.3896 -0.8435
 9887TIP3    H151076   0.296   6.117  14.895 -0.2837 -0.5178 -1.8552
 9887TIP3    H251077   0.398   6.016  14.945 -0.1634  0.2105 -0.5910
 9888TIP3   OH251078   2.341   3.636  17.084  0.3791 -0.2651  0.3824
 9888TIP3    H151079   2.287   3.713  17.065 -1.7321 -1.8410 -0.3299
 9888TIP3    H251080   2.415   3.645  17.025  0.2676  1.2820  0.4159
 9889TIP3   OH251081   1.011   0.331  15.664 -0.2289  0.1293  0.2183
 9889TIP3    H151082   1.069   0.402  15.634 -1.0687  0.0399 -1.7940
 9889TIP3    H251083   0.952   0.373  15.726  0.3950  0.7827  0.3860
 9890TIP3   OH251084   4.125   3.947   2.778 -0.3122  0.3818  0.2253
 9890TIP3    H151085   4.190   3.880   2.753  0.2572  1.2589 -0.7053
 9890TIP3    H251086   4.121   3.940   2.873  0.4435 -0.3436  0.2269
 9891TIP3   OH251087   5.984   0.190   1.113 -0.0253  0.0543 -0.0579
 9891TIP3    H151088   6.079   0.196   1.103  0.1060 -1.5518 -0.1025
 9891TIP3    H251089   5.953   0.159   1.028 -0.5473  0.2432  0.0598
 9892TIP3   OH251090   4.362   6.454   2.183  0.1829 -0.0302  0.0872
 9892TIP3    H151091   4.380   6.419   2.095  0.3206  1.7724 -0.6292
 9892TIP3    H251092   4.427   6.523   2.195 -0.3049  0.2292  1.3246
 9893TIP3   OH251093   0.749   4.208  16.600 -0.0953 -0.7081  0.2676
 9893TIP3    H151094   0.701   4.136  16.558 -0.7440 -0.1812  0.0929
 9893TIP3    H251095   0.821   4.226  16.540  0.0315 -1.1608  0.2766
 9894TIP3   OH251096   5.290   4.177   0.992 -0.3186 -0.2243  0.0529
 9894TIP3    H151097   5.362   4.228   0.956 -0.1819 -0.1101  0.4924
 9894TIP3    H251098   5.328   4.092   1.011 -0.5182 -0.4604 -0.5670
 9895TIP3   OH251099   2.585   1.858  17.163 -0.4409 -0.1973 -0.1520
 9895TIP3    H151100   2.643   1.844  17.238  1.5799  0.0858 -1.5805
 9895TIP3    H251101   2.627   1.928  17.113 -2.1063  0.1028 -1.2123
 9896TIP3   OH251102   0.821   6.201   2.101 -0.1196  0.1890  0.0258
 9896TIP3    H151103   0.881   6.275   2.110 -0.8063  0.6963  0.5478
 9896TIP3    H251104   0.734   6.241   2.094 -0.2197 -0.3927 -3.3880
 9897TIP3   OH251105   3.721   0.309   5.451  0.2378 -0.7358  0.2342
 9897TIP3    H151106   3.720   0.353   5.536  1.4939  0.7637 -0.4747
 9897TIP3    H251107   3.753   0.221   5.470  1.0350 -0.2510  1.2498
 9898TIP3   OH251108   2.947   4.022  13.829 -0.1288  0.4498  0.5956
 9898TIP3    H151109   2.910   4.069  13.904 -0.1204  0.8636  0.3379
 9898TIP3    H251110   2.995   3.950  13.869 -0.0290  0.7344  0.9969
 9899TIP3   OH251111   4.686   3.053   0.265  0.1137 -0.5123 -0.2607
 9899TIP3    H151112   4.759   3.102   0.303  0.1769 -0.6741 -0.1780
 9899TIP3    H251113   4.622   3.121   0.243  1.5475  0.0835 -3.2886
 9900TIP3   OH251114   4.641   2.292   4.622  0.1307 -0.1563  0.1389
 9900TIP3    H151115   4.645   2.196   4.614 -0.5396 -0.2181  0.4044
 9900TIP3    H251116   4.576   2.306   4.691 -1.1978  0.5317 -1.2047
 9901TIP3   OH251117   3.440   5.544   5.839 -0.0336 -0.0714 -0.6639
 9901TIP3    H151118   3.438   5.520   5.932 -0.9201  2.9413  0.2103
 9901TIP3    H251119   3.355   5.515   5.805  0.5553 -1.7885 -0.7711
 9902TIP3   OH251120   2.692   5.051  13.417  0.1763  0.2151 -0.1711
 9902TIP3    H151121   2.737   5.115  13.473  0.6484 -0.3467  0.0965
 9902TIP3    H251122   2.737   4.969  13.433  0.5287  0.0969 -1.6315
 9903TIP3   OH251123   1.972   3.311   3.365 -0.7101 -0.6233 -0.0170
 9903TIP3    H151124   2.029   3.319   3.442  0.7749  1.0551 -1.2173
 9903TIP3    H251125   1.949   3.401   3.343  0.0383 -0.9487 -2.3408
 9904TIP3   OH251126   3.089   0.271  16.733  0.2092  0.8399 -0.1084
 9904TIP3    H151127   3.173   0.315  16.723  0.3051  0.2519 -2.9018
 9904TIP3    H251128   3.067   0.241  16.644 -1.8001 -1.1291  0.9400
 9905TIP3   OH251129   2.683   2.422  12.433 -0.3630 -0.5981  0.0567
 9905TIP3    H151130   2.663   2.335  12.468  0.5173 -0.2019  1.6296
 9905TIP3    H251131   2.770   2.413  12.394  0.8053  0.1056  2.3661
 9906TIP3   OH251132   2.544   3.262  14.609 -0.2317  0.2150 -0.2084
 9906TIP3    H151133   2.599   3.200  14.657  0.0582  1.2376  0.8406
 9906TIP3    H251134   2.519   3.216  14.529  1.9334 -0.3820 -0.5921
 9907TIP3   OH251135   2.487   4.903  17.106  0.5179 -0.3180  0.0239
 9907TIP3    H151136   2.479   4.988  17.151 -2.6939 -0.6666  0.3091
 9907TIP3    H251137   2.515   4.926  17.018 -0.9183  1.1675 -0.1034
 9908TIP3   OH251138   0.787   4.310   6.450  0.0290  0.2601 -0.4633
 9908TIP3    H151139   0.733   4.383   6.420 -0.6311  0.5575  1.3227
 9908TIP3    H251140   0.842   4.348   6.519  0.4874 -0.6806 -0.2939
 9909TIP3   OH251141   1.917   1.810   3.669  0.3500  0.2331  0.3327
 9909TIP3    H151142   1.944   1.735   3.616 -0.7286 -0.5466  0.8440
 9909TIP3    H251143   1.898   1.878   3.605 -0.5605 -0.5746 -0.2817
 9910TIP3   OH251144   2.517   5.649   3.453 -0.0544 -0.4310 -0.1126
 9910TIP3    H151145   2.449   5.711   3.427  2.2182  1.6739 -1.5484
 9910TIP3    H251146   2.531   5.594   3.377  0.8886  0.2211 -0.4377
 9911TIP3   OH251147   6.780   4.580   4.773  0.8616 -0.0041  0.9174
 9911TIP3    H151148   6.830   4.528   4.710  2.0196  0.2719  1.5694
 9911TIP3    H251149   6.701   4.529   4.790  1.3580 -0.9039  0.5506
 9912TIP3   OH251150   5.818   0.105   0.122  0.2568  0.0023  0.4815
 9912TIP3    H151151   5.754   0.111   0.050 -0.9200 -1.6934  1.3185
 9912TIP3    H251152   5.765   0.083   0.199  1.5436  1.3107  1.8127
 9913TIP3   OH251153   4.887   5.380  16.912  0.1445 -0.2292 -0.6795
 9913TIP3    H151154   4.960   5.405  16.855  0.2365  3.6718  0.8690
 9913TIP3    H251155   4.823   5.450  16.902 -0.2630  0.1574  3.1706
 9914TIP3   OH251156   2.261   3.437   4.672  0.0213  0.4552 -0.6091
 9914TIP3    H151157   2.172   3.459   4.700  1.1580  2.5875  1.7732
 9914TIP3    H251158   2.255   3.430   4.577 -2.5340  1.3481 -0.5871
 9915TIP3   OH251159   5.047   3.540  13.537  0.0539  0.4472 -0.3075
 9915TIP3    H151160   5.002   3.558  13.455 -0.2825  0.7583 -0.0591
 9915TIP3    H251161   5.125   3.491  13.512 -1.6117 -2.2480 -0.5308
 9916TIP3   OH251162   1.285   2.323   2.361  0.3952 -0.0378  0.0993
 9916TIP3    H151163   1.219   2.371   2.411  0.3315  0.3683 -0.3708
 9916TIP3    H251164   1.359   2.314   2.421  0.3924  0.6212  0.1985
 9917TIP3   OH251165   2.796   4.197   2.314 -0.1128 -0.1662  0.3590
 9917TIP3    H151166   2.712   4.164   2.346 -1.0898  0.3373 -1.5837
 9917TIP3    H251167   2.812   4.276   2.367 -1.0325 -0.0634  0.4991
 9918TIP3   OH251168   5.794   1.194  12.083  0.2177 -0.1837  0.0200
 9918TIP3    H151169   5.798   1.137  12.006 -0.9745  2.1048 -1.8610
 9918TIP3    H251170   5.772   1.280  12.048 -1.0920  0.8384  3.0159
 9919TIP3   OH251171   3.072   4.954  11.148  0.3596 -0.6194  0.0422
 9919TIP3    H151172   3.015   4.880  11.171  0.3524 -0.3975  0.7839
 9919TIP3    H251173   3.021   5.006  11.086 -0.5847 -0.0173  1.2677
 9920TIP3   OH251174   5.420   5.258   2.859 -0.2656 -0.5259  0.4045
 9920TIP3    H151175   5.341   5.313   2.862 -1.3157 -1.8792 -0.9474
 9920TIP3    H251176   5.452   5.266   2.770  0.0861 -1.3759  0.4438
 9921TIP3   OH251177   3.533   2.588   3.529  0.0755 -0.5447  0.0292
 9921TIP3    H151178   3.440   2.567   3.536 -0.2450  0.3726 -1.2259
 9921TIP3    H251179   3.553   2.635   3.610 -0.5704 -0.6897  0.2741
 9922TIP3   OH251180   3.045   5.229  16.762  0.3141  0.3556  0.1455
 9922TIP3    H151181   3.107   5.219  16.690  0.1484  1.2021 -0.1269
 9922TIP3    H251182   2.968   5.178  16.735 -0.0635  1.3374 -0.6578
 9923TIP3   OH251183   0.216   1.285   2.136  0.2333  0.1505  0.2791
 9923TIP3    H151184   0.130   1.294   2.095 -0.8822 -0.1954  2.3947
 9923TIP3    H251185   0.251   1.204   2.099 -0.9818 -0.4723  0.4458
 9924TIP3   OH251186   4.214   2.232   0.533 -0.0689  0.0924 -0.2272
 9924TIP3    H151187   4.213   2.263   0.442 -0.3703 -0.6473 -0.4810
 9924TIP3    H251188   4.282   2.165   0.534  0.5728  0.7367  0.3181
 9925TIP3   OH251189   0.868   2.588  10.547  0.2630 -0.4029 -0.1575
 9925TIP3    H151190   0.886   2.553  10.459 -1.7884 -1.5690 -0.1865
 9925TIP3    H251191   0.829   2.674  10.531 -1.4640 -1.2122 -0.5188
 9926TIP3   OH251192   2.255   4.296   4.603  0.0417 -0.4310 -0.1204
 9926TIP3    H151193   2.190   4.238   4.643 -0.7592  1.8916  2.2014
 9926TIP3    H251194   2.205   4.349   4.541  0.1676 -0.1932 -0.0195
 9927TIP3   OH251195   3.231   2.821   2.532 -0.8325 -0.4256  0.3383
 9927TIP3    H151196   3.274   2.737   2.521 -1.3254 -0.8500  1.4823
 9927TIP3    H251197   3.157   2.803   2.591 -0.6582  0.8794  0.9984
 9928TIP3   OH251198   6.141   2.027   5.493 -0.0268 -0.0114 -0.2061
 9928TIP3    H151199   6.203   2.019   5.566  1.8655  1.4660 -1.5558
 9928TIP3    H251200   6.082   2.097   5.519  0.1790  0.0134  0.1988
 9929TIP3   OH251201   1.865   5.641   5.185 -0.9936  0.3538 -0.0022
 9929TIP3    H151202   1.918   5.651   5.105 -0.1135  1.8182  0.7188
 9929TIP3    H251203   1.928   5.612   5.251 -1.3146  0.9947  0.5944
 9930TIP3   OH251204   2.910   1.002   4.343  0.0951  0.0719  0.8717
 9930TIP3    H151205   2.886   0.918   4.303  0.4402 -0.2358  1.2972
 9930TIP3    H251206   2.875   1.068   4.284  2.1071 -0.3550 -0.8959
 9931TIP3   OH251207   2.440   1.896   4.921 -0.1258 -0.4938  0.5305
 9931TIP3    H151208   2.404   1.809   4.941 -0.1335 -0.6034  0.0493
 9931TIP3    H251209   2.417   1.911   4.829  0.9025 -0.5013  0.2564
 9932TIP3   OH251210   3.561   4.661  16.570  0.0668 -0.1357  0.3335
 9932TIP3    H151211   3.629   4.616  16.520  0.8325  2.4722 -1.1565
 9932TIP3    H251212   3.540   4.601  16.642  1.9968 -2.1695 -0.6859
 9933TIP3   OH251213   2.407   2.929   2.546  0.5308 -0.1957  0.8496
 9933TIP3    H151214   2.470   2.998   2.526 -0.6911  0.0940 -2.6313
 9933TIP3    H251215   2.455   2.868   2.602  2.9268  1.4837  0.7668
 9934TIP3   OH251216   1.109   6.282  12.146 -0.3881 -0.3973 -0.8294
 9934TIP3    H151217   1.085   6.190  12.140 -0.0814 -0.4301 -1.5823
 9934TIP3    H251218   1.173   6.285  12.217  0.3454 -0.9210 -1.4584
 9935TIP3   OH251219   2.082   1.371  13.731 -0.1575 -0.0745  0.1123
 9935TIP3    H151220   2.002   1.404  13.772  1.2537  1.3328  1.9219
 9935TIP3    H251221   2.121   1.314  13.798  1.4236  1.0129  0.1707
 9936TIP3   OH251222   3.605   4.874   2.847  0.1883 -0.0294  0.0756
 9936TIP3    H151223   3.558   4.840   2.772  0.5649 -0.0912 -0.1350
 9936TIP3    H251224   3.582   4.815   2.919 -1.0824  0.6886  0.2981
 9937TIP3   OH251225   4.829   1.991  12.760  0.0869 -0.6190 -0.2272
 9937TIP3    H151226   4.783   1.908  12.776  0.6975 -1.1756 -1.2291
 9937TIP3    H251227   4.765   2.045  12.714  0.2428 -1.2005 -1.1539
 9938TIP3   OH251228   4.308   6.058  11.011  0.0387  0.1166 -0.8991
 9938TIP3    H151229   4.362   5.979  11.021  1.4096  0.9052 -1.8099
 9938TIP3    H251230   4.227   6.037  11.057  0.4937 -1.7089 -0.8431
 9939TIP3   OH251231   5.891   6.483  13.019 -0.2486 -0.4956 -0.1929
 9939TIP3    H151232   5.820   6.419  13.012 -1.9696  1.3637 -0.6168
 9939TIP3    H251233   5.860   6.558  12.968  2.2289  0.2373 -0.7407
 9940TIP3   OH251234   2.523   2.655  14.654  0.2517 -0.5841  0.0043
 9940TIP3    H151235   2.471   2.735  14.655  2.2839  0.8640 -1.0091
 9940TIP3    H251236   2.490   2.603  14.728 -1.8042  0.7077  0.0710
 9941TIP3   OH251237   5.099   1.096  14.491 -0.4515  0.4166 -0.2486
 9941TIP3    H151238   5.171   1.042  14.523 -2.2067 -1.6729  0.3620
 9941TIP3    H251239   5.108   1.094  14.396 -1.5063 -2.5976 -0.3797
 9942TIP3   OH251240   0.310   5.355   2.212 -0.3372  0.3513  0.1288
 9942TIP3    H151241   0.396   5.335   2.174 -1.6564 -1.7926 -2.0041
 9942TIP3    H251242   0.329   5.381   2.302  2.5575  0.3407 -0.3814
 9943TIP3   OH251243   6.135   6.013  12.561 -0.0154  0.1552  0.4600
 9943TIP3    H151244   6.170   6.024  12.472  2.2440  2.3057  1.5102
 9943TIP3    H251245   6.136   5.918  12.574  2.5442 -0.0981 -0.7820
 9944TIP3   OH251246   3.373   6.554  12.787  0.5483  0.0514 -0.1830
 9944TIP3    H151247   3.388   6.531  12.695 -0.8173 -1.1667 -0.1364
 9944TIP3    H251248   3.348   6.647  12.785 -2.7711 -0.7167 -1.5119
 9945TIP3   OH251249   4.066   6.601  10.806 -0.0849  0.0928  0.0782
 9945TIP3    H151250   4.086   6.615  10.714  0.2021  0.0468  0.1319
 9945TIP3    H251251   4.018   6.519  10.809 -2.4703  1.3801 -0.3327
 9946TIP3   OH251252   3.423   0.354   5.738  0.2212 -0.4872 -0.6207
 9946TIP3    H151253   3.380   0.371   5.655  1.6072  0.0684 -1.2439
 9946TIP3    H251254   3.515   0.339   5.716  1.0309  1.5897  0.9444
 9947TIP3   OH251255   6.705   3.800  11.005 -0.4941 -0.5713 -0.2456
 9947TIP3    H151256   6.785   3.752  10.985  1.1352  1.7694  0.1943
 9947TIP3    H251257   6.694   3.860  10.931 -0.0618  1.2238  1.0889
 9948TIP3   OH251258   5.103   1.774  16.833  0.0434  0.0170 -0.5202
 9948TIP3    H151259   5.009   1.764  16.824 -0.0392 -0.6350  0.8673
 9948TIP3    H251260   5.120   1.863  16.802 -1.3226  0.8811  1.0448
 9949TIP3   OH251261   1.590   6.428   4.119  0.2525  0.1521 -0.2762
 9949TIP3    H151262   1.534   6.494   4.079 -0.4948  0.5953  1.4209
 9949TIP3    H251263   1.645   6.476   4.180  1.0336 -0.5527 -0.4052
 9950TIP3   OH251264   0.154   4.108   3.809  0.1641  0.9014 -0.0428
 9950TIP3    H151265   0.248   4.122   3.811  0.6627 -1.8526  0.4651
 9950TIP3    H251266   0.117   4.181   3.859  2.1659  1.1586  1.1538
 9951TIP3   OH251267   1.307   0.544  14.364 -0.1033  0.6803  0.0817
 9951TIP3    H151268   1.214   0.531  14.382 -0.3808  0.5542 -1.3168
 9951TIP3    H251269   1.308   0.610  14.294  0.8116 -0.0265 -0.5849
 9952TIP3   OH251270   0.542   1.436   4.912 -0.2110 -0.5319  0.4184
 9952TIP3    H151271   0.576   1.525   4.905 -0.8473 -0.3620 -0.7377
 9952TIP3    H251272   0.459   1.445   4.959  1.1644 -0.9250  3.0802
 9953TIP3   OH251273   3.532   4.231   4.313 -0.7462  0.1625  0.0468
 9953TIP3    H151274   3.525   4.149   4.362  0.2112 -0.3366 -0.6296
 9953TIP3    H251275   3.479   4.293   4.363 -1.0194 -0.7160  0.8779
 9954TIP3   OH251276   6.734   0.602  15.514 -0.8600  0.5288  0.2078
 9954TIP3    H151277   6.729   0.683  15.463 -0.1234  0.1034 -0.5529
 9954TIP3    H251278   6.682   0.539  15.463 -0.1879  0.1245  0.0133
 9955TIP3   OH251279   5.056   3.783   2.602 -0.2442  0.3519  0.6020
 9955TIP3    H151280   4.976   3.757   2.555  0.9944 -1.4854 -0.6228
 9955TIP3    H251281   5.078   3.869   2.566 -1.3249  0.6125  0.5185
 9956TIP3   OH251282   5.730   2.671  12.883  0.1947  0.2948 -0.5569
 9956TIP3    H151283   5.663   2.738  12.888  1.2697  1.4121 -0.7112
 9956TIP3    H251284   5.813   2.719  12.879  1.0904 -1.0381  0.6279
 9957TIP3   OH251285   1.148   3.458   6.729 -0.1864 -0.8123  0.2255
 9957TIP3    H151286   1.110   3.493   6.649  0.1834  0.9073  0.7601
 9957TIP3    H251287   1.243   3.462   6.714 -0.1269 -2.4692 -0.0332
 9958TIP3   OH251288   2.382   2.942   1.508  0.4686  0.3660 -0.4046
 9958TIP3    H151289   2.355   2.851   1.520 -0.8116  0.8264  0.4376
 9958TIP3    H251290   2.357   2.963   1.418 -1.0922  0.4633  0.0321
 9959TIP3   OH251291   5.465   5.562  17.153  0.2138 -0.0861 -0.1113
 9959TIP3    H151292   5.409   5.502  17.202  1.7977 -3.0212 -1.6173
 9959TIP3    H251293   5.451   5.538  17.061  1.9811  0.8702 -0.6749
 9960TIP3   OH251294   0.927   1.101  11.097 -0.0213  0.4231  0.4233
 9960TIP3    H151295   0.907   1.194  11.104  0.3563  0.5404  0.0295
 9960TIP3    H251296   1.022   1.098  11.084 -0.1599  0.0509 -0.6519
 9961TIP3   OH251297   4.582   1.674   0.766 -0.0199  0.2943  0.2702
 9961TIP3    H151298   4.603   1.735   0.695  1.5431 -3.3097 -2.7187
 9961TIP3    H251299   4.563   1.591   0.721 -2.1118 -1.4848  3.9982
 9962TIP3   OH251300   1.389   2.270   1.220  0.5146 -0.1686 -0.2811
 9962TIP3    H151301   1.403   2.196   1.160  2.6830 -0.4196  0.4477
 9962TIP3    H251302   1.474   2.281   1.264  1.0380  4.1631 -1.9182
 9963TIP3   OH251303   0.232   2.782  15.661  0.3572  0.4003 -0.0340
 9963TIP3    H151304   0.210   2.830  15.581  2.0847  1.4636  0.0797
 9963TIP3    H251305   0.222   2.690  15.637 -0.7619  0.7320 -0.9574
 9964TIP3   OH251306   2.427   1.982  16.468  0.5999 -0.4748 -0.1645
 9964TIP3    H151307   2.405   1.969  16.376 -0.9502 -0.0113  0.1097
 9964TIP3    H251308   2.397   1.903  16.512  0.5424 -0.3335  0.0582
 9965TIP3   OH251309   2.871   4.252  15.208  0.0103  0.2808 -0.0598
 9965TIP3    H151310   2.847   4.251  15.301  1.5541  0.4468  0.3725
 9965TIP3    H251311   2.792   4.282  15.163 -0.3584  1.5452  1.3304
 9966TIP3   OH251312   5.559   1.463   1.644 -1.0611  0.4908  0.1281
 9966TIP3    H151313   5.620   1.535   1.631  1.2431 -0.6693  3.3567
 9966TIP3    H251314   5.525   1.445   1.556  1.2797  2.9006 -1.4320
 9967TIP3   OH251315   3.764   5.437  10.503  0.6357 -0.0158  0.0324
 9967TIP3    H151316   3.715   5.484  10.570  0.8151 -0.2604  0.3401
 9967TIP3    H251317   3.836   5.496  10.481 -0.1815  0.6539 -0.9379
 9968TIP3   OH251318   3.024   5.862   4.659 -0.4359  0.3868  0.2679
 9968TIP3    H151319   3.094   5.881   4.596  0.0165  0.7897  0.8837
 9968TIP3    H251320   3.057   5.790   4.712 -1.5745 -1.2565 -1.1304
 9969TIP3   OH251321   2.851   0.361   5.994  0.2972 -0.3525  0.4255
 9969TIP3    H151322   2.801   0.344   6.073  1.2876 -1.7574  0.7965
 9969TIP3    H251323   2.879   0.275   5.964 -0.6857  0.0651 -1.9124
 9970TIP3   OH251324   4.600   4.046   2.358  0.1433 -0.2740 -0.4537
 9970TIP3    H151325   4.641   4.041   2.272  1.3613  0.5559  0.0558
 9970TIP3    H251326   4.547   4.126   2.355 -0.6896 -0.8216 -0.7776
 9971TIP3   OH251327   6.442   0.657  16.807 -0.3080  0.4934 -0.0305
 9971TIP3    H151328   6.495   0.730  16.840 -0.8971  1.1123 -0.4259
 9971TIP3    H251329   6.357   0.696  16.787 -0.9228 -0.4914  0.5998
 9972TIP3   OH251330   2.468   2.935  12.280  0.1783 -0.0340 -0.2625
 9972TIP3    H151331   2.435   2.890  12.358  1.6912  0.7639  0.8809
 9972TIP3    H251332   2.556   2.902  12.268 -0.5187 -1.2765 -2.6013
 9973TIP3   OH251333   1.574   1.508   2.639  0.3775 -0.4480 -0.3773
 9973TIP3    H151334   1.628   1.579   2.676 -0.0025 -0.1567 -0.3770
 9973TIP3    H251335   1.486   1.545   2.634  0.2612 -0.7752 -0.7861
 9974TIP3   OH251336   0.940   1.017   5.823 -0.3249 -0.1069 -0.4783
 9974TIP3    H151337   0.958   0.994   5.914 -1.9757  1.2587  0.2466
 9974TIP3    H251338   0.928   0.933   5.779 -1.6580 -0.7731  1.0602
 9975TIP3   OH251339   3.672   3.590  13.326  0.4112 -0.1158  0.1047
 9975TIP3    H151340   3.681   3.632  13.240 -0.4429 -0.4180 -0.1400
 9975TIP3    H251341   3.751   3.537  13.335  0.5271 -0.0446 -0.4736
 9976TIP3   OH251342   0.567   5.196  12.943  0.3177 -0.2516 -0.2912
 9976TIP3    H151343   0.525   5.248  12.875  1.8883  2.7388  0.8565
 9976TIP3    H251344   0.621   5.132  12.895  0.8634  1.3245 -1.8793
 9977TIP3   OH251345   4.625   5.461  11.003 -0.5643  1.0296  0.1956
 9977TIP3    H151346   4.668   5.378  10.984 -0.5548  0.7673  1.2902
 9977TIP3    H251347   4.696   5.525  11.001 -0.3749  0.8329  0.4780
 9978TIP3   OH251348   4.115   4.996   1.185  0.3461  0.0491 -0.0428
 9978TIP3    H151349   4.170   5.053   1.130 -0.3442  0.0166 -0.7886
 9978TIP3    H251350   4.109   5.043   1.268 -0.8026  1.4695 -0.8644
 9979TIP3   OH251351   3.049   6.123  11.880 -0.6924  0.1397  0.4017
 9979TIP3    H151352   3.052   6.205  11.830  0.6796 -0.6104 -0.8202
 9979TIP3    H251353   3.042   6.055  11.814 -1.2498 -0.7703  1.3779
 9980TIP3   OH251354   4.995   1.475   3.149  0.3658 -0.5789 -0.0595
 9980TIP3    H151355   4.917   1.431   3.115  0.2678 -0.0914 -0.4711
 9980TIP3    H251356   5.052   1.404   3.177 -0.6452 -0.9464  1.2175
 9981TIP3   OH251357   4.200   6.427   0.635  0.5189  0.2186  0.6010
 9981TIP3    H151358   4.159   6.388   0.558 -0.8182  2.5757  0.0307
 9981TIP3    H251359   4.293   6.427   0.615  0.1346  1.5253 -1.4328
 9982TIP3   OH251360   6.560   2.856  15.728  0.3923  0.1132 -0.8036
 9982TIP3    H151361   6.528   2.798  15.797  0.9912 -0.8951 -1.3440
 9982TIP3    H251362   6.532   2.944  15.755 -0.9393 -0.4726 -0.2022
 9983TIP3   OH251363   2.671   0.402  12.479  0.0416  0.0922  0.6075
 9983TIP3    H151364   2.738   0.362  12.534 -0.6103 -0.4522  1.0212
 9983TIP3    H251365   2.667   0.493  12.509  2.4510  0.9249 -1.2042
 9984TIP3   OH251366   2.182   4.637  15.953 -0.1428 -0.3371 -0.5000
 9984TIP3    H151367   2.155   4.715  16.002  0.0681 -1.0980  0.9043
 9984TIP3    H251368   2.277   4.637  15.959 -0.0175  0.2850 -2.1297
 9985TIP3   OH251369   3.211   2.363  13.704 -0.4812  0.2724 -0.4072
 9985TIP3    H151370   3.164   2.381  13.623  1.5254  0.7074 -1.5368
 9985TIP3    H251371   3.299   2.339  13.676  0.3275  0.6211  1.6420
 9986TIP3   OH251372   3.657   1.704   2.985  0.0724  0.0456  0.6429
 9986TIP3    H151373   3.651   1.785   2.935 -1.6714 -0.8094 -0.6567
 9986TIP3    H251374   3.572   1.695   3.027  0.2968 -1.0208  0.8926
 9987TIP3   OH251375   3.294   2.221  12.997  0.0688 -0.1148  0.1726
 9987TIP3    H151376   3.299   2.290  12.930  1.6579 -1.3020 -1.0187
 9987TIP3    H251377   3.313   2.141  12.949 -0.8029 -1.2928  1.7111
 9988TIP3   OH251378   0.133   0.013  16.917 -0.0635 -0.2511 -0.6062
 9988TIP3    H151379   0.088   0.001  16.833 -1.1427 -1.2182  0.0861
 9988TIP3    H251380   0.096   0.095  16.951 -1.7289 -1.2794  0.1791
 9989TIP3   OH251381   4.825   5.543  14.222  0.4016 -0.0657 -0.2565
 9989TIP3    H151382   4.746   5.507  14.263  0.4337  1.4149  1.2217
 9989TIP3    H251383   4.793   5.589  14.144 -0.2192  0.5435  0.3401
 9990TIP3   OH251384   2.257   2.201  10.681  0.0164  0.6944  0.4666
 9990TIP3    H151385   2.168   2.208  10.646  0.3038  1.0177 -0.2057
 9990TIP3    H251386   2.288   2.291  10.687  1.0341  0.4783 -1.2366
 9991TIP3   OH251387   2.200   6.649   3.956  0.0187 -0.1679 -0.3716
 9991TIP3    H151388   2.244   6.734   3.957  0.7175 -0.4799 -1.7339
 9991TIP3    H251389   2.161   6.642   3.869 -1.9924 -0.3124  0.4818
 9992TIP3   OH251390   5.130   4.470  16.373  0.0649 -0.1332 -0.3457
 9992TIP3    H151391   5.188   4.406  16.415 -0.1821 -1.4534 -1.9277
 9992TIP3    H251392   5.176   4.553  16.383  1.1010 -0.7716  0.4836
 9993TIP3   OH251393   2.021   4.509  11.579 -0.2769 -0.2606 -0.2510
 9993TIP3    H151394   2.035   4.535  11.488 -0.1908 -0.2136 -0.2252
 9993TIP3    H251395   1.937   4.464  11.579 -0.8273  0.7378 -0.1513
 9994TIP3   OH251396   1.026   6.535   4.267 -0.5672 -0.1506 -0.1283
 9994TIP3    H151397   0.992   6.588   4.195  0.5562  1.4007  0.4127
 9994TIP3    H251398   1.012   6.589   4.345 -1.3515 -1.6079  0.7757
 9995TIP3   OH251399   1.559   4.862  17.005  0.1633  0.2410  0.3689
 9995TIP3    H151400   1.585   4.900  17.089 -1.9274  0.8770  0.7975
 9995TIP3    H251401   1.549   4.938  16.947  0.6335 -0.1076 -0.1746
 9996TIP3   OH251402   6.698   5.274   5.082  0.1613  0.3061 -0.2270
 9996TIP3    H151403   6.725   5.253   4.993  0.3681 -0.1985 -0.0558
 9996TIP3    H251404   6.669   5.365   5.079  0.2131  0.3043 -0.7962
 9997TIP3   OH251405   6.436   2.823  12.442 -0.0641  0.5708 -0.5969
 9997TIP3    H151406   6.382   2.870  12.506 -1.6431 -1.3088 -0.4316
 9997TIP3    H251407   6.375   2.799  12.372  1.2947  1.1745 -2.0533
 9998TIP3   OH251408   6.541   4.843   4.351 -0.3273  0.3449 -0.1283
 9998TIP3    H151409   6.599   4.862   4.424  0.1640  0.6100 -0.5759
 9998TIP3    H251410   6.482   4.918   4.346 -3.9857 -1.8856  3.3100
 9999TIP3   OH251411   0.457   5.456   3.057 -0.1759 -0.0946 -0.3179
 9999TIP3    H151412   0.415   5.542   3.058 -0.1250 -0.0328 -1.9345
 9999TIP3    H251413   0.551   5.475   3.057 -0.1655 -0.1511 -0.7944
10000TIP3   OH251414   5.614   2.434   4.520 -0.5364 -0.4698 -0.3987
10000TIP3    H151415   5.520   2.419   4.518 -0.6801  0.1822  0.6439
10000TIP3    H251416   5.641   2.406   4.608 -0.1247  1.2297  0.0613
10001TIP3   OH251417   0.972   2.186   0.145 -0.4156  0.3306 -0.0907
10001TIP3    H151418   0.930   2.272   0.137  1.6588  1.4752  0.6453
10001TIP3    H251419   1.002   2.166   0.056 -0.9520  0.3229 -0.2734
10002TIP3   OH251420   2.656   3.525  17.098 -0.4848  0.0936  0.6839
10002TIP3    H151421   2.593   3.453  17.092 -0.4234  0.1508 -1.3288
10002TIP3    H251422   2.644   3.574  17.016  0.8559  1.2166  1.1222
10003TIP3   OH251423   4.789   1.204  16.712  0.0561 -0.2031 -0.1654
10003TIP3    H151424   4.868   1.221  16.764 -0.3840 -0.0559  0.4756
10003TIP3    H251425   4.800   1.114  16.680  0.5443 -0.1347 -0.1945
10004TIP3   OH251426   5.848   6.732  13.926 -0.2767  0.3278 -0.1154
10004TIP3    H151427   5.790   6.655  13.927  0.3960 -0.1911 -0.4619
10004TIP3    H251428   5.935   6.696  13.942  0.1678  0.9081 -1.1679
10005TIP3   OH251429   5.804   2.011   4.226 -0.1498 -0.4407  0.2696
10005TIP3    H151430   5.723   1.961   4.236  0.3187 -1.8288 -2.1891
10005TIP3    H251431   5.776   2.103   4.232 -1.9687 -0.8681 -0.8855
10006TIP3   OH251432   4.414   1.700   5.598 -0.0460  0.5145 -0.1884
10006TIP3    H151433   4.491   1.750   5.571 -0.5527  1.5893  0.2774
10006TIP3    H251434   4.430   1.679   5.690  0.4868 -0.8481 -0.5641
10007TIP3   OH251435   2.221   0.313  15.271  0.1232  0.6083 -0.1358
10007TIP3    H151436   2.294   0.299  15.331  0.1911 -0.1739 -0.3888
10007TIP3    H251437   2.166   0.377  15.315 -0.3538 -0.6891  1.2300
10008TIP3   OH251438   3.153   3.261  16.661 -0.2528 -0.6047  0.0371
10008TIP3    H151439   3.083   3.197  16.671 -0.1653 -0.4866  1.6459
10008TIP3    H251440   3.142   3.320  16.736  1.2775 -0.2941  0.0369
10009TIP3   OH251441   3.753   6.744   1.253 -0.4030 -0.0206  0.8087
10009TIP3    H151442   3.726   6.763   1.342 -0.2468 -2.3057  1.3994
10009TIP3    H251443   3.839   6.784   1.245  0.3368 -1.2386  2.2840
10010TIP3   OH251444   0.142   5.774   3.192  0.0685 -0.1678  0.2519
10010TIP3    H151445   0.060   5.784   3.241  0.2911  0.6257  0.4736
10010TIP3    H251446   0.201   5.729   3.252 -0.2417 -0.8678  0.0423
10011TIP3   OH251447   4.846   1.669  13.150 -0.2095 -0.0638  0.4519
10011TIP3    H151448   4.812   1.732  13.213  1.2311  0.4774  0.7220
10011TIP3    H251449   4.909   1.617  13.199 -0.7402 -1.1610  0.0130
10012TIP3   OH251450   0.263   5.716  14.590 -0.1644 -0.0140 -0.2113
10012TIP3    H151451   0.207   5.732  14.667  0.8430  1.3562  0.2654
10012TIP3    H251452   0.320   5.793  14.585  1.3970 -1.1667 -0.9289
10013TIP3   OH251453   3.000   2.373  10.871 -0.6152 -0.2129 -0.7402
10013TIP3    H151454   3.029   2.282  10.879 -0.4690 -0.0808  0.4085
10013TIP3    H251455   2.910   2.367  10.840 -0.9471 -0.7894  0.2975
10014TIP3   OH251456   1.434   4.522  14.241 -0.1303 -0.2564  0.0836
10014TIP3    H151457   1.481   4.580  14.300  1.5626 -1.4324 -0.0368
10014TIP3    H251458   1.371   4.476  14.296 -0.4554  0.6004  0.4400
10015TIP3   OH251459   0.490   2.519   2.055 -0.0585  0.0678  0.2980
10015TIP3    H151460   0.533   2.594   2.014  1.0629 -0.4721  0.4322
10015TIP3    H251461   0.562   2.463   2.084 -0.8721 -1.3305 -0.2858
10016TIP3   OH251462   2.014   5.641   0.848 -0.3743 -0.4436  0.8819
10016TIP3    H151463   1.990   5.585   0.922 -2.6134 -0.0270  0.5680
10016TIP3    H251464   1.958   5.610   0.777  0.8217 -0.0018 -0.2757
10017TIP3   OH251465   1.156   2.856  13.630 -0.1005 -0.4814  0.5114
10017TIP3    H151466   1.108   2.829  13.551 -0.4249  1.0376  0.1541
10017TIP3    H251467   1.110   2.935  13.660 -0.5730 -1.5509  2.7981
10018TIP3   OH251468   1.944   3.898  11.010 -0.3897 -0.0955 -0.3697
10018TIP3    H151469   1.903   3.972  11.056 -0.9044  0.1031 -1.1293
10018TIP3    H251470   1.879   3.871  10.945  0.6237  0.1119 -1.4985
10019TIP3   OH251471   1.471   0.238  15.519 -0.2940 -0.6416  0.3471
10019TIP3    H151472   1.469   0.170  15.585 -0.7951 -1.0576 -0.0873
10019TIP3    H251473   1.510   0.314  15.563  2.5875 -1.8902  0.1934
10020TIP3   OH251474   5.296   2.052   4.337 -0.1857 -0.4114  0.4800
10020TIP3    H151475   5.340   2.135   4.319  0.8222 -1.2342 -1.0001
10020TIP3    H251476   5.217   2.054   4.284 -1.0499  0.2679  1.7216
10021TIP3   OH251477   4.450   3.671   3.783 -0.0339 -0.6650 -0.1081
10021TIP3    H151478   4.388   3.727   3.830 -1.6117 -0.4813 -2.2538
10021TIP3    H251479   4.532   3.680   3.832 -0.2887  3.2522 -0.0822
10022TIP3   OH251480   5.191   5.393   3.386  0.4329  0.0813 -0.2873
10022TIP3    H151481   5.184   5.301   3.413  1.1863  0.3955  1.0682
10022TIP3    H251482   5.146   5.442   3.454  0.9220  0.7991 -0.4663
10023TIP3   OH251483   0.117   1.042   1.422 -0.4559  0.1462  0.3106
10023TIP3    H151484   0.177   0.974   1.454  1.0682  1.5775  0.6203
10023TIP3    H251485   0.099   1.096   1.498 -2.7392 -0.6018  0.3811
10024TIP3   OH251486   1.140   0.073  11.030 -0.0119 -0.1530 -0.4197
10024TIP3    H151487   1.197   0.133  10.980 -2.1917  0.8041 -1.9136
10024TIP3    H251488   1.101   0.128  11.098  1.3450 -0.9856  1.1015
10025TIP3   OH251489   1.652   5.991   4.592 -0.3998 -0.3664 -0.1311
10025TIP3    H151490   1.675   5.910   4.547 -0.4687 -0.5289  0.1235
10025TIP3    H251491   1.556   5.993   4.590 -0.3940 -0.2180 -0.2671
10026TIP3   OH251492   6.357   0.652  14.028 -0.3185  0.0401  0.2050
10026TIP3    H151493   6.436   0.603  14.003 -0.3676 -0.5887  1.2528
10026TIP3    H251494   6.345   0.714  13.956  2.0586  1.2676  0.7570
10027TIP3   OH251495   4.278   6.048  13.193  0.5417  0.3780 -0.0326
10027TIP3    H151496   4.226   6.102  13.253  0.2804 -0.9450  0.9619
10027TIP3    H251497   4.367   6.081  13.203  0.8892 -1.1206  2.6947
10028TIP3   OH251498   4.102   2.224  13.453 -0.2122 -0.3601 -0.4160
10028TIP3    H151499   4.189   2.262  13.468 -0.2722  0.0492 -1.0809
10028TIP3    H251500   4.065   2.216  13.541 -0.8051  2.5885 -0.2892
10029TIP3   OH251501   6.263   2.588   4.059  0.4046  0.0270  0.1123
10029TIP3    H151502   6.267   2.633   4.143  0.5462  0.0308  0.1038
10029TIP3    H251503   6.169   2.574   4.043  0.3362  0.5832 -0.0264
10030TIP3   OH251504   0.739   1.323  11.812 -0.1210 -0.1874  0.0943
10030TIP3    H151505   0.677   1.267  11.858  0.7173 -1.1800  0.0565
10030TIP3    H251506   0.749   1.283  11.726  0.1250  0.2999 -0.1113
10031TIP3   OH251507   3.585   0.725   1.126  0.2430  0.7316  0.0258
10031TIP3    H151508   3.653   0.724   1.193  0.0437  0.8041  0.2303
10031TIP3    H251509   3.611   0.796   1.066  0.4077  0.6820  0.0393
10032TIP3   OH251510   4.888   4.643  12.149  0.2168 -0.1039  0.2675
10032TIP3    H151511   4.939   4.574  12.105 -1.4743  0.2430 -2.4512
10032TIP3    H251512   4.893   4.718  12.090  1.4529  2.0021  2.8541
10033TIP3   OH251513   0.115   6.063  11.259  0.4795  0.2258  0.3237
10033TIP3    H151514   0.167   6.027  11.187 -1.9958  1.9434 -2.5455
10033TIP3    H251515   0.117   6.157  11.246 -1.1053  0.5126  1.7772
10034TIP3   OH251516   2.107   5.196  13.332 -0.4245 -0.0794 -0.0836
10034TIP3    H151517   2.162   5.126  13.368 -0.0257 -0.2378 -0.9776
10034TIP3    H251518   2.167   5.269  13.317 -0.4106 -0.3116 -1.2280
10035TIP3   OH251519   6.589   5.340   5.901  0.0984  0.0310  0.2393
10035TIP3    H151520   6.632   5.423   5.880  0.3934  0.0095  0.7502
10035TIP3    H251521   6.611   5.323   5.992 -0.4266 -0.3318  0.3051
10036TIP3   OH251522   3.642   1.912   3.182 -0.0283 -0.2206 -0.0714
10036TIP3    H151523   3.593   1.889   3.261 -0.0195  0.7377  0.2259
10036TIP3    H251524   3.650   2.008   3.185 -0.1199 -0.1499 -1.2883
10037TIP3   OH251525   5.311   4.571   5.425 -0.1607 -0.3849 -0.0666
10037TIP3    H151526   5.261   4.643   5.388 -1.7407 -1.4226 -0.0365
10037TIP3    H251527   5.321   4.593   5.518 -0.1968  0.0179 -0.1564
10038TIP3   OH251528   1.093   3.511  14.207  0.0079 -0.5128 -0.0688
10038TIP3    H151529   1.018   3.452  14.205  0.2588 -0.8230 -0.8095
10038TIP3    H251530   1.070   3.578  14.271 -0.5666 -1.0392  0.2796
10039TIP3   OH251531   2.625   2.808   4.180  0.3495 -0.7865 -0.7516
10039TIP3    H151532   2.702   2.843   4.136  0.5132  0.8257  0.7010
10039TIP3    H251533   2.659   2.775   4.263 -0.4616 -0.3976 -0.2584
10040TIP3   OH251534   0.265   5.310   4.265  0.0510  0.0853  0.8572
10040TIP3    H151535   0.310   5.346   4.188  0.4456 -2.1943 -0.0835
10040TIP3    H251536   0.330   5.252   4.305 -0.8985 -0.5141  1.5786
10041TIP3   OH251537   6.050   0.467  16.299  0.5872 -0.0118  0.0408
10041TIP3    H151538   6.060   0.542  16.358 -0.1903 -0.2850  0.5406
10041TIP3    H251539   5.999   0.404  16.350  1.7524 -1.1382 -0.1529
10042TIP3   OH251540   5.220   3.646   0.013  0.0953  0.0900 -0.1099
10042TIP3    H151541   5.298   3.689   0.048 -0.3547  1.9295 -1.1935
10042TIP3    H251542   5.239   3.635  -0.081 -1.0834  0.9709 -0.4729
10043TIP3   OH251543   4.681   1.693   0.304 -0.2772  0.3927  0.4972
10043TIP3    H151544   4.676   1.608   0.262 -0.3274  1.1633 -1.1525
10043TIP3    H251545   4.739   1.680   0.379 -1.6824 -1.4713  1.3331
10044TIP3   OH251546   3.128   1.022  12.502 -0.0675  0.0465 -0.0344
10044TIP3    H151547   3.058   0.979  12.550 -1.1092  0.8614 -0.7816
10044TIP3    H251548   3.108   1.116  12.507  0.4138  0.2306 -1.0884
10045TIP3   OH251549   3.675   3.725  12.198 -0.7845 -0.9517 -0.1679
10045TIP3    H151550   3.592   3.738  12.244 -1.0295 -2.5500 -0.1006
10045TIP3    H251551   3.687   3.804  12.147 -1.1314  0.3721  1.6809
10046TIP3   OH251552   4.087   1.787  14.478 -0.6088 -0.5460  0.2448
10046TIP3    H151553   4.013   1.845  14.494 -2.8644 -3.2657  0.2648
10046TIP3    H251554   4.130   1.778  14.564 -1.3634 -0.3876  0.6425
10047TIP3   OH251555   6.768   2.759   2.527 -0.3007 -0.2556  0.4394
10047TIP3    H151556   6.779   2.838   2.475 -0.7631 -0.7028 -0.3619
10047TIP3    H251557   6.761   2.689   2.462 -0.3548 -0.8958  1.1237
10048TIP3   OH251558   6.533   3.723  16.300  0.1801  0.3108 -0.1276
10048TIP3    H151559   6.497   3.657  16.359  0.4145  0.6583  0.4044
10048TIP3    H251560   6.481   3.801  16.317  1.0560  0.7656  0.5082
10049TIP3   OH251561   3.106   4.102   5.232 -0.3982  0.4772  0.3832
10049TIP3    H151562   3.135   4.078   5.320  0.9938 -2.7435 -0.7810
10049TIP3    H251563   3.012   4.082   5.232 -0.2743 -0.1573  0.9699
10050TIP3   OH251564   4.226   6.179  15.491 -0.2683 -0.3647 -0.0108
10050TIP3    H151565   4.261   6.236  15.422 -1.1816 -1.3881 -1.3733
10050TIP3    H251566   4.172   6.237  15.545 -0.6070  0.2035 -0.9402
10051TIP3   OH251567   1.333   1.382   4.253  0.2024 -0.2586 -0.6591
10051TIP3    H151568   1.345   1.318   4.182 -1.5414 -0.0412 -1.2042
10051TIP3    H251569   1.375   1.342   4.329 -0.1686 -1.7096 -1.1765
10052TIP3   OH251570   4.185   1.597   3.319 -0.0049 -0.0358  0.2278
10052TIP3    H151571   4.244   1.558   3.384 -0.7804 -2.0051 -0.1611
10052TIP3    H251572   4.231   1.675   3.288  1.9164 -0.9202  0.6862
10053TIP3   OH251573   6.384   0.523  10.983 -0.7096  0.0816 -0.6255
10053TIP3    H151574   6.394   0.594  10.919  1.2950 -0.0306 -0.4947
10053TIP3    H251575   6.295   0.534  11.016 -0.7801  1.9489 -1.3017
10054TIP3   OH251576   5.228   2.062   1.224 -0.4059 -0.2868  0.2546
10054TIP3    H151577   5.220   2.154   1.248  1.0160  0.0003 -0.2933
10054TIP3    H251578   5.176   2.016   1.289  0.1751  0.7734  1.5136
10055TIP3   OH251579   0.031   5.543  11.460 -0.7308  0.5751  0.0403
10055TIP3    H151580   0.051   5.461  11.506  1.2303 -0.8052 -2.9280
10055TIP3    H251581  -0.023   5.516  11.385  0.7068  1.7441 -1.5179
10056TIP3   OH251582   2.646   3.306   4.112 -0.1644  0.7534  0.2235
10056TIP3    H151583   2.555   3.279   4.101  0.1621 -0.5606  0.6167
10056TIP3    H251584   2.657   3.378   4.049 -0.9511 -0.2797 -1.1558
10057TIP3   OH251585   6.328   1.028  15.911  0.1303  0.0856 -0.6099
10057TIP3    H151586   6.318   0.975  15.990 -0.6955  0.8542 -0.1734
10057TIP3    H251587   6.317   0.966  15.839  0.2000 -0.5099 -0.1135
10058TIP3   OH251588   6.490   1.503  14.156  0.8256 -0.0460  0.2730
10058TIP3    H151589   6.432   1.570  14.120  0.1474  0.1305  1.6272
10058TIP3    H251590   6.578   1.537  14.143  0.4736  1.3705  1.3791
10059TIP3   OH251591   3.805   3.295   1.665  0.1235 -0.0296  0.4574
10059TIP3    H151592   3.781   3.344   1.744  0.3540 -0.6564  0.9300
10059TIP3    H251593   3.876   3.237   1.694 -0.2442 -0.7498 -0.0508
10060TIP3   OH251594   4.135   0.171  16.791 -0.0824 -0.0275 -0.3010
10060TIP3    H151595   4.174   0.106  16.733  0.3256 -0.3832  0.3684
10060TIP3    H251596   4.082   0.226  16.732  1.7432  0.7463 -1.3088
10061TIP3   OH251597   0.578   6.144  14.064 -0.0384  0.0783 -0.0822
10061TIP3    H151598   0.616   6.065  14.100  0.5958 -0.9787 -2.7973
10061TIP3    H251599   0.653   6.200  14.045 -0.3698  0.7296  0.4972
10062TIP3   OH251600   3.292   0.737  13.711  0.4259  0.9703  0.0376
10062TIP3    H151601   3.269   0.744  13.803  1.6285 -0.4267  0.4837
10062TIP3    H251602   3.369   0.793  13.701  1.2628 -0.1048  0.2766
10063TIP3   OH251603   1.838   5.386  14.157 -0.7597 -0.1385 -0.6278
10063TIP3    H151604   1.845   5.304  14.107 -2.2999 -0.4654 -0.3813
10063TIP3    H251605   1.771   5.436  14.111 -1.1129  0.2075  0.2360
10064TIP3   OH251606   3.691   0.473   2.918  0.2138  0.4182 -0.0309
10064TIP3    H151607   3.727   0.442   3.001  1.2418  1.3745 -0.1067
10064TIP3    H251608   3.753   0.539   2.888 -0.2085  0.1627 -1.5111
10065TIP3   OH251609   1.582   5.154   5.881  0.0537  0.0928  0.0556
10065TIP3    H151610   1.614   5.176   5.968  0.8349 -2.5382  0.5143
10065TIP3    H251611   1.487   5.150   5.890  0.0409  1.0770  0.4439
10066TIP3   OH251612   1.714   1.312   4.033 -0.3920 -0.4618 -0.0157
10066TIP3    H151613   1.731   1.237   3.976 -1.4540 -1.1610  0.5486
10066TIP3    H251614   1.738   1.388   3.980  3.0780 -1.2228  0.2482
10067TIP3   OH251615   5.797   1.673  13.553 -0.6445  0.3489 -0.0330
10067TIP3    H151616   5.853   1.634  13.485 -0.5578  2.2357 -1.1252
10067TIP3    H251617   5.708   1.656  13.523 -0.6271 -0.3112  0.2852
10068TIP3   OH251618   5.944   1.367  14.070 -0.0155  0.0541  0.2033
10068TIP3    H151619   5.928   1.383  13.977  0.6956 -0.0199  0.0686
10068TIP3    H251620   5.856   1.357  14.108 -0.3228  0.5119 -0.3798
10069TIP3   OH251621   1.129   2.776  16.951  0.1279 -0.4188  0.1653
10069TIP3    H151622   1.039   2.757  16.925  0.5008 -0.3637 -1.2507
10069TIP3    H251623   1.129   2.765  17.046 -1.5420  0.2830  0.2921
10070TIP3   OH251624   5.623   1.950   2.156  0.3593 -0.2489  0.4193
10070TIP3    H151625   5.670   1.889   2.099  0.7404  1.3978 -1.1378
10070TIP3    H251626   5.647   2.037   2.123 -2.2696  0.7129  0.7525
10071TIP3   OH251627   3.298   2.888   1.921  0.3649 -0.0754 -0.0447
10071TIP3    H151628   3.388   2.900   1.951  0.2698 -1.9980  1.1997
10071TIP3    H251629   3.302   2.904   1.827  1.0256  4.4506  0.5453
10072TIP3   OH251630   0.384   4.666   4.479 -0.6699  0.4880 -0.2147
10072TIP3    H151631   0.379   4.689   4.572  0.6262  1.8468 -0.4405
10072TIP3    H251632   0.411   4.747   4.436  2.4892 -0.9629 -1.2892
10073TIP3   OH251633   0.442   3.776   1.809 -0.5965 -0.0035 -1.3975
10073TIP3    H151634   0.357   3.817   1.820  1.0688  3.5292 -0.1861
10073TIP3    H251635   0.451   3.717   1.884 -0.6316  2.3593  0.5842
10074TIP3   OH251636   6.519   3.107   1.038  0.2785 -0.2322 -0.5385
10074TIP3    H151637   6.480   3.188   1.072 -0.0728 -0.1472 -1.1284
10074TIP3    H251638   6.522   3.120   0.943  1.0584 -0.5471 -0.5639
10075TIP3   OH251639   2.591   0.773   3.963 -0.1976 -0.0466 -0.6577
10075TIP3    H151640   2.546   0.853   3.935  0.2531  0.9567  1.3322
10075TIP3    H251641   2.520   0.710   3.979 -0.6807  0.5027 -0.6046
10076TIP3   OH251642   1.749   4.345  14.945 -0.4039  0.1756  0.1473
10076TIP3    H151643   1.696   4.280  14.990  0.1204 -0.5333 -0.2300
10076TIP3    H251644   1.714   4.347  14.856 -1.1392  1.2342  0.4462
10077TIP3   OH251645   5.753   1.698   5.949  0.2443 -0.4818  0.0246
10077TIP3    H151646   5.674   1.746   5.923  0.6397 -0.4628 -1.1986
10077TIP3    H251647   5.729   1.606   5.940  0.0597 -0.4940  0.6061
10078TIP3   OH251648   4.571   2.530  11.125  0.0162  0.1538  0.1548
10078TIP3    H151649   4.504   2.511  11.061 -0.0709  1.0490 -0.0313
10078TIP3    H251650   4.652   2.540  11.074  0.0312  0.4280  0.2305
10079TIP3   OH251651   2.702   1.846  12.187  0.2222 -0.4874  0.1105
10079TIP3    H151652   2.780   1.801  12.152 -0.5224 -3.0838  1.4808
10079TIP3    H251653   2.662   1.781  12.244 -2.7704  0.9034 -0.2423
10080TIP3   OH251654   5.303   3.994   1.292  0.0789  0.1775 -0.0256
10080TIP3    H151655   5.334   3.946   1.215  1.0048  0.0483  0.4184
10080TIP3    H251656   5.215   3.960   1.307  1.1668 -2.4282  1.0731
10081TIP3   OH251657   5.894   0.643  10.361 -0.6332  0.1094 -0.8931
10081TIP3    H151658   5.975   0.682  10.394 -0.3220 -0.6996 -0.6759
10081TIP3    H251659   5.880   0.567  10.417 -1.3479  0.0302 -1.1710
10082TIP3   OH251660   6.055   4.794   3.974  0.4365  0.1266 -0.1187
10082TIP3    H151661   6.131   4.785   3.917 -0.8318  0.6103 -1.9776
10082TIP3    H251662   6.079   4.861   4.037  1.7166 -0.0799 -0.3722
10083TIP3   OH251663   3.690   2.631  13.200  0.0827 -0.4432  0.3473
10083TIP3    H151664   3.627   2.684  13.248 -0.5737 -0.6992 -0.2230
10083TIP3    H251665   3.651   2.544  13.196  0.4305 -0.5839 -0.0806
10084TIP3   OH251666   0.202   5.744  12.645  0.1784  0.0104  0.3502
10084TIP3    H151667   0.111   5.759  12.674  0.4889  0.1918  1.2782
10084TIP3    H251668   0.199   5.661  12.598 -0.5881  0.3341 -0.1898
10085TIP3   OH251669   2.120   1.643  15.448  0.0185  0.8423  0.0798
10085TIP3    H151670   2.095   1.635  15.540  0.0377  0.7045  0.0725
10085TIP3    H251671   2.073   1.720  15.417 -2.7121 -0.9743 -0.6832
10086TIP3   OH251672   0.462   0.298  16.426 -0.5607  0.1936 -0.1433
10086TIP3    H151673   0.483   0.298  16.519 -1.6538  0.2771  0.1141
10086TIP3    H251674   0.540   0.263  16.384 -0.5156 -1.0239  0.9081
10087TIP3   OH251675   5.135   6.737   0.443  0.0215  0.4178  0.1922
10087TIP3    H151676   5.200   6.702   0.504  0.6078 -1.3661 -1.3649
10087TIP3    H251677   5.111   6.663   0.388 -2.6237  1.2624  0.0484
10088TIP3   OH251678   5.728   6.438  17.030  0.5067 -0.0474  0.0474
10088TIP3    H151679   5.803   6.480  16.988  0.0042  0.8629  0.0387
10088TIP3    H251680   5.661   6.435  16.961  0.0372  0.4910  0.4785
10089TIP3   OH251681   1.100   3.868   4.609  0.2957  0.0127  0.6123
10089TIP3    H151682   1.046   3.885   4.686 -0.9785  0.2619 -0.2978
10089TIP3    H251683   1.077   3.778   4.583  1.3541 -0.3851  1.0022
10090TIP3   OH251684   4.537   5.474  17.111  0.0779 -0.0832  0.3486
10090TIP3    H151685   4.601   5.544  17.101 -0.4676  0.4478  0.5309
10090TIP3    H251686   4.452   5.518  17.107 -0.3224 -0.8862 -0.9275
10091TIP3   OH251687   4.774   0.576   1.469 -1.0618  0.1418 -0.2109
10091TIP3    H151688   4.698   0.634   1.471 -1.2866 -0.1784  0.7859
10091TIP3    H251689   4.849   0.635   1.465 -1.2698  0.5372  1.1860
10092TIP3   OH251690   1.893   3.259   1.833 -0.6430  0.4652 -0.1684
10092TIP3    H151691   1.815   3.203   1.839  0.2841 -1.1801 -2.2932
10092TIP3    H251692   1.958   3.205   1.788  2.6645  0.7974  3.5755
10093TIP3   OH251693   1.838   6.528  16.861 -0.2694  0.0315  0.4772
10093TIP3    H151694   1.932   6.508  16.860 -0.0559  0.5432  3.1179
10093TIP3    H251695   1.834   6.622  16.876 -1.2288  0.1652 -0.5740
10094TIP3   OH251696   0.947   2.354  13.693  0.5257  0.0998 -0.1512
10094TIP3    H151697   1.034   2.336  13.730  0.3282 -0.3222  0.1052
10094TIP3    H251698   0.948   2.310  13.608  0.8499  0.7735 -0.5130
10095TIP3   OH251699   6.341   6.385   4.168  0.3741  0.0556 -0.0985
10095TIP3    H151700   6.324   6.433   4.087  1.2265  1.0140  0.2771
10095TIP3    H251701   6.258   6.387   4.216 -0.5977 -1.7928 -1.5592
10096TIP3   OH251702   5.246   6.096   4.691 -0.4217  0.2450  0.4188
10096TIP3    H151703   5.322   6.040   4.675 -0.6810 -1.3024  3.7654
10096TIP3    H251704   5.274   6.157   4.759 -1.6904  0.7326  0.5436
10097TIP3   OH251705   1.854   1.892   0.794 -0.3256 -0.2725  0.4083
10097TIP3    H151706   1.800   1.954   0.745  1.3596  0.8014 -0.1768
10097TIP3    H251707   1.911   1.852   0.728 -0.5625 -1.5933  0.9630
10098TIP3   OH251708   2.882   1.012   4.922  0.0257  0.0609  0.6364
10098TIP3    H151709   2.927   1.071   4.982 -0.4054 -0.5566  1.5909
10098TIP3    H251710   2.936   1.012   4.843  1.8560 -0.8469  1.8185
10099TIP3   OH251711   6.558   6.412   3.158 -0.2312 -0.1332 -0.0698
10099TIP3    H151712   6.573   6.453   3.073 -1.9461 -1.6686 -1.1948
10099TIP3    H251713   6.642   6.418   3.203  0.7374  0.6791 -1.8821
10100TIP3   OH251714   6.210   3.381  12.393  0.1320 -0.1033 -0.4966
10100TIP3    H151715   6.238   3.469  12.370  1.5570 -0.4490 -0.2368
10100TIP3    H251716   6.230   3.373  12.487 -3.7382  0.6258  0.5433
10101TIP3   OH251717   6.313   4.042   4.746  0.3558 -0.0081  0.8613
10101TIP3    H151718   6.285   4.062   4.657  4.7423  0.8158 -0.5659
10101TIP3    H251719   6.276   3.955   4.764 -0.0099 -0.5517 -2.0590
10102TIP3   OH251720   5.805   0.870  10.016  0.2555  0.3179  0.2397
10102TIP3    H151721   5.741   0.929   9.974  0.9273  0.9121  0.0220
10102TIP3    H251722   5.773   0.860  10.106 -0.3880  0.2470  0.0069
10103TIP3   OH251723   3.575   1.087   6.593  0.0650  0.3717 -0.1352
10103TIP3    H151724   3.584   1.015   6.531  0.8257  0.0555  0.3279
10103TIP3    H251725   3.490   1.073   6.635  1.0340 -1.4603  1.4038
10104TIP3   OH251726   5.013   1.172  11.490  0.2488 -0.2818 -0.0590
10104TIP3    H151727   4.946   1.156  11.423  1.5371 -0.3808 -1.3880
10104TIP3    H251728   4.993   1.259  11.524  0.1269  0.1958 -1.3016
10105TIP3   OH251729   6.231   5.598   0.383  0.4164 -0.2720  0.1818
10105TIP3    H151730   6.289   5.664   0.346 -0.4354  1.0057  1.0420
10105TIP3    H251731   6.239   5.611   0.478  1.0398 -2.1340  0.4281
10106TIP3   OH251732   4.902   1.198  11.775 -0.2994 -0.1114  0.1067
10106TIP3    H151733   4.992   1.208  11.807 -0.3432  0.8584 -0.0619
10106TIP3    H251734   4.890   1.270  11.714 -0.6249 -1.2196 -1.1999
10107TIP3   OH251735   3.720   5.458  13.139  0.3711 -0.1321  1.1146
10107TIP3    H151736   3.640   5.489  13.096  1.1666  0.6520  0.1361
10107TIP3    H251737   3.716   5.363  13.129 -1.2577 -0.2733  2.6148
10108TIP3   OH251738   6.769   4.969  11.981 -0.2161 -0.0883  0.2664
10108TIP3    H151739   6.749   5.058  11.952  0.7202  0.1171  0.2193
10108TIP3    H251740   6.800   4.980  12.071 -0.0294 -0.3659  0.2358
10109TIP3   OH251741   4.186   4.869   4.153  0.5351  0.5279  0.2391
10109TIP3    H151742   4.148   4.952   4.127 -0.3084  0.1952  0.3861
10109TIP3    H251743   4.242   4.844   4.079  1.1955  1.4569  0.4050
10110TIP3   OH251744   5.044   4.773   3.490  0.6826 -0.1808 -0.2018
10110TIP3    H151745   5.123   4.826   3.477  0.6911 -0.2753 -0.5711
10110TIP3    H251746   4.973   4.837   3.496  1.1183  0.1783  3.7210
10111TIP3   OH251747   4.928   5.173  15.862 -0.0548 -0.2497 -0.8251
10111TIP3    H151748   4.892   5.138  15.943 -0.0993  0.3350 -0.5872
10111TIP3    H251749   4.857   5.226  15.825  0.2912  0.2806 -0.7469
10112TIP3   OH251750   5.804   2.694  13.485 -0.2632  0.3132 -0.3502
10112TIP3    H151751   5.725   2.690  13.539 -0.7128 -0.9108 -1.0574
10112TIP3    H251752   5.773   2.725  13.399 -0.2351 -1.4363 -1.0264
10113TIP3   OH251753   5.451   0.092   2.796  0.1645 -0.0499 -0.1384
10113TIP3    H151754   5.503   0.092   2.716  0.6006  1.1538  0.1270
10113TIP3    H251755   5.369   0.137   2.772  1.1869  2.3783  0.5908
10114TIP3   OH251756   4.943   4.251  11.854 -0.0287  0.2447  0.0134
10114TIP3    H151757   4.969   4.333  11.813 -0.5756  0.2563 -0.3272
10114TIP3    H251758   4.991   4.249  11.937 -0.5522  1.2617  0.3629
10115TIP3   OH251759   3.159   4.504  13.269 -0.1946  0.1303  0.1868
10115TIP3    H151760   3.189   4.455  13.346 -0.2578 -0.0393  0.1060
10115TIP3    H251761   3.064   4.498  13.273 -0.1816 -0.8639 -0.5209
10116TIP3   OH251762   2.996   5.201   3.867  0.1414 -0.1816 -0.2869
10116TIP3    H151763   3.080   5.223   3.908  0.9220 -1.2356 -1.2668
10116TIP3    H251764   2.951   5.285   3.860 -0.1415  0.0529  2.8394
10117TIP3   OH251765   2.700   2.258  10.904  0.2941 -0.0958  0.1743
10117TIP3    H151766   2.608   2.264  10.878  0.1102 -0.8845  0.5891
10117TIP3    H251767   2.698   2.266  10.999  0.3014 -2.8846  0.5141
10118TIP3   OH251768   4.812   1.723  12.858 -0.2266 -0.5372 -0.4069
10118TIP3    H151769   4.797   1.679  12.942 -0.0939 -0.2380 -0.2280
10118TIP3    H251770   4.841   1.653  12.800 -1.7983 -1.0522 -0.6216
10119TIP3   OH251771   0.934   1.136  15.840  0.5682  0.1244  0.2776
10119TIP3    H151772   0.880   1.187  15.779 -0.5940 -0.5304  0.7379
10119TIP3    H251773   0.963   1.201  15.905 -1.0845  0.1973  0.9881
10120TIP3   OH251774   2.144   4.899   1.168  0.6070  0.1774  0.5667
10120TIP3    H151775   2.062   4.848   1.165 -1.2016  2.8631  0.7244
10120TIP3    H251776   2.160   4.922   1.076  0.4743  0.6795  0.6671
10121TIP3   OH251777   0.590   2.658  12.492 -0.4310 -0.0667 -0.2919
10121TIP3    H151778   0.506   2.704  12.497 -0.4622  0.2616 -2.7018
10121TIP3    H251779   0.567   2.567  12.474 -0.2943  0.2152 -2.0178
10122TIP3   OH251780   3.453   3.157  11.968  0.6929 -0.5973 -0.1351
10122TIP3    H151781   3.418   3.189  11.885 -0.3018  0.7508  0.7540
10122TIP3    H251782   3.535   3.114  11.945  1.9274  2.2360 -1.5498
10123TIP3   OH251783   4.587   3.108  10.542  0.0808 -0.4171  0.0189
10123TIP3    H151784   4.650   3.140  10.607  0.7281 -1.6532  0.0392
10123TIP3    H251785   4.528   3.181  10.527  0.8417  0.3931  0.8672
10124TIP3   OH251786   3.309   4.985   2.876  0.5881  0.4682  0.3972
10124TIP3    H151787   3.316   4.898   2.835 -0.6064  0.5427 -0.0019
10124TIP3    H251788   3.354   5.043   2.815 -0.2241  0.4024 -0.2864
10125TIP3   OH251789   6.297   4.055   2.318  0.4209 -0.3568 -0.2259
10125TIP3    H151790   6.239   4.120   2.358  0.2282 -0.5866 -0.1279
10125TIP3    H251791   6.359   4.106   2.267 -2.2146 -0.1898 -3.5840
10126TIP3   OH251792   4.589   0.787   5.651  0.0702 -0.6490  0.0343
10126TIP3    H151793   4.617   0.805   5.561  1.9167 -0.7713  0.5379
10126TIP3    H251794   4.529   0.713   5.644 -0.9202  0.2267 -1.2092
10127TIP3   OH251795   5.596   0.755   4.073  0.3847 -0.5692  0.0553
10127TIP3    H151796   5.582   0.837   4.026  1.0983  0.5234  1.6880
10127TIP3    H251797   5.668   0.713   4.026  0.1185 -0.2106 -0.6967
10128TIP3   OH251798   0.438   1.625  14.168  0.1324 -0.0008  0.5889
10128TIP3    H151799   0.470   1.570  14.239 -0.9845 -1.2386  0.1655
10128TIP3    H251800   0.390   1.695  14.212 -1.1736 -1.1569  1.0777
10129TIP3   OH251801   4.842   1.412   3.669 -0.5896  0.5511 -0.0723
10129TIP3    H151802   4.874   1.462   3.744 -0.4738  0.1640  0.1410
10129TIP3    H251803   4.825   1.324   3.705 -1.2646  0.5727 -0.3265
10130TIP3   OH251804   1.915   3.622  14.054 -0.0314  0.6587 -0.2848
10130TIP3    H151805   1.954   3.542  14.091 -0.3970  0.2501 -0.7871
10130TIP3    H251806   1.990   3.680  14.038  0.0781  1.3201  2.1606
10131TIP3   OH251807   6.641   1.712   1.860  1.5702  0.1282 -0.0338
10131TIP3    H151808   6.641   1.787   1.800  1.2144  1.0468  1.0726
10131TIP3    H251809   6.681   1.641   1.809 -0.2017  0.3775 -1.9167
10132TIP3   OH251810   5.007   6.277  16.316 -0.5654  0.4220 -0.1270
10132TIP3    H151811   4.956   6.303  16.239  1.7633  0.5408 -1.7340
10132TIP3    H251812   5.014   6.358  16.367 -1.8381  0.4281  0.0725
10133TIP3   OH251813   2.929   5.161   5.279  0.3340 -0.0507  0.6550
10133TIP3    H151814   2.956   5.080   5.235  0.4898  0.3499 -0.0024
10133TIP3    H251815   2.872   5.132   5.351 -2.9830 -0.6372 -1.9304
10134TIP3   OH251816   4.236   4.472   5.971 -0.0532  0.2222  0.2300
10134TIP3    H151817   4.261   4.379   5.969 -0.4638  0.1187 -0.3928
10134TIP3    H251818   4.298   4.514   5.910  0.6088  0.4905  1.0613
10135TIP3   OH251819   5.665   1.185   2.926 -0.1863 -0.0233 -0.7599
10135TIP3    H151820   5.697   1.275   2.928 -0.1585 -0.0369 -0.1004
10135TIP3    H251821   5.571   1.193   2.945  0.0142 -0.1983  0.4165
10136TIP3   OH251822   4.029   5.194   2.721  0.1953  0.2004 -0.3347
10136TIP3    H151823   3.948   5.245   2.729 -0.1021  0.3450 -3.2582
10136TIP3    H251824   4.000   5.103   2.714  0.4773  0.0027  0.7872
10137TIP3   OH251825   1.679   3.128  16.282 -0.3048 -0.5928 -0.9973
10137TIP3    H151826   1.659   3.079  16.202  1.1034 -2.2042 -0.4287
10137TIP3    H251827   1.775   3.131  16.285 -0.2653 -1.6537  1.1942
10138TIP3   OH251828   0.338   0.630  13.439  0.5456  0.3265  0.0569
10138TIP3    H151829   0.387   0.645  13.519 -0.1474  0.9353  0.3782
10138TIP3    H251830   0.248   0.617  13.469  0.5061 -0.8324 -0.5140
10139TIP3   OH251831   0.809   5.473   4.949 -0.5450  0.5089 -0.6118
10139TIP3    H151832   0.773   5.385   4.936  1.9933 -0.9183  1.1119
10139TIP3    H251833   0.752   5.513   5.014 -1.8523  0.2707 -1.5593
10140TIP3   OH251834   3.610   0.345  13.267 -0.5365 -0.5600 -0.4435
10140TIP3    H151835   3.649   0.386  13.190  0.0050  0.5766  0.4085
10140TIP3    H251836   3.529   0.306  13.235 -0.0628 -0.5649 -1.6851
10141TIP3   OH251837   2.479   3.801   4.221 -0.1332  0.4027  0.4893
10141TIP3    H151838   2.423   3.833   4.291 -0.7364  1.1718 -0.3237
10141TIP3    H251839   2.425   3.807   4.142 -0.4338 -2.9260  0.2636
10142TIP3   OH251840   2.741   6.522  13.297 -0.3739  0.0657 -0.2118
10142TIP3    H151841   2.661   6.474  13.277  0.4396 -1.2100 -0.4648
10142TIP3    H251842   2.803   6.494  13.230  0.6160  0.2231  0.6271
10143TIP3   OH251843   5.424   2.664   3.036 -0.0822 -0.0602  0.0510
10143TIP3    H151844   5.480   2.729   3.079  0.1661  1.0248 -1.7654
10143TIP3    H251845   5.335   2.687   3.061  0.0761  0.3636  0.2207
10144TIP3   OH251846   5.735   5.853   0.707 -0.5434 -0.1670  0.5161
10144TIP3    H151847   5.709   5.871   0.798 -1.7931 -0.3459  0.1971
10144TIP3    H251848   5.666   5.798   0.672 -0.0644 -0.1087 -0.5528
10145TIP3   OH251849   2.544   6.790  14.231  0.6811 -0.5358 -0.1509
10145TIP3    H151850   2.571   6.701  14.252 -0.0328 -0.8623 -0.6089
10145TIP3    H251851   2.463   6.780  14.182  0.5481  0.3723 -0.1296
10146TIP3   OH251852   2.693   3.331  16.367 -0.4663  0.6104 -0.0388
10146TIP3    H151853   2.611   3.332  16.416 -0.1933 -1.4097  0.5419
10146TIP3    H251854   2.753   3.278  16.420  0.4769  0.0791 -1.5612
10147TIP3   OH251855   4.133   0.028   1.075  0.0622  0.3048 -0.1817
10147TIP3    H151856   4.100   0.060   1.159 -1.8449  0.8158 -1.0625
10147TIP3    H251857   4.228   0.027   1.085 -0.1346 -0.5093  2.2708
10148TIP3   OH251858   3.809   2.408  11.943  0.3948 -0.2111  0.0192
10148TIP3    H151859   3.869   2.481  11.927  0.5982 -0.0317  1.4672
10148TIP3    H251860   3.838   2.372  12.027 -1.6796  0.0485  0.8953
10149TIP3   OH251861   6.555   5.105   2.600  0.0778 -0.5160  1.0445
10149TIP3    H151862   6.478   5.133   2.650 -0.2315 -1.4083  1.0894
10149TIP3    H251863   6.521   5.043   2.535  0.0266  2.5512 -2.1627
10150TIP3   OH251864   1.807   3.193   3.887 -0.1906 -0.9077 -0.1995
10150TIP3    H151865   1.861   3.269   3.906  0.6786 -1.1789 -1.4415
10150TIP3    H251866   1.718   3.227   3.881 -0.0053 -0.2476  0.6645
10151TIP3   OH251867   0.650   5.567  11.777 -0.0649  0.1486  0.3114
10151TIP3    H151868   0.730   5.522  11.753 -1.5214 -2.7182  0.4090
10151TIP3    H251869   0.640   5.551  11.871 -1.5151 -0.9095  0.0042
10152TIP3   OH251870   4.473   3.098   4.562 -0.0236  0.4724 -0.2673
10152TIP3    H151871   4.399   3.086   4.622  0.3245 -0.2947  0.0168
10152TIP3    H251872   4.450   3.048   4.484  0.6352 -0.6340  0.2218
10153TIP3   OH251873   0.271   3.133   5.200 -0.3453  0.2947  0.1574
10153TIP3    H151874   0.330   3.077   5.251  1.1123  0.0969 -1.6503
10153TIP3    H251875   0.225   3.186   5.266 -0.5361 -1.7997  1.8314
10154TIP3   OH251876   1.671   3.630  15.283 -0.1811  0.4074  0.6080
10154TIP3    H151877   1.710   3.623  15.370  1.2338 -0.3120 -0.0689
10154TIP3    H251878   1.593   3.574  15.287  0.0356  0.1485  1.3105
10155TIP3   OH251879   6.035   6.068   3.951  0.1886  0.4566  0.2824
10155TIP3    H151880   5.976   6.130   3.994  1.7321  1.9835  0.3124
10155TIP3    H251881   6.082   6.026   4.024  0.5503  0.7070  0.1932
10156TIP3   OH251882   1.820   6.198  13.086 -0.2726 -0.2330  0.0702
10156TIP3    H151883   1.779   6.150  13.013 -0.5460 -0.4474  0.3634
10156TIP3    H251884   1.893   6.142  13.113 -0.6941 -0.5662  0.5223
10157TIP3   OH251885   5.377   3.282   3.249 -0.1922 -0.1525  0.0810
10157TIP3    H151886   5.437   3.307   3.179  0.3539  0.8031  0.8671
10157TIP3    H251887   5.291   3.309   3.217 -0.2483 -1.4776 -1.0280
10158TIP3   OH251888   6.520   2.837   3.308 -0.2223 -0.0311 -0.0273
10158TIP3    H151889   6.507   2.913   3.364  0.2450  0.3308 -0.4032
10158TIP3    H251890   6.592   2.789   3.350 -1.1868 -0.8274  0.7838
10159TIP3   OH251891   0.910   1.359  11.379  0.0404 -0.2620 -0.4374
10159TIP3    H151892   0.859   1.292  11.425 -0.3930 -0.3094 -0.9722
10159TIP3    H251893   0.881   1.442  11.418 -1.9308 -0.1153 -2.0420
10160TIP3   OH251894   1.786   4.738  12.767  0.3636  0.3774  0.0807
10160TIP3    H151895   1.707   4.710  12.814 -0.6965  0.5286 -1.5116
10160TIP3    H251896   1.831   4.656  12.746 -0.6043  0.0851 -1.0000
10161TIP3   OH251897   3.816   0.005   4.062 -0.2708  0.2931 -0.3516
10161TIP3    H151898   3.778   0.081   4.017 -0.9931 -0.4466 -1.0078
10161TIP3    H251899   3.744  -0.057   4.071  0.0437  0.1006  1.1588
10162TIP3   OH251900   0.623   4.294   3.918  0.1984 -0.3284  0.4197
10162TIP3    H151901   0.694   4.273   3.858  0.0984 -0.5189  0.3675
10162TIP3    H251902   0.665   4.341   3.989 -0.0099  2.1591 -0.9816
10163TIP3   OH251903   3.884   5.731  16.622  0.6983  0.5824  0.1741
10163TIP3    H151904   3.847   5.706  16.706  0.1711  0.1661 -0.1747
10163TIP3    H251905   3.815   5.782  16.579  0.2052 -0.8534 -0.8011
10164TIP3   OH251906   3.446   3.537   5.139 -0.6152 -1.0812  0.0514
10164TIP3    H151907   3.386   3.567   5.207 -0.7723 -0.8289 -0.1982
10164TIP3    H251908   3.392   3.481   5.082 -0.8447 -0.1439 -0.6827
10165TIP3   OH251909   3.052   2.215   0.092 -0.2244 -0.0827 -0.1638
10165TIP3    H151910   2.985   2.176   0.148 -0.7500  0.0612 -0.6810
10165TIP3    H251911   3.056   2.307   0.121 -0.8722  0.1232 -0.7034
10166TIP3   OH251912   3.062   1.064  14.820 -1.1617 -0.5633  0.6701
10166TIP3    H151913   3.137   1.030  14.868  0.0111 -1.7007 -1.7972
10166TIP3    H251914   2.993   0.999  14.832 -0.3533 -1.6552 -0.4486
10167TIP3   OH251915   4.432   0.667  10.744  0.4736 -0.2664 -0.1122
10167TIP3    H151916   4.490   0.595  10.719  0.9738  0.3764 -0.8725
10167TIP3    H251917   4.490   0.742  10.755 -0.1080  0.1739  0.0304
10168TIP3   OH251918   2.126   3.675  13.042 -0.2233  0.4737  0.1144
10168TIP3    H151919   2.083   3.595  13.013  1.2773 -0.3440  0.0112
10168TIP3    H251920   2.079   3.700  13.121 -0.6893 -0.5676  0.1894
10169TIP3   OH251921   5.642   1.492  16.377  0.1210  0.5639  0.6410
10169TIP3    H151922   5.690   1.418  16.415  0.7044 -0.7135 -2.3189
10169TIP3    H251923   5.689   1.569  16.407  1.9709 -0.4844  0.6141
10170TIP3   OH251924   4.832   6.246  13.970 -0.1656 -0.0087  0.3781
10170TIP3    H151925   4.775   6.212  14.039  1.6340 -1.6266  1.1583
10170TIP3    H251926   4.786   6.324  13.937 -2.6305 -1.0362  1.1487
10171TIP3   OH251927   0.069   1.103  16.686  0.2568 -0.2453  0.2899
10171TIP3    H151928   0.135   1.168  16.662  0.7455 -1.5360 -2.0941
10171TIP3    H251929   0.045   1.061  16.603 -0.6184 -2.5865  1.6554
10172TIP3   OH251930   1.579   0.653  13.370  0.3212 -0.3099  0.0501
10172TIP3    H151931   1.484   0.654  13.378  0.1659  0.3006 -1.5904
10172TIP3    H251932   1.601   0.560  13.362 -0.4062 -0.3537 -2.0076
10173TIP3   OH251933   0.971   3.270  15.833  0.1900  0.6908  0.1053
10173TIP3    H151934   1.046   3.299  15.886  0.2447  0.1167  0.3468
10173TIP3    H251935   1.003   3.274  15.743  0.1027  1.6577  0.1043
10174TIP3   OH251936   5.558   5.211   5.806  0.5932 -0.2103 -0.1400
10174TIP3    H151937   5.570   5.142   5.871  0.1901 -0.7270 -0.6015
10174TIP3    H251938   5.616   5.281   5.834  0.0185 -0.2076  1.0790
10175TIP3   OH251939   2.475   1.528   1.110 -0.3058 -0.0135 -0.2017
10175TIP3    H151940   2.413   1.526   1.183 -0.3892  0.1796 -0.2648
10175TIP3    H251941   2.428   1.486   1.038 -0.3385  0.0739 -0.2311
10176TIP3   OH251942   6.248   4.869  11.789 -0.2795  0.4303 -0.0494
10176TIP3    H151943   6.154   4.883  11.805 -1.3265 -1.4557 -3.4114
10176TIP3    H251944   6.267   4.785  11.831  0.8743  2.2056  3.3178
10177TIP3   OH251945   3.427   0.456   4.184 -0.0012  0.1991 -0.1375
10177TIP3    H151946   3.343   0.498   4.203 -0.5864 -1.0978  0.2181
10177TIP3    H251947   3.408   0.363   4.183  1.0662 -0.0583 -1.8816
10178TIP3   OH251948   6.031   3.974   2.592 -0.0402 -0.5812  0.0516
10178TIP3    H151949   6.011   3.958   2.500 -2.0362 -0.5954  0.4253
10178TIP3    H251950   6.081   3.897   2.620  0.8964 -0.4025 -1.0931
10179TIP3   OH251951   1.573   2.782  16.682  0.2633  0.0796  0.0761
10179TIP3    H151952   1.630   2.778  16.759  1.1010 -0.6065 -0.5543
10179TIP3    H251953   1.603   2.710  16.627 -1.0375 -0.1091 -0.4068
10180TIP3   OH251954   5.633   4.006  14.466 -0.5813 -0.1190  0.2705
10180TIP3    H151955   5.659   4.072  14.530 -1.1475  1.1296 -0.7548
10180TIP3    H251956   5.712   3.953  14.453  1.1077  2.6278 -1.6141
10181TIP3   OH251957   3.377   2.960  15.382 -0.4766 -0.0164  0.1347
10181TIP3    H151958   3.381   2.897  15.310 -2.6943  1.1064 -1.0863
10181TIP3    H251959   3.286   2.954  15.413 -1.2505  3.5137 -1.0105
10182TIP3   OH251960   5.715   4.285  13.677  0.1615  0.0744  0.0029
10182TIP3    H151961   5.747   4.225  13.610  1.6822  0.5644  0.2361
10182TIP3    H251962   5.734   4.241  13.760  1.1092  0.7556  0.1695
10183TIP3   OH251963   6.591   4.101  15.556 -0.6262  0.4232 -0.3883
10183TIP3    H151964   6.635   4.098  15.471  2.5706 -2.2468  1.1465
10183TIP3    H251965   6.634   4.173  15.602  0.0979 -0.2801  0.0702
10184TIP3   OH251966   5.047   4.613  11.341  0.1786 -0.0799  0.2970
10184TIP3    H151967   4.972   4.638  11.395  0.0099  0.1667 -0.0435
10184TIP3    H251968   5.014   4.619  11.251  0.3675 -0.7913  0.1811
10185TIP3   OH251969   6.228   4.118  11.384 -0.3905  0.1491 -0.4683
10185TIP3    H151970   6.147   4.164  11.405 -0.7692 -0.3122 -0.9014
10185TIP3    H251971   6.260   4.158  11.303 -0.0473  0.4962 -0.1682
10186TIP3   OH251972   3.088   4.559  14.014 -0.0149  0.1312 -1.0940
10186TIP3    H151973   3.171   4.569  14.060 -0.1010  1.0379 -1.1117
10186TIP3    H251974   3.099   4.480  13.961  0.0848 -0.9497  0.4660
10187TIP3   OH251975   0.125   5.128   2.270 -0.2530 -0.1324 -0.4815
10187TIP3    H151976   0.192   5.191   2.245  0.7980 -0.5940  1.0078
10187TIP3    H251977   0.133   5.057   2.207 -0.7165  0.7062 -1.5117
10188TIP3   OH251978   2.263   2.022  15.254  0.3771 -0.5596 -0.0740
10188TIP3    H151979   2.357   2.007  15.264  0.7569  1.0985 -0.7440
10188TIP3    H251980   2.233   2.046  15.342  0.4552 -1.6371  0.2550
10189TIP3   OH251981   2.167   0.608   4.864 -0.1988 -0.0436 -0.6437
10189TIP3    H151982   2.256   0.644   4.869 -0.8924  1.6886  0.3200
10189TIP3    H251983   2.114   0.683   4.837 -1.5228 -0.7747 -0.1200
10190TIP3   OH251984   1.344   0.575   3.267 -0.1735 -0.1025 -0.0458
10190TIP3    H151985   1.271   0.532   3.312 -0.6254  0.3842 -0.2882
10190TIP3    H251986   1.318   0.667   3.264  0.3685  0.0450 -0.3108
10191TIP3   OH251987   2.293   4.737  11.388 -0.4969 -0.5715  0.1783
10191TIP3    H151988   2.237   4.790  11.446  0.3852 -0.6485  1.1309
10191TIP3    H251989   2.344   4.683  11.448  0.2770 -0.8278 -0.6989
10192TIP3   OH251990   2.517   2.666  15.170 -0.3492 -0.2947  0.2497
10192TIP3    H151991   2.485   2.602  15.234  1.0810 -1.3116 -0.0064
10192TIP3    H251992   2.517   2.749  15.218 -1.0599 -0.6894  0.9759
10193TIP3   OH251993   2.070   4.751   4.797 -0.2655 -0.0685  0.5914
10193TIP3    H151994   2.126   4.826   4.816 -0.1738  0.0750 -0.2150
10193TIP3    H251995   1.981   4.783   4.810 -0.2652  0.4007 -0.4309
10194TIP3   OH251996   5.127   5.569   1.598  0.6305  0.3908  0.3216
10194TIP3    H151997   5.098   5.479   1.600  0.6929  0.3776  0.6603
10194TIP3    H251998   5.167   5.580   1.511  2.0512 -0.3658  0.8467
10195TIP3   OH251999   2.103   0.886   1.100 -0.6340 -0.0026  0.3304
10195TIP3    H152000   2.101   0.856   1.191 -0.2309  0.1452  0.3914
10195TIP3    H252001   2.019   0.858   1.064 -0.4786 -0.7507  0.5327
10196TIP3   OH252002   2.615   2.649  12.598 -0.3969 -0.0004 -0.1932
10196TIP3    H152003   2.520   2.647  12.590 -0.4275  0.4973  0.0244
10196TIP3    H252004   2.645   2.572  12.549 -0.9935 -1.0652  1.0607
10197TIP3   OH252005   3.869   3.531   3.185  0.5454 -0.0763 -0.0718
10197TIP3    H152006   3.797   3.552   3.246 -0.1401 -0.4843 -0.7269
10197TIP3    H252007   3.926   3.473   3.235  0.1321 -0.1842  0.2832
10198TIP3   OH252008   6.086   5.299   1.725 -0.2756  1.4166 -0.6672
10198TIP3    H152009   6.062   5.320   1.635  1.2061  3.0830 -0.7379
10198TIP3    H252010   6.003   5.304   1.773 -0.9816  1.1738 -1.8102
10199TIP3   OH252011   1.903   1.474  16.517  0.0395 -0.2787 -0.0521
10199TIP3    H152012   1.982   1.449  16.565  0.2803 -0.1168 -0.3654
10199TIP3    H252013   1.929   1.474  16.425 -0.5246 -0.9954 -0.2243
10200TIP3   OH252014   4.916   5.519   3.234  0.3152 -1.1236  0.1137
10200TIP3    H152015   4.969   5.513   3.155  0.2872 -1.4647  0.1214
10200TIP3    H252016   4.925   5.611   3.262 -0.3339 -0.7921 -0.7345
10201TIP3   OH252017   5.113   5.103  11.896 -0.3354  0.4347  0.1481
10201TIP3    H152018   5.045   5.168  11.912 -0.9487  0.1067 -0.9805
10201TIP3    H252019   5.189   5.135  11.945 -1.2262  0.9108  1.2709
10202TIP3   OH252020   6.130   3.748   0.691 -0.5647  0.0086 -0.4360
10202TIP3    H152021   6.178   3.758   0.609 -0.4639  1.1710 -0.2497
10202TIP3    H252022   6.042   3.722   0.664  0.1221 -2.1900 -0.7776
10203TIP3   OH252023   5.536   2.933  11.893  0.3489 -0.2874  0.2887
10203TIP3    H152024   5.519   2.939  11.799  0.3335  1.4338  0.3754
10203TIP3    H252025   5.612   2.874  11.899  0.4405 -0.3024 -0.8010
10204TIP3   OH252026   2.630   1.067  14.251 -0.6225  0.2266 -0.5529
10204TIP3    H152027   2.723   1.046  14.248 -0.1361  2.2423 -1.1868
10204TIP3    H252028   2.587   0.992  14.211  0.7246 -0.7038 -0.3111
10205TIP3   OH252029   5.864   4.397   3.306 -0.4370 -0.1852 -0.5716
10205TIP3    H152030   5.926   4.390   3.379 -1.9437  1.9722  1.0340
10205TIP3    H252031   5.917   4.433   3.234  0.7528 -0.9526 -0.1158
10206TIP3   OH252032   5.542   0.117   2.019 -0.3366 -0.0415  0.1037
10206TIP3    H152033   5.482   0.042   2.016 -1.9373  1.2374 -1.6169
10206TIP3    H252034   5.620   0.087   1.972 -0.2917 -1.1272  0.8216
10207TIP3   OH252035   3.466   5.810   4.444  0.3543 -0.4697  0.4484
10207TIP3    H152036   3.477   5.789   4.351  1.0398 -1.6504  0.7714
10207TIP3    H252037   3.519   5.888   4.458 -2.4660  1.8948 -0.8560
10208TIP3   OH252038   6.442   2.537  12.257 -0.0137  0.9102 -0.5992
10208TIP3    H152039   6.365   2.593  12.243  1.7453  3.0870 -2.3213
10208TIP3    H252040   6.467   2.508  12.169 -0.7155 -2.5737  0.2063
10209TIP3   OH252041   6.450   3.823   4.122 -0.6617 -0.2908 -0.3054
10209TIP3    H152042   6.490   3.753   4.173 -1.4141  0.9881  2.2044
10209TIP3    H252043   6.508   3.898   4.133 -1.2361  0.2321 -0.7120
10210TIP3   OH252044   2.155   4.375   5.626  0.4087  0.4373 -0.2520
10210TIP3    H152045   2.194   4.339   5.706 -0.4184  0.4372  0.1634
10210TIP3    H252046   2.202   4.333   5.555  0.2331 -0.6091  0.2302
10211TIP3   OH252047   3.399   0.187   4.548 -0.2746  0.1078  0.2605
10211TIP3    H152048   3.395   0.243   4.625 -0.8910  2.0209 -1.1075
10211TIP3    H252049   3.308   0.178   4.520  0.0341  0.4585 -0.9275
10212TIP3   OH252050   0.178   2.353   1.129  0.0957  0.2284  0.1026
10212TIP3    H152051   0.111   2.337   1.062 -0.6383  1.6335  0.4618
10212TIP3    H252052   0.185   2.270   1.176 -0.7257 -0.2285 -0.5511
10213TIP3   OH252053   0.750   6.240  15.615 -0.5093 -0.3373 -0.0582
10213TIP3    H152054   0.792   6.240  15.529  2.1022  0.6265  1.1082
10213TIP3    H252055   0.723   6.331  15.628  0.2322 -0.1971  0.6045
10214TIP3   OH252056   4.753   3.500   4.410  0.1023  0.0097  0.0553
10214TIP3    H152057   4.795   3.509   4.496 -1.6373  1.4208  0.8191
10214TIP3    H252058   4.764   3.407   4.388 -0.1168 -0.5772  2.1932
10215TIP3   OH252059   4.454   2.431  15.566  0.1167 -0.3570  0.0766
10215TIP3    H152060   4.480   2.504  15.510  0.0513 -1.1753 -1.0432
10215TIP3    H252061   4.370   2.403  15.531 -0.0176 -0.7753  0.7100
10216TIP3   OH252062   2.594   5.199  14.872 -0.5033  0.0293 -0.2832
10216TIP3    H152063   2.566   5.115  14.907 -1.3244 -0.3283 -1.7277
10216TIP3    H252064   2.666   5.226  14.929  0.5142 -2.1743 -0.4228
10217TIP3   OH252065   4.952   5.866  11.541 -0.2894  0.6361 -0.0369
10217TIP3    H152066   4.895   5.938  11.568 -0.9356 -0.2666  1.1223
10217TIP3    H252067   4.892   5.804  11.500  0.3418  0.9639 -1.4923
10218TIP3   OH252068   4.424   2.581   5.854 -0.6380  0.0606 -0.0159
10218TIP3    H152069   4.505   2.617   5.819 -0.2750  1.3514  2.0229
10218TIP3    H252070   4.378   2.656   5.890 -0.3322 -1.2667  3.5062
10219TIP3   OH252071   2.839   3.528   0.886  0.5595  0.6115 -0.1825
10219TIP3    H152072   2.886   3.611   0.878  1.2982  0.1182 -1.2370
10219TIP3    H252073   2.903   3.462   0.859  0.0926 -0.3463  0.9850
10220TIP3   OH252074   2.021   6.433   5.419 -0.3584  0.2076  0.4753
10220TIP3    H152075   2.046   6.438   5.326 -0.0341 -1.0684  0.4848
10220TIP3    H252076   1.931   6.401   5.417 -0.6408  0.9597  0.5921
10221TIP3   OH252077   3.216   3.884  11.868 -0.2050  0.2677  0.2516
10221TIP3    H152078   3.203   3.789  11.867 -2.2619  0.5031  0.2661
10221TIP3    H252079   3.128   3.920  11.879  0.5773  2.1798  0.6231
10222TIP3   OH252080   3.856   2.894  11.480  0.4452 -0.0859 -0.4908
10222TIP3    H152081   3.858   2.938  11.395 -0.2468  1.2146  0.1414
10222TIP3    H252082   3.928   2.934  11.529  0.8007 -0.7849 -0.4188
10223TIP3   OH252083   1.186   4.920  13.265  0.1916 -0.2937  0.0947
10223TIP3    H152084   1.146   4.982  13.326 -0.9909  0.6257 -1.5556
10223TIP3    H252085   1.115   4.861  13.239 -0.0726  1.0248 -2.4566
10224TIP3   OH252086   0.663   1.768   4.930 -0.5024  0.2866  0.2766
10224TIP3    H152087   0.624   1.828   4.993 -0.6439  1.8718 -1.2663
10224TIP3    H252088   0.757   1.784   4.937 -0.4642 -0.0533  0.5741
10225TIP3   OH252089   5.719   6.090  13.192  0.2901  0.7117 -0.3093
10225TIP3    H152090   5.709   6.007  13.146 -1.0488  0.8748 -0.3526
10225TIP3    H252091   5.795   6.076  13.250 -0.7972 -1.0679  0.7923
10226TIP3   OH252092   5.283   6.584   3.962  0.0417  0.0691  0.8415
10226TIP3    H152093   5.333   6.527   3.905  0.6304  0.4472  0.9726
10226TIP3    H252094   5.198   6.593   3.918 -0.9164 -2.6664  1.8964
10227TIP3   OH252095   1.414   2.794  13.603 -0.3659  0.2570  0.3617
10227TIP3    H152096   1.326   2.832  13.607  0.1430  1.4299  0.7835
10227TIP3    H252097   1.451   2.808  13.690  1.0813  1.9133 -0.4511
10228TIP3   OH252098   3.025   1.182   5.084 -0.2767  0.8431  0.2123
10228TIP3    H152099   3.009   1.275   5.099  2.4861  1.9169 -2.5022
10228TIP3    H252100   3.044   1.147   5.170 -1.6293  2.6832  1.3465
10229TIP3   OH252101   6.638   0.528   2.960 -0.4543  0.3234  0.1620
10229TIP3    H152102   6.683   0.446   2.981 -0.2218  0.2555 -0.5752
10229TIP3    H252103   6.700   0.597   2.986 -1.1508  0.3271  1.9741
10230TIP3   OH252104   0.015   0.783   1.624  0.1400  0.2744 -0.6496
10230TIP3    H152105  -0.052   0.807   1.559 -0.7034 -0.0298  0.0796
10230TIP3    H252106  -0.020   0.705   1.667  0.9731  0.1091 -0.2471
10231TIP3   OH252107   5.623   3.640   1.500 -0.1332  0.4982  0.3229
10231TIP3    H152108   5.683   3.573   1.532 -0.5850  1.0345  2.4600
10231TIP3    H252109   5.545   3.631   1.555 -0.4854  2.3031  0.2023
10232TIP3   OH252110   5.865   5.391   4.428  0.3887  0.3326 -0.2279
10232TIP3    H152111   5.875   5.459   4.494 -0.5716  1.6785 -1.4245
10232TIP3    H252112   5.830   5.316   4.476 -0.2796  1.2735  0.8045
10233TIP3   OH252113   2.089   4.507   5.198 -0.2797 -0.4512 -0.5146
10233TIP3    H152114   2.159   4.562   5.164 -0.7670 -0.2832 -1.2741
10233TIP3    H252115   2.081   4.436   5.133 -0.4995 -0.7177 -0.1972
10234TIP3   OH252116   3.070   6.369   3.021 -0.3838 -0.3924  0.0284
10234TIP3    H152117   3.100   6.305   2.956  1.4819 -2.1691  2.4324
10234TIP3    H252118   3.149   6.416   3.047 -0.8477 -0.4573  1.6777
10235TIP3   OH252119   0.829   0.690  10.755  0.0805 -0.8681  0.2061
10235TIP3    H152120   0.920   0.692  10.726 -0.2551 -0.0636 -0.8506
10235TIP3    H252121   0.782   0.647  10.683 -0.2961 -1.9004  1.0332
10236TIP3   OH252122   4.582   2.150  12.343 -0.4340  0.0365 -0.4735
10236TIP3    H152123   4.642   2.207  12.295 -0.1545  3.2383  3.1776
10236TIP3    H252124   4.630   2.068  12.355  1.5498  1.0468 -1.0558
10237TIP3   OH252125   1.901   0.134   5.315 -0.2336  0.2168 -0.0053
10237TIP3    H152126   1.936   0.073   5.251 -0.7320 -0.4520  0.3387
10237TIP3    H252127   1.959   0.126   5.391 -0.0445  0.4923 -0.1227
10238TIP3   OH252128   6.608   0.199  16.539 -0.4226  0.0954 -0.3507
10238TIP3    H152129   6.633   0.256  16.466  0.0536  0.1295 -0.1669
10238TIP3    H252130   6.601   0.112  16.500 -1.9643  0.3926 -0.8057
10239TIP3   OH252131   0.289   1.769  17.027  0.1776  0.3875 -0.0270
10239TIP3    H152132   0.328   1.841  16.977  0.3339  0.7092  0.5532
10239TIP3    H252133   0.260   1.707  16.960 -0.8768  1.4360 -0.5815
10240TIP3   OH252134   6.210   0.484   2.993  0.5352 -0.1359 -0.6890
10240TIP3    H152135   6.284   0.423   2.989  0.6104 -0.0382 -0.8471
10240TIP3    H252136   6.186   0.487   3.085  1.9028  1.2118 -0.3307
10241TIP3   OH252137   1.577   4.577   5.593  0.4059 -0.1713  0.0307
10241TIP3    H152138   1.632   4.631   5.536  0.7841 -0.0670  0.4835
10241TIP3    H252139   1.535   4.515   5.534  0.3402  0.3096 -0.4324
10242TIP3   OH252140   5.996   3.902  12.422 -0.1534 -0.0243  0.1985
10242TIP3    H152141   6.058   3.830  12.422  0.6430  0.6434  0.0285
10242TIP3    H252142   6.050   3.981  12.418 -0.9737  0.6109  1.0495
10243TIP3   OH252143   4.065   2.837  15.924 -0.0853 -0.2931  0.2347
10243TIP3    H152144   4.020   2.803  16.001 -2.1780  0.2217 -0.6879
10243TIP3    H252145   4.092   2.925  15.948 -0.2652 -0.3214  0.5432
10244TIP3   OH252146   5.562   2.093  13.183  0.2041  0.0241  0.3402
10244TIP3    H152147   5.487   2.046  13.145 -1.0888  1.2404  1.2489
10244TIP3    H252148   5.609   2.026  13.232  0.4165 -1.0163 -1.2028
10245TIP3   OH252149   2.823   6.117  13.190 -0.4519 -0.7983  0.4153
10245TIP3    H152150   2.731   6.137  13.173 -0.4822 -1.2371  0.0385
10245TIP3    H252151   2.824   6.079  13.278 -0.5438 -0.2188  0.6695
10246TIP3   OH252152   2.867   5.775  16.830 -0.2699 -0.6087 -0.1393
10246TIP3    H152153   2.845   5.709  16.764 -0.9988 -1.4731  0.9385
10246TIP3    H252154   2.799   5.767  16.897 -1.0481  1.9990 -0.4743
10247TIP3   OH252155   0.740   2.230   4.736 -0.7136  0.3816  0.1185
10247TIP3    H152156   0.792   2.240   4.815  0.0267  1.8385 -0.5177
10247TIP3    H252157   0.802   2.200   4.669 -0.8596  1.2385 -0.4223
10248TIP3   OH252158   4.859   0.566  17.023  0.6655 -0.3058 -0.2681
10248TIP3    H152159   4.825   0.547  17.111  0.6560 -1.0030 -0.4203
10248TIP3    H252160   4.933   0.625  17.039  0.5850 -0.3266  0.1991
10249TIP3   OH252161   1.465   1.581   0.150  0.4790 -0.2370 -0.7117
10249TIP3    H152162   1.372   1.604   0.156  0.0493 -1.8274 -0.8406
10249TIP3    H252163   1.484   1.586   0.056  0.7881  0.9533 -0.6082
10250TIP3   OH252164   0.632   5.532   6.094  0.7478 -0.0885  0.5250
10250TIP3    H152165   0.627   5.625   6.116  0.1755 -0.2416  1.0588
10250TIP3    H252166   0.715   5.502   6.130  1.8512  0.6374 -1.2963
10251TIP3   OH252167   2.083   0.362   4.769 -0.0357  0.4101 -0.7938
10251TIP3    H152168   2.106   0.451   4.796 -1.2177  1.0861 -1.9257
10251TIP3    H252169   2.013   0.373   4.704  2.0552 -1.1640 -3.5245
10252TIP3   OH252170   2.940   0.265  15.706  0.5102  0.7291  0.3247
10252TIP3    H152171   2.984   0.350  15.697 -1.4279  1.6244 -1.7640
10252TIP3    H252172   2.850   0.282  15.680  0.0196 -1.9507 -0.0366
10253TIP3   OH252173   2.934   4.989   1.850 -1.0100  0.2878  0.0156
10253TIP3    H152174   2.948   4.948   1.765 -1.3641  1.0562 -0.4222
10253TIP3    H252175   3.014   5.040   1.866 -1.5249  1.3266 -0.5593
10254TIP3   OH252176   0.354   6.121  17.137 -0.3599 -0.5861  0.2090
10254TIP3    H152177   0.395   6.158  17.215  1.4569 -0.2402 -0.8508
10254TIP3    H252178   0.304   6.194  17.099  1.3795  0.2261 -0.6456
10255TIP3   OH252179   4.542   3.526   3.528  0.3071  0.5217 -0.2353
10255TIP3    H152180   4.624   3.492   3.565  0.3847  1.0382  0.0712
10255TIP3    H252181   4.554   3.621   3.527 -1.2852  0.8529  2.2809
10256TIP3   OH252182   5.287   2.752  14.109  0.7536  0.0917 -0.1309
10256TIP3    H152183   5.197   2.743  14.142  1.5615  3.3214  3.8562
10256TIP3    H252184   5.342   2.741  14.187  3.7095  0.3352 -2.0258
10257TIP3   OH252185   2.269   0.232  12.577 -0.1429 -0.5757 -0.6326
10257TIP3    H152186   2.304   0.203  12.493  0.6340 -2.9392  0.4141
10257TIP3    H252187   2.287   0.159  12.637 -2.5854  0.1179  1.1072
10258TIP3   OH252188   2.828   6.475  13.591 -0.7217 -0.2911 -0.2452
10258TIP3    H152189   2.798   6.397  13.639  0.9375  0.5560  2.4229
10258TIP3    H252190   2.842   6.445  13.502 -1.4203 -2.7047  0.3865
10259TIP3   OH252191   2.588   6.774   2.019 -0.4615 -0.0791 -0.1885
10259TIP3    H152192   2.669   6.723   2.021 -0.4871 -0.0996  1.2166
10259TIP3    H252193   2.555   6.764   1.929  1.7293  0.9701 -1.1844
10260TIP3   OH252194   5.704   4.687   0.089 -0.1496 -0.2747 -0.1078
10260TIP3    H152195   5.756   4.609   0.109 -0.1629 -0.4811 -0.8486
10260TIP3    H252196   5.669   4.671   0.002  0.2806  0.8060 -0.4955
10261TIP3   OH252197   6.475   4.416  14.923  0.1733 -0.1059 -0.4300
10261TIP3    H152198   6.563   4.407  14.886  0.5693 -0.5989  0.5882
10261TIP3    H252199   6.487   4.473  14.999 -0.3033 -0.5204 -0.0353
10262TIP3   OH252200   1.188   4.359   1.562 -0.4665 -0.6729  0.2690
10262TIP3    H152201   1.150   4.441   1.594  2.2669  0.8817 -0.0845
10262TIP3    H252202   1.193   4.371   1.467  2.1736 -0.0632  0.3978
10263TIP3   OH252203   4.004   3.778   0.954  0.5117 -1.4566 -0.0107
10263TIP3    H152204   4.051   3.807   0.876  0.7031  0.9567  0.9176
10263TIP3    H252205   3.932   3.840   0.963 -1.1273 -3.2999  0.2828
10264TIP3   OH252206   2.276   2.972  13.062  0.1856  0.1358 -0.1343
10264TIP3    H152207   2.215   3.040  13.091  0.0058  0.9947 -2.3429
10264TIP3    H252208   2.263   2.966  12.967  0.5885 -2.6231 -0.1067
10265TIP3   OH252209   2.156   4.681  12.344 -0.7285  0.3133  0.1411
10265TIP3    H152210   2.091   4.750  12.330 -2.0435 -0.6523  1.2341
10265TIP3    H252211   2.123   4.632  12.420  0.6956 -0.8982  0.0175
10266TIP3   OH252212   0.509   2.971   5.836  0.3569 -0.3557  0.0522
10266TIP3    H152213   0.484   3.060   5.859  2.1456  0.1995 -0.0236
10266TIP3    H252214   0.442   2.916   5.876 -0.0069  0.9395  1.2991
10267TIP3   OH252215   1.982   4.300  12.146  0.4511  0.8199  0.1509
10267TIP3    H152216   2.045   4.275  12.214  0.5108  0.3771 -0.0624
10267TIP3    H252217   1.933   4.220  12.128  0.5833  0.8761 -0.4840
10268TIP3   OH252218   0.725   4.998  15.173 -0.4660 -0.1941  0.2215
10268TIP3    H152219   0.655   5.020  15.111 -1.0417  0.0055  0.9258
10268TIP3    H252220   0.803   5.039  15.136 -1.3062  2.2807  0.9899
10269TIP3   OH252221   0.286   4.617   1.303 -0.0976 -0.2906 -0.0626
10269TIP3    H152222   0.337   4.653   1.230  1.1355 -0.4656  0.6933
10269TIP3    H252223   0.264   4.528   1.275 -1.2482  0.2426 -0.9842
10270TIP3   OH252224   4.986   1.388  12.137  0.0081 -0.2123 -0.2751
10270TIP3    H152225   4.890   1.392  12.143  0.1319  1.7705  1.5128
10270TIP3    H252226   5.015   1.474  12.168  2.3917 -0.8377 -0.6355
10271TIP3   OH252227   4.446   0.403  10.299  0.6157 -0.2751 -0.1066
10271TIP3    H152228   4.364   0.451  10.308 -0.4193 -2.0125  0.1041
10271TIP3    H252229   4.425   0.330  10.241  2.5998  0.4655 -1.9056
10272TIP3   OH252230   1.391   4.646  17.088 -0.5047  0.3715 -0.4395
10272TIP3    H152231   1.464   4.708  17.088  2.0426 -2.3215  1.5640
10272TIP3    H252232   1.341   4.667  17.167  0.7966 -0.5095  0.6555
10273TIP3   OH252233   2.384   1.332   0.938  0.4533  0.4959  0.2979
10273TIP3    H152234   2.316   1.268   0.960  1.1335 -0.4492 -0.3060
10273TIP3    H252235   2.465   1.281   0.935  0.7854  1.0484 -1.8056
10274TIP3   OH252236   1.989   5.036   3.934  0.5952  0.1034 -0.3302
10274TIP3    H152237   1.918   4.972   3.933 -1.5165  2.1877  2.0178
10274TIP3    H252238   1.977   5.087   3.854  0.6189 -0.7046 -0.8596
10275TIP3   OH252239   0.329   1.264  12.395  0.5012  0.0961  0.6866
10275TIP3    H152240   0.275   1.212  12.336  1.3063 -0.6295  0.5700
10275TIP3    H252241   0.278   1.344  12.410 -1.3613 -1.2767  1.9487
10276TIP3   OH252242   1.373   2.440  10.712 -0.7952  0.0801  0.2716
10276TIP3    H152243   1.420   2.498  10.653 -1.2482 -0.8653 -1.0955
10276TIP3    H252244   1.294   2.416  10.663 -1.3979 -0.4041  1.4469
10277TIP3   OH252245   0.966   0.952  16.049  0.7627 -0.6125  0.1803
10277TIP3    H152246   0.937   1.008  15.977  2.0359 -0.0101  0.1194
10277TIP3    H252247   0.886   0.936  16.100  0.2277  0.5866 -0.2450
10278TIP3   OH252248   3.985   5.764  16.349 -0.1431 -0.4676 -0.4022
10278TIP3    H152249   4.006   5.854  16.323 -2.4755 -0.0144 -0.9920
10278TIP3    H252250   3.960   5.771  16.441 -0.6813 -0.4391 -0.5492
10279TIP3   OH252251   4.383   4.766  11.929  0.2097  0.9303 -0.2450
10279TIP3    H152252   4.405   4.855  11.956 -1.3003  1.4651 -0.6706
10279TIP3    H252253   4.288   4.761  11.939  0.4614 -1.4348  2.1434
10280TIP3   OH252254   2.702   2.901  16.528 -0.0375  0.1911  0.5314
10280TIP3    H152255   2.770   2.840  16.498  1.9621  3.0153 -1.1973
10280TIP3    H252256   2.732   2.929  16.614  1.1577  1.4431 -0.2324
10281TIP3   OH252257   1.582   0.315  13.809 -0.3306  0.2113  0.1180
10281TIP3    H152258   1.611   0.366  13.885 -1.3052 -2.5215  2.5137
10281TIP3    H252259   1.634   0.235  13.813 -2.2035 -1.1049 -0.5259
10282TIP3   OH252260   4.507   3.955  14.917  0.2833  0.1498 -0.5838
10282TIP3    H152261   4.580   3.901  14.946  1.1655  1.1771 -0.8430
10282TIP3    H252262   4.462   3.901  14.852  0.7821 -0.5153 -0.3856
10283TIP3   OH252263   4.693   2.556  12.773  0.7418  0.0426  0.0133
10283TIP3    H152264   4.621   2.513  12.727 -1.5607  1.6389  1.8887
10283TIP3    H252265   4.749   2.484  12.801 -1.7346 -1.6277  1.0361
10284TIP3   OH252266   2.219   5.985  12.217  0.8576  0.1534 -0.2662
10284TIP3    H152267   2.174   6.050  12.270 -0.2183  1.3486 -2.4753
10284TIP3    H252268   2.259   5.925  12.280 -2.0979  0.2078  1.8737
10285TIP3   OH252269   1.787   1.339   3.587 -0.3033 -0.0200  0.2367
10285TIP3    H152270   1.727   1.288   3.532  0.1135  0.4086 -0.6242
10285TIP3    H252271   1.867   1.287   3.590 -0.7766 -0.7323  1.6200
10286TIP3   OH252272   5.506   0.097   5.584  0.3818  0.5358  0.2352
10286TIP3    H152273   5.498   0.164   5.517 -1.2370  0.5215  0.3582
10286TIP3    H252274   5.576   0.127   5.641  0.4600  1.5301 -0.3746
10287TIP3   OH252275   6.195   2.723  11.703 -0.4146 -0.9533  0.0690
10287TIP3    H152276   6.180   2.801  11.758 -1.2367 -0.7803 -0.3811
10287TIP3    H252277   6.256   2.670  11.754  1.4366  0.7021 -0.3222
10288TIP3   OH252278   0.930   0.078   5.769 -0.1515 -1.0571 -0.1682
10288TIP3    H152279   0.950   0.017   5.841 -1.8947 -0.4358  0.8897
10288TIP3    H252280   0.898   0.021   5.699  0.6077 -1.5746 -0.1143
10289TIP3   OH252281   5.899   6.334  14.635  0.1015  0.3380 -0.0291
10289TIP3    H152282   5.934   6.384  14.709 -1.9115  1.2951  0.3529
10289TIP3    H252283   5.971   6.333  14.571  0.4204  3.4832  0.0850
10290TIP3   OH252284   2.353   1.607   3.212  0.1760 -0.0075  0.0913
10290TIP3    H152285   2.385   1.536   3.157 -0.0567 -2.6073  2.9938
10290TIP3    H252286   2.432   1.648   3.247  0.3060  0.8075 -1.1053
10291TIP3   OH252287   3.701   3.733  16.110 -0.8855 -0.0243 -0.2774
10291TIP3    H152288   3.690   3.685  16.027 -1.4158  0.1509 -0.3135
10291TIP3    H252289   3.618   3.778  16.123 -0.5705  0.4904  0.0129
10292TIP3   OH252290   2.800   2.018   2.431  0.2961 -0.4323 -0.1451
10292TIP3    H152291   2.850   2.089   2.470 -0.5468 -0.9650  2.0294
10292TIP3    H252292   2.709   2.036   2.455  0.0892 -2.3456  0.6655
10293TIP3   OH252293   0.998   1.503  16.499 -0.3031  0.2066  0.2855
10293TIP3    H152294   1.037   1.518  16.585  0.1034  0.9708 -0.0185
10293TIP3    H252295   1.033   1.419  16.470 -1.5933 -0.7849  1.4874
10294TIP3   OH252296   3.896   1.569   1.800 -0.6769  0.4217 -0.1405
10294TIP3    H152297   3.930   1.590   1.713 -1.6080  1.3256 -0.2958
10294TIP3    H252298   3.935   1.483   1.820 -0.0617  0.4257 -1.2275
10295TIP3   OH252299   1.995   2.563  13.767  0.1380  0.1880 -0.4864
10295TIP3    H152300   1.932   2.510  13.717 -0.2926 -0.4432  0.6679
10295TIP3    H252301   1.943   2.635  13.802  0.0046 -0.3895  0.5548
10296TIP3   OH252302   2.300   6.676  15.474 -0.3771 -0.4622  0.3951
10296TIP3    H152303   2.374   6.660  15.414 -1.0388 -0.1081 -0.5396
10296TIP3    H252304   2.230   6.620  15.441 -0.6749 -0.4362  0.9865
10297TIP3   OH252305   2.090   3.994  11.903 -0.1905  0.2726  0.2777
10297TIP3    H152306   2.081   3.954  11.817 -0.6587  2.4652 -0.7471
10297TIP3    H252307   2.136   4.076  11.887 -2.7582  2.0941  1.6778
10298TIP3   OH252308   0.490   1.087  13.391 -0.0421  0.3299 -0.3500
10298TIP3    H152309   0.523   1.077  13.480 -0.5782  0.5033 -0.1245
10298TIP3    H252310   0.433   1.011  13.377 -1.1252  1.0428 -0.0008
10299TIP3   OH252311   5.242   2.241   1.647 -0.1247  0.2140 -0.2859
10299TIP3    H152312   5.244   2.336   1.659  0.3320  0.1696  0.0253
10299TIP3    H252313   5.150   2.220   1.633 -0.0916  0.8782 -1.7864
10300TIP3   OH252314   2.493   0.960   4.217  0.0988  0.5441  0.7588
10300TIP3    H152315   2.513   0.997   4.131  0.8322  0.3059  0.8190
10300TIP3    H252316   2.508   1.032   4.278  0.7943  0.3716  0.8021
10301TIP3   OH252317   3.811   1.322  12.366 -0.6689  0.4557  0.4281
10301TIP3    H152318   3.862   1.338  12.445 -0.3871 -0.0865  0.3573
10301TIP3    H252319   3.835   1.394  12.307  1.5828 -0.8689 -0.3814
10302TIP3   OH252320   0.510   5.314   0.869 -0.0326 -0.3779 -0.9264
10302TIP3    H152321   0.421   5.280   0.853 -0.4746  0.5026 -0.3722
10302TIP3    H252322   0.497   5.404   0.896  0.8823 -0.8516  1.3014
10303TIP3   OH252323   6.547   4.635  13.460 -0.2302  0.1258  0.7733
10303TIP3    H152324   6.569   4.543  13.446  0.6259  0.3502  0.6398
10303TIP3    H252325   6.631   4.679  13.472 -0.6764  0.7673  1.6073
10304TIP3   OH252326   4.420   0.977   6.254 -0.1008  0.1072 -0.2316
10304TIP3    H152327   4.427   0.882   6.262  0.8692  0.1603 -0.3263
10304TIP3    H252328   4.332   0.998   6.286 -0.3477 -0.8253 -0.2820
10305TIP3   OH252329   4.886   0.780   2.398  0.3088 -0.3049 -0.5632
10305TIP3    H152330   4.852   0.843   2.334  0.6658  0.0607 -0.3989
10305TIP3    H252331   4.808   0.737   2.433 -0.4073  2.8944  2.3096
10306TIP3   OH252332   3.224   2.897   4.270 -0.5797  0.6171 -0.2953
10306TIP3    H152333   3.166   2.861   4.204 -0.3509 -0.4390  0.0549
10306TIP3    H252334   3.177   2.972   4.306 -1.0733  0.6690 -1.0363
10307TIP3   OH252335   6.285   5.857  13.961  0.3781 -0.3285 -0.6852
10307TIP3    H152336   6.292   5.876  13.868  3.3615  1.1030 -0.2949
10307TIP3    H252337   6.244   5.935  13.999  1.0883  0.0102 -0.5894
10308TIP3   OH252338   2.735   6.479   6.008  0.4844  0.3513  0.2546
10308TIP3    H152339   2.729   6.573   6.029 -0.4260 -0.0678  2.1522
10308TIP3    H252340   2.775   6.440   6.086 -0.4828 -1.0093  0.1036
10309TIP3   OH252341   1.763   0.187  12.756  0.3057 -0.5892  0.1109
10309TIP3    H152342   1.783   0.246  12.829  0.5766 -1.3357  0.6466
10309TIP3    H252343   1.683   0.223  12.718 -0.1674 -0.5285  1.1397
10310TIP3   OH252344   2.498   4.573   1.349  0.3529 -0.0030 -0.4113
10310TIP3    H152345   2.451   4.625   1.284  3.3588  0.2355 -2.5855
10310TIP3    H252346   2.429   4.522   1.393 -1.8718 -0.0690 -3.6560
10311TIP3   OH252347   0.208   1.315   4.050 -0.1492 -0.0130 -0.6972
10311TIP3    H152348   0.186   1.232   4.092 -0.0086  0.0313 -0.5338
10311TIP3    H252349   0.129   1.368   4.057  0.5910  0.9069  1.7210
10312TIP3   OH252350   4.986   3.109   0.386 -0.7355 -0.0055  0.3035
10312TIP3    H152351   4.979   3.156   0.303 -0.6513  1.4557  1.0871
10312TIP3    H252352   5.039   3.033   0.366 -1.6329 -0.2742 -1.2199
10313TIP3   OH252353   6.075   4.854  15.028  0.2714  0.3604  0.3117
10313TIP3    H152354   6.093   4.830  14.937  1.7029 -0.6817  0.8356
10313TIP3    H252355   6.155   4.899  15.057  0.3147 -0.4014  1.4066
10314TIP3   OH252356   4.501   4.672  11.611  0.2835  0.2957  0.3206
10314TIP3    H152357   4.494   4.767  11.607  1.0699  0.3345 -0.4621
10314TIP3    H252358   4.587   4.656  11.650  0.7589 -0.0692 -0.8130
10315TIP3   OH252359   6.606   5.476   4.910 -0.0625  0.1354 -0.3353
10315TIP3    H152360   6.636   5.405   4.853 -0.6166 -0.9634  0.6683
10315TIP3    H252361   6.523   5.504   4.872 -2.4310 -3.1695  1.7751
10316TIP3   OH252362   5.670   2.619  12.488  0.5900 -0.1873  0.6074
10316TIP3    H152363   5.733   2.685  12.517 -1.1055  0.4594  3.1924
10316TIP3    H252364   5.669   2.555  12.559  0.2929 -1.6344 -0.6530
10317TIP3   OH252365   6.509   2.977  14.864 -0.4412 -0.1482  0.0641
10317TIP3    H152366   6.415   2.991  14.859 -0.0689  2.6838 -0.4525
10317TIP3    H252367   6.532   2.995  14.955 -0.2473  0.3067 -0.0742
10318TIP3   OH252368   0.559   3.061  12.665  0.4998 -0.3289  0.0772
10318TIP3    H152369   0.625   3.037  12.600  0.4607 -3.3144  0.9633
10318TIP3    H252370   0.485   3.003  12.645 -0.1445 -0.1323  1.7486
10319TIP3   OH252371   5.825   2.529  14.541 -0.1060  0.2815  0.0628
10319TIP3    H152372   5.904   2.550  14.491  0.1799 -1.1161 -0.1093
10319TIP3    H252373   5.760   2.508  14.474  0.0844 -0.9424  0.2505
10320TIP3   OH252374   2.954   3.655  13.430 -0.3081  0.4315 -0.1309
10320TIP3    H152375   2.867   3.689  13.413  0.0004  1.0754 -0.4576
10320TIP3    H252376   3.005   3.732  13.456  0.2740  0.1387 -0.3929
10321TIP3   OH252377   1.338   4.358  12.988  0.0189 -0.0629 -0.2062
10321TIP3    H152378   1.332   4.316  12.902  0.1494 -1.7876  0.5936
10321TIP3    H252379   1.252   4.398  13.001 -0.9388 -2.0559 -0.0457
10322TIP3   OH252380   0.131   2.670   6.082 -0.3571 -0.4837 -0.2961
10322TIP3    H152381   0.217   2.633   6.103  0.2144 -0.3088 -2.1417
10322TIP3    H252382   0.127   2.751   6.132 -0.4166 -1.5628  1.5460
10323TIP3   OH252383   4.293   4.203   3.348  0.2487 -0.3583  0.1012
10323TIP3    H152384   4.384   4.175   3.352  0.5728  0.7592  2.2814
10323TIP3    H252385   4.245   4.138   3.399 -0.0098 -0.3529 -0.1306
10324TIP3   OH252386   4.669   1.940  13.033 -0.2271  0.2533  0.4109
10324TIP3    H152387   4.684   1.864  12.977 -1.8991  0.4882 -0.4177
10324TIP3    H252388   4.708   1.917  13.117  0.8906 -0.7654 -0.3665
10325TIP3   OH252389   0.540   0.654  16.348 -0.3346 -0.0690  0.6180
10325TIP3    H152390   0.525   0.719  16.417 -0.8771  1.0479 -0.5124
10325TIP3    H252391   0.522   0.701  16.267  0.5327 -1.2836 -0.3114
10326TIP3   OH252392   3.170   5.608  10.811 -0.2718  0.5374  0.6047
10326TIP3    H152393   3.236   5.613  10.881  0.2627  0.5152  0.1099
10326TIP3    H252394   3.148   5.700  10.793 -0.8297  0.5272  1.1817
10327TIP3   OH252395   1.810   2.011  11.315 -0.0429 -0.0163 -0.0787
10327TIP3    H152396   1.746   2.082  11.314 -0.0035  0.0765 -2.9865
10327TIP3    H252397   1.893   2.054  11.333 -0.3225  0.3540  0.3318
10328TIP3   OH252398   1.844   4.762  11.960 -0.3179  0.4553  0.4124
10328TIP3    H152399   1.895   4.829  12.005 -0.9806  1.5449 -0.3966
10328TIP3    H252400   1.898   4.683  11.965  0.8014  1.2154  0.7868
10329TIP3   OH252401   4.814   6.069  12.259 -0.1301  0.1038 -0.0872
10329TIP3    H152402   4.723   6.042  12.268  0.2400 -1.4729 -0.6882
10329TIP3    H252403   4.811   6.148  12.205 -1.1935  0.6539  0.7431
10330TIP3   OH252404   3.117   0.630  16.006 -0.3997 -0.1959  0.0477
10330TIP3    H152405   3.178   0.563  16.035 -0.4335  0.4220  1.6200
10330TIP3    H252406   3.132   0.704  16.064  0.3910  1.6231 -2.2951
10331TIP3   OH252407   3.396   1.101   0.962 -0.0357  0.3784  0.1397
10331TIP3    H152408   3.446   1.181   0.981 -0.8377  0.6817  1.0480
10331TIP3    H252409   3.355   1.117   0.878 -1.0065  1.3447  0.7807
10332TIP3   OH252410   0.590   0.981   3.715 -0.0380 -0.4178 -0.2838
10332TIP3    H152411   0.669   1.033   3.730 -0.7264  1.1347 -1.7100
10332TIP3    H252412   0.530   1.040   3.670 -1.3173 -2.1076 -0.9317
10333TIP3   OH252413   5.337   3.231  15.264 -0.3014 -0.0853  0.1244
10333TIP3    H152414   5.321   3.309  15.318  0.5606  0.2442 -0.0797
10333TIP3    H252415   5.251   3.190  15.255 -0.4040 -0.4181  2.1642
10334TIP3   OH252416   2.990   5.304   0.567 -0.1175  0.0793 -0.1089
10334TIP3    H152417   3.085   5.307   0.568  0.0444 -2.3681 -1.3721
10334TIP3    H252418   2.966   5.259   0.648 -0.2755  1.3121  0.5503
10335TIP3   OH252419   3.600   5.155   1.891  0.0175 -0.4900 -0.9840
10335TIP3    H152420   3.687   5.189   1.912 -0.3563  0.6518 -1.2501
10335TIP3    H252421   3.599   5.067   1.930  1.2819 -0.5201 -0.9745
10336TIP3   OH252422   2.529   5.535  13.206  0.8101  0.0373 -0.1570
10336TIP3    H152423   2.483   5.586  13.272  0.6622  2.4881 -2.0101
10336TIP3    H252424   2.480   5.453  13.201 -0.2890  0.5493  1.4219
10337TIP3   OH252425   0.390   1.054  11.695  0.2118  0.0322  0.1314
10337TIP3    H152426   0.340   0.996  11.753 -1.8177 -0.3719 -1.9138
10337TIP3    H252427   0.440   0.994  11.639 -0.4513  0.2885 -0.7509
10338TIP3   OH252428   4.249   2.128   3.171 -0.7277 -0.5058 -0.5014
10338TIP3    H152429   4.337   2.107   3.141 -0.0370 -0.0267  1.0483
10338TIP3    H252430   4.244   2.224   3.163 -0.3352 -0.3045  1.2675
10339TIP3   OH252431   0.794   2.343   0.422  0.4959 -0.1717  0.0472
10339TIP3    H152432   0.829   2.262   0.458 -0.2212 -0.2762  0.5309
10339TIP3    H252433   0.699   2.330   0.422  0.3665  0.7104  0.2430
10340TIP3   OH252434   4.299   1.449  13.695  0.3740 -0.0185  0.3641
10340TIP3    H152435   4.310   1.544  13.695 -0.5335  0.0958  0.8648
10340TIP3    H252436   4.322   1.422  13.606  0.2229  0.7175  0.0994
10341TIP3   OH252437   4.430   2.522   3.540 -0.2085  0.2455  0.0203
10341TIP3    H152438   4.473   2.437   3.536 -0.4755  0.1386 -1.7746
10341TIP3    H252439   4.461   2.568   3.461 -1.4088  1.1210  0.0236
10342TIP3   OH252440   0.519   2.136   0.808  0.9060  0.2576  0.0634
10342TIP3    H152441   0.591   2.101   0.861  0.0184 -0.3917  0.9037
10342TIP3    H252442   0.479   2.202   0.865  0.9544  0.7504 -0.4740
10343TIP3   OH252443   1.772   2.945   2.718  0.2732  0.0274 -0.0273
10343TIP3    H152444   1.821   2.883   2.772  2.4761  0.5099 -1.3415
10343TIP3    H252445   1.794   3.031   2.754 -1.2310  0.1792  0.5885
10344TIP3   OH252446   0.513   3.469  13.719  0.3803  0.2456  0.3295
10344TIP3    H152447   0.470   3.467  13.633 -1.0001  0.7414  0.9745
10344TIP3    H252448   0.518   3.562  13.740  1.3519  0.1623  0.4892
10345TIP3   OH252449   4.200   2.397   4.995  0.1437  0.4129  0.4577
10345TIP3    H152450   4.140   2.365   4.929 -1.7257 -0.0760  2.2864
10345TIP3    H252451   4.169   2.358   5.077  2.3507  0.9673  1.6522
10346TIP3   OH252452   2.538   5.809  15.864 -0.9215  0.4216  0.0735
10346TIP3    H152453   2.509   5.871  15.930 -0.0471  0.8305  0.0916
10346TIP3    H252454   2.474   5.816  15.794 -1.1919  0.8661  0.3616
10347TIP3   OH252455   4.366   3.799   2.720  0.1762  0.5701 -0.3398
10347TIP3    H152456   4.413   3.726   2.760 -2.0825 -0.4154  0.6654
10347TIP3    H252457   4.435   3.855   2.684  2.1442 -0.3658  1.7427
10348TIP3   OH252458   2.019   1.648  13.323  0.1432  0.3077  0.2668
10348TIP3    H152459   2.061   1.670  13.407 -0.6899  3.5306 -0.0224
10348TIP3    H252460   2.091   1.641  13.261  0.5640  1.5823  0.5836
10349TIP3   OH252461   5.206   3.680   2.369 -0.3709 -0.1856  0.3546
10349TIP3    H152462   5.170   3.688   2.457  1.7168 -1.5397  1.4022
10349TIP3    H252463   5.280   3.741   2.368 -0.8677  0.4353 -0.7774
10350TIP3   OH252464   1.564   4.836   4.516  0.2444 -0.1629  0.0249
10350TIP3    H152465   1.472   4.836   4.542 -0.3255  0.0800 -1.8422
10350TIP3    H252466   1.611   4.813   4.596 -1.4463 -0.6172  0.9485
10351TIP3   OH252467   4.950   3.520   1.331  0.2082 -0.2378  0.4489
10351TIP3    H152468   4.877   3.516   1.393 -0.2132 -0.6922 -0.0713
10351TIP3    H252469   4.909   3.530   1.246  0.8135  2.4968  0.3896
10352TIP3   OH252470   3.738   3.264  16.397  0.2704  0.5370 -0.6216
10352TIP3    H152471   3.807   3.330  16.405 -0.6964  1.3755  1.5327
10352TIP3    H252472   3.657   3.315  16.384 -0.5297 -0.1485  1.3148
10353TIP3   OH252473   0.693   2.768  13.099  0.3467  0.3773 -0.4181
10353TIP3    H152474   0.624   2.755  13.164  1.4157  0.9890  0.9041
10353TIP3    H252475   0.652   2.747  13.015 -1.2544  0.1410  0.3868
10354TIP3   OH252476   0.633   3.107   0.231  0.0515  0.6151  0.0133
10354TIP3    H152477   0.707   3.096   0.291 -0.0338 -0.2233 -0.0212
10354TIP3    H252478   0.571   3.163   0.279  0.7615  1.4491 -0.0195
10355TIP3   OH252479   0.592   6.393  16.187 -0.4348 -0.0514  0.0163
10355TIP3    H152480   0.496   6.393  16.187 -0.4629  1.3565 -0.7441
10355TIP3    H252481   0.615   6.454  16.257 -0.0222 -1.9513  1.6168
10356TIP3   OH252482   2.618   5.016   1.064 -0.0300  0.2891 -0.4402
10356TIP3    H152483   2.629   5.066   1.145 -1.5645  0.8135 -0.5228
10356TIP3    H252484   2.658   4.931   1.083  0.8090  0.8399  0.3981
10357TIP3   OH252485   4.970   3.885  11.924  1.0766 -0.2679  0.3470
10357TIP3    H152486   4.905   3.950  11.949 -1.5968 -1.9020 -1.8431
10357TIP3    H252487   4.965   3.818  11.992 -0.8911 -1.2026 -0.6380
10358TIP3   OH252488   2.668   2.703   0.366  0.3119 -0.4327 -0.2377
10358TIP3    H152489   2.613   2.705   0.288 -0.7386  0.1096  0.4967
10358TIP3    H252490   2.756   2.686   0.333 -0.1461 -0.3870 -1.5187
10359TIP3   OH252491   0.147   2.075   2.664 -0.1192 -0.3198  0.4807
10359TIP3    H152492   0.179   2.107   2.749 -0.6331  0.8664  0.2449
10359TIP3    H252493   0.059   2.111   2.657  0.1714  0.1664 -0.8657
10360TIP3   OH252494   2.526   5.273   5.943 -0.0410  0.2998 -0.2649
10360TIP3    H152495   2.509   5.236   6.029 -0.8755  0.7750 -0.2097
10360TIP3    H252496   2.526   5.368   5.957 -2.3996  0.4970 -1.1167
10361TIP3   OH252497   0.659   5.428   3.379  0.6995 -0.1819 -0.0346
10361TIP3    H152498   0.664   5.458   3.288 -0.8418 -0.1143 -0.1114
10361TIP3    H252499   0.742   5.457   3.417  1.3229 -0.1000 -1.3749
10362TIP3   OH252500   0.302   3.971  16.055 -0.2716  0.6319  0.2412
10362TIP3    H152501   0.245   4.041  16.085  0.3488  1.8950 -1.3335
10362TIP3    H252502   0.365   4.015  15.997  0.3523 -1.1766 -0.5300
10363TIP3   OH252503   1.555   0.481  15.591  0.1449 -0.6436  0.5867
10363TIP3    H152504   1.621   0.519  15.649 -0.4488 -0.8845  1.4413
10363TIP3    H252505   1.472   0.509  15.628 -0.2436 -0.3513 -0.4777
10364TIP3   OH252506   4.948   1.665   1.212  0.6642  0.2802  0.0770
10364TIP3    H152507   4.942   1.736   1.276  1.3719 -0.1815  0.6809
10364TIP3    H252508   4.925   1.586   1.262  2.5816 -0.2843  0.1698
10365TIP3   OH252509   6.148   3.696   1.786  0.2677 -0.0300  0.0191
10365TIP3    H152510   6.233   3.702   1.743  0.2787  1.1734  0.1823
10365TIP3    H252511   6.084   3.715   1.717  0.1733 -0.1763  0.0660
10366TIP3   OH252512   2.993   1.413  14.592  0.1983 -0.3679  0.1400
10366TIP3    H152513   2.919   1.364  14.556 -0.6046  0.5305  0.5224
10366TIP3    H252514   2.959   1.501  14.607  1.8660  0.5741 -1.3390
10367TIP3   OH252515   6.564   2.031   3.826 -0.5818  0.3215 -0.1441
10367TIP3    H152516   6.544   2.060   3.737  0.9424  1.0340 -0.2876
10367TIP3    H252517   6.593   2.110   3.871  0.7984 -0.4056  0.3251
10368TIP3   OH252518   3.642   1.781  16.484 -0.0276  0.0654 -0.0991
10368TIP3    H152519   3.701   1.781  16.559 -0.0933 -0.0810 -0.0476
10368TIP3    H252520   3.569   1.725  16.511 -0.7605  1.1684  0.2925
10369TIP3   OH252521   5.302   0.027   3.743  0.2223 -0.6979 -0.2199
10369TIP3    H152522   5.209   0.041   3.763  0.2835 -0.2568 -0.2487
10369TIP3    H252523   5.328   0.103   3.691  0.1979 -1.6017 -1.6065
10370TIP3   OH252524   6.451   0.100   5.817 -0.1182  0.3489 -0.2651
10370TIP3    H152525   6.458   0.058   5.731  2.2287  1.4794 -0.7016
10370TIP3    H252526   6.376   0.158   5.810 -0.4426 -0.1813 -1.2729
10371TIP3   OH252527   1.834   4.137   2.002  0.0400 -0.2095  0.2678
10371TIP3    H152528   1.850   4.062   2.060  0.9255  0.7372  1.2819
10371TIP3    H252529   1.751   4.174   2.033  0.0112 -0.2964  0.2952
10372TIP3   OH252530   0.364   2.108   4.032 -0.0135 -0.0961 -0.3609
10372TIP3    H152531   0.439   2.160   4.062  0.1921 -0.3570 -0.4223
10372TIP3    H252532   0.401   2.022   4.012 -0.3966 -0.3437 -0.0144
10373TIP3   OH252533   0.849   1.389  16.821  0.2535  0.3013 -0.3438
10373TIP3    H152534   0.928   1.430  16.787  0.8961 -1.2452 -0.8008
10373TIP3    H252535   0.833   1.433  16.905  0.7861  1.5704 -0.8827
10374TIP3   OH252536   4.633   4.278   6.319  0.0620  0.4414 -0.1029
10374TIP3    H152537   4.704   4.292   6.256 -1.3218 -0.7305 -2.0311
10374TIP3    H252538   4.636   4.354   6.377  0.8063  2.0757 -2.1910
10375TIP3   OH252539   5.892   1.403   4.067  0.1038 -0.2807  0.1908
10375TIP3    H152540   5.833   1.355   4.125 -0.6589 -1.2910 -1.3870
10375TIP3    H252541   5.934   1.467   4.125 -3.0167  0.9923  1.2868
10376TIP3   OH252542   4.175   1.003  15.979  0.6419  0.2607  0.0085
10376TIP3    H152543   4.155   0.961  15.895  1.2555 -0.8757  0.4053
10376TIP3    H252544   4.269   1.018  15.976  0.2956  2.7483 -0.5984
10377TIP3   OH252545   6.185   0.650  14.897  0.0095 -0.0123  0.0429
10377TIP3    H152546   6.106   0.660  14.845  0.6659  1.4887 -0.7321
10377TIP3    H252547   6.156   0.605  14.977 -1.3569 -0.6477 -0.7740
10378TIP3   OH252548   2.158   5.226  16.097 -0.5863 -0.2537 -0.3726
10378TIP3    H152549   2.077   5.229  16.046 -0.5986  0.7329 -0.3203
10378TIP3    H252550   2.136   5.174  16.174 -0.7054 -1.3495 -1.1226
10379TIP3   OH252551   0.098   6.272   4.606 -0.0104  0.2069  0.3836
10379TIP3    H152552   0.124   6.364   4.605  0.3858  0.0975 -1.0407
10379TIP3    H252553   0.008   6.272   4.640  0.1192  1.0632  0.7451
10380TIP3   OH252554   5.690   3.358  10.862  0.6675  0.3227  0.0985
10380TIP3    H152555   5.704   3.444  10.822  3.8274  0.5043  1.2649
10380TIP3    H252556   5.716   3.371  10.954  2.5106 -2.1250  0.0016
10381TIP3   OH252557   1.278   2.887   0.640 -0.2682 -0.1712 -0.0296
10381TIP3    H152558   1.365   2.861   0.671  0.4166  0.1834 -1.5533
10381TIP3    H252559   1.221   2.873   0.715  1.0376 -0.7645  0.8985
10382TIP3   OH252560   0.295   0.427   0.664  0.8838  0.1118  0.0132
10382TIP3    H152561   0.314   0.337   0.639  0.6856  0.8686 -3.2537
10382TIP3    H252562   0.265   0.421   0.755  1.4120 -3.0069  0.0708
10383TIP3   OH252563   3.387   4.221   0.505  0.1228  0.4669 -0.1231
10383TIP3    H152564   3.375   4.185   0.417 -2.9918  2.1279 -0.5103
10383TIP3    H252565   3.363   4.313   0.498 -0.1372  0.6836  2.4554
10384TIP3   OH252566   2.081   4.860  16.071 -0.3409  0.2483  0.2209
10384TIP3    H152567   2.148   4.919  16.036  0.0324 -0.0792  0.3684
10384TIP3    H252568   2.083   4.875  16.166  0.1141 -0.3569  0.3151
10385TIP3   OH252569   2.122   0.888   2.717 -0.4219 -0.9029 -0.2842
10385TIP3    H152570   2.153   0.931   2.796  0.5521  1.0887 -1.6673
10385TIP3    H252571   2.077   0.956   2.668 -0.6118 -1.9605 -1.6509
10386TIP3   OH252572   3.329   2.726   1.179  0.5802 -0.3895  0.1122
10386TIP3    H152573   3.277   2.649   1.154  1.4334 -2.0126  2.8191
10386TIP3    H252574   3.267   2.783   1.224  0.5474 -1.0050  0.8696
10387TIP3   OH252575   0.666   3.481  11.676 -0.2908 -0.5052 -0.0244
10387TIP3    H152576   0.687   3.519  11.762 -1.7821 -3.4987  1.8362
10387TIP3    H252577   0.605   3.544  11.637  1.3419  1.5126  0.5122
10388TIP3   OH252578   6.097   6.083  14.835  0.1585 -0.5645 -0.8722
10388TIP3    H152579   6.043   6.067  14.758 -0.7832 -1.1032 -0.1202
10388TIP3    H252580   6.175   6.128  14.801 -0.2947 -0.6792 -2.1073
10389TIP3   OH252581   6.349   4.261   4.908 -0.6361 -0.2019  0.5260
10389TIP3    H152582   6.355   4.193   4.841  0.5051 -0.2465  0.6526
10389TIP3    H252583   6.288   4.226   4.973  0.8894 -1.7181  1.2395
10390TIP3   OH252584   2.052   2.590  15.412 -0.3942 -0.6255 -0.1883
10390TIP3    H152585   2.136   2.613  15.452 -1.3051  1.1237  0.8521
10390TIP3    H252586   2.038   2.656  15.344 -0.7572 -1.1351 -0.6203
10391TIP3   OH252587   4.128   5.781  11.740  0.4885 -0.7240 -0.0815
10391TIP3    H152588   4.163   5.857  11.693 -2.5301  0.2585 -0.9364
10391TIP3    H252589   4.097   5.817  11.823  1.2150 -1.5126  0.5440
10392TIP3   OH252590   0.630   5.518  12.419 -0.0699  0.1122 -0.0172
10392TIP3    H152591   0.680   5.512  12.500 -1.0560  0.0157  0.5999
10392TIP3    H252592   0.672   5.589  12.370  0.7318 -0.0391  0.4299
10393TIP3   OH252593   4.378   1.743   3.141 -0.1756  0.1335  0.6596
10393TIP3    H152594   4.410   1.803   3.073 -0.4834  1.1200  1.3727
10393TIP3    H252595   4.446   1.675   3.146 -0.4621 -0.3233 -1.0776
10394TIP3   OH252596   0.164   0.418  14.648  0.4761 -0.3715  0.1547
10394TIP3    H152597   0.256   0.413  14.619  0.6325  2.4948 -0.1609
10394TIP3    H252598   0.159   0.502  14.694 -1.5251 -1.4662  2.0879
10395TIP3   OH252599   1.716   3.543  14.942 -0.0452  0.3931 -0.6924
10395TIP3    H152600   1.642   3.497  14.981  0.2488 -0.3804 -1.0329
10395TIP3    H252601   1.725   3.504  14.855  1.3663 -0.2023 -0.3124
10396TIP3   OH252602   0.249   1.339  13.959  0.0744  0.2475 -0.0037
10396TIP3    H152603   0.333   1.384  13.945 -0.8473  2.1212  0.2257
10396TIP3    H252604   0.222   1.311  13.871  0.5150  0.3962 -0.1886
10397TIP3   OH252605   3.762   3.164  13.019 -0.5679 -0.0047 -0.3071
10397TIP3    H152606   3.693   3.106  13.051 -0.5878  0.7862  1.1418
10397TIP3    H252607   3.752   3.162  12.924 -1.8878 -0.7602 -0.1803
10398TIP3   OH252608   4.632   4.725  12.651 -0.0784 -0.3509  1.0914
10398TIP3    H152609   4.582   4.736  12.570  0.0310  0.9601  1.1786
10398TIP3    H252610   4.566   4.714  12.719 -0.2874  1.1976  1.1806
10399TIP3   OH252611   2.712   2.715   1.972 -0.4672 -0.2503  0.6950
10399TIP3    H152612   2.631   2.748   2.012 -0.8038 -0.4515  0.1886
10399TIP3    H252613   2.777   2.721   2.042  0.0006  3.2874  0.1460
10400TIP3   OH252614   1.258   5.905  10.678  0.1032  0.3540  0.8266
10400TIP3    H152615   1.333   5.889  10.735  0.6692  1.5148  0.4393
10400TIP3    H252616   1.282   5.865  10.595 -0.1997 -0.2645  1.0309
10401TIP3   OH252617   1.637   0.644  11.996  0.2256 -0.0950 -0.1467
10401TIP3    H152618   1.558   0.645  11.942 -1.0069 -2.5785  1.4363
10401TIP3    H252619   1.701   0.596  11.944  0.2962  0.7691 -0.8822
10402TIP3   OH252620   1.263   5.885  15.687  0.0677  0.4319  0.5653
10402TIP3    H152621   1.225   5.963  15.647 -2.7197 -1.4718 -0.8736
10402TIP3    H252622   1.192   5.849  15.741  0.0691 -2.6217 -1.1925
10403TIP3   OH252623   0.577   0.680   2.249  0.3062 -0.0941 -0.3419
10403TIP3    H152624   0.652   0.711   2.300  0.2760 -2.4842  1.3241
10403TIP3    H252625   0.615   0.655   2.164  1.0075  0.6426 -0.2604
10404TIP3   OH252626   0.438   3.350  11.493  0.2766 -0.0452 -0.5850
10404TIP3    H152627   0.350   3.384  11.479  0.2978  0.5348  0.5742
10404TIP3    H252628   0.495   3.427  11.482  0.7524 -0.5851 -2.2418
10405TIP3   OH252629   5.001   0.744  15.076  0.4364  0.0432 -0.4736
10405TIP3    H152630   4.942   0.776  15.007 -0.6116  2.1005  1.2475
10405TIP3    H252631   5.089   0.761  15.042 -0.0429  0.5558 -1.5026
10406TIP3   OH252632   1.313   4.834  13.907  0.3020 -0.6331 -0.1698
10406TIP3    H152633   1.257   4.760  13.882 -1.2212 -0.6082  2.6516
10406TIP3    H252634   1.275   4.910  13.863 -0.0136 -1.0695 -0.6591
10407TIP3   OH252635   2.437   1.120  14.522 -0.3138  0.6399  0.4537
10407TIP3    H152636   2.399   1.153  14.440 -0.7879 -2.6376 -0.7921
10407TIP3    H252637   2.367   1.133  14.587 -1.6396 -0.5762 -0.6595
10408TIP3   OH252638   2.957   6.624  17.224  0.0107  0.1460  0.0576
10408TIP3    H152639   2.960   6.709  17.268  0.6325  0.0249  0.2678
10408TIP3    H252640   2.965   6.645  17.131  1.4325  0.2720  0.1741
10409TIP3   OH252641   5.143   0.452  10.503 -0.7367  0.0197  0.3892
10409TIP3    H152642   5.106   0.371  10.539 -1.8562  1.2728  2.2490
10409TIP3    H252643   5.237   0.443  10.516 -0.6612 -1.6253 -0.9283
10410TIP3   OH252644   4.027   0.379  16.583 -0.3258 -0.2404 -0.0921
10410TIP3    H152645   3.938   0.365  16.551  0.4929 -1.1557 -2.0880
10410TIP3    H252646   4.068   0.435  16.517  0.3275  1.0044  1.3072
10411TIP3   OH252647   4.857   6.459   4.658 -0.0846 -0.1313 -0.3279
10411TIP3    H152648   4.840   6.384   4.714  0.3869 -0.1894 -0.2598
10411TIP3    H252649   4.815   6.533   4.702 -0.9153 -0.4316 -0.6121
10412TIP3   OH252650   0.911   4.787  13.207  0.2095 -0.0146  0.0635
10412TIP3    H152651   0.901   4.701  13.247  1.5483 -0.4748 -0.5100
10412TIP3    H252652   0.860   4.846  13.262 -1.1352 -1.2394  0.1832
10413TIP3   OH252653   0.995   6.574   5.121  0.6587  0.6091 -0.1536
10413TIP3    H152654   1.072   6.631   5.122  0.8450  0.3980 -1.2840
10413TIP3    H252655   1.030   6.486   5.138  0.6338  0.5518 -0.3938
10414TIP3   OH252656   3.335   0.961   3.889  0.1093 -0.0286 -0.1386
10414TIP3    H152657   3.350   1.056   3.885 -0.3776  0.1889  2.1962
10414TIP3    H252658   3.242   0.952   3.907  0.1530 -0.9686 -0.3246
10415TIP3   OH252659   5.271   2.554   4.468 -0.7904  0.6311  0.1600
10415TIP3    H152660   5.286   2.642   4.432  0.1862 -0.3640 -2.0724
10415TIP3    H252661   5.316   2.555   4.553  0.3403  1.9100 -0.4079
10416TIP3   OH252662   3.642   5.096  12.655 -0.4655 -0.8497  0.2170
10416TIP3    H152663   3.571   5.116  12.594  0.8727  2.9230 -0.3768
10416TIP3    H252664   3.637   5.164  12.722  1.9808 -1.0294  0.6878
10417TIP3   OH252665   2.599   0.802  16.395  0.5361 -0.2027 -0.1309
10417TIP3    H152666   2.544   0.726  16.416  1.6062 -1.4051 -1.5068
10417TIP3    H252667   2.634   0.830  16.480  2.1220 -2.8493  0.1856
10418TIP3   OH252668   6.530   1.707   3.537  0.2357 -0.3504 -0.3831
10418TIP3    H152669   6.595   1.753   3.484 -1.0598  0.9950 -0.8464
10418TIP3    H252670   6.563   1.617   3.541  2.3141  0.3615 -0.2838
10419TIP3   OH252671   3.624   4.439  15.971  0.0803 -0.3814 -0.1261
10419TIP3    H152672   3.570   4.362  15.953 -0.3150 -0.2582  0.5051
10419TIP3    H252673   3.597   4.467  16.058 -0.1575  0.8064 -0.5755
10420TIP3   OH252674   2.166   6.621  13.509 -0.1006 -0.4001  0.2445
10420TIP3    H152675   2.082   6.642  13.469  0.6749  0.0295 -1.1993
10420TIP3    H252676   2.227   6.613  13.436  1.0719 -0.9790  1.2446
10421TIP3   OH252677   6.592   3.065  12.981 -0.3658  0.6358 -0.6083
10421TIP3    H152678   6.681   3.075  13.014 -0.7467  0.8970  0.3614
10421TIP3    H252679   6.571   3.151  12.944 -0.5937  0.9011  0.1252
10422TIP3   OH252680   5.734   4.944  12.089 -0.4447  0.4730  0.3354
10422TIP3    H152681   5.715   4.955  11.996 -2.1963  0.7080  0.6925
10422TIP3    H252682   5.689   4.864  12.114  1.0335 -0.2743  0.7473
10423TIP3   OH252683   5.261   5.679   2.106 -0.1874  0.2523  0.3376
10423TIP3    H152684   5.168   5.696   2.090 -0.6000  1.0320  3.0924
10423TIP3    H252685   5.303   5.764   2.095 -0.2079  0.4143  1.3882
10424TIP3   OH252686   3.827   3.465  13.606 -0.0488  0.2690  0.2350
10424TIP3    H152687   3.781   3.548  13.623 -0.3881 -0.0617  0.9370
10424TIP3    H252688   3.877   3.482  13.526 -1.4527  0.6263 -0.6069
10425TIP3   OH252689   0.496   5.288  16.912  0.0757 -0.3599  0.4845
10425TIP3    H152690   0.581   5.306  16.952  1.1568 -1.4241 -1.2089
10425TIP3    H252691   0.514   5.277  16.819 -2.1765  0.8722 -0.1732
10426TIP3   OH252692   6.549   0.143  10.350  0.0432 -0.0870 -0.4923
10426TIP3    H152693   6.627   0.132  10.296  0.1140 -1.9469 -0.0766
10426TIP3    H252694   6.509   0.224  10.318  1.1062 -0.1193 -2.0118
10427TIP3   OH252695   4.068   4.785  13.753  0.5493  0.6323 -0.3148
10427TIP3    H152696   4.150   4.739  13.770  0.9566  1.6235  0.5360
10427TIP3    H252697   4.090   4.878  13.760 -0.3990  0.9536 -1.2835
10428TIP3   OH252698   5.470   3.943  16.055  0.2688  0.6209 -0.6455
10428TIP3    H152699   5.462   4.038  16.057  0.3145  0.6240 -0.5627
10428TIP3    H252700   5.438   3.917  15.969 -1.8764  0.5323  0.0894
10429TIP3   OH252701   5.954   2.057  15.232  0.2895  0.7041 -0.2829
10429TIP3    H152702   5.963   2.098  15.318 -0.4065  0.3329 -0.0318
10429TIP3    H252703   5.888   2.109  15.187  0.5286  0.7926 -0.5382
10430TIP3   OH252704   0.666   3.045  14.361 -0.3817  0.2002  0.1555
10430TIP3    H152705   0.588   3.012  14.406 -2.3403  1.0164 -2.3856
10430TIP3    H252706   0.730   2.975  14.369 -1.4595 -0.6270  2.0815
10431TIP3   OH252707   5.815   0.351  16.653 -0.7685 -0.2359 -0.4223
10431TIP3    H152708   5.780   0.368  16.566 -2.2287 -0.2789  0.1361
10431TIP3    H252709   5.877   0.279  16.641 -1.5195 -0.7457 -1.3109
10432TIP3   OH252710   2.407   2.712  14.050  0.6870 -0.0981 -0.2198
10432TIP3    H152711   2.423   2.623  14.017  1.0594 -0.8112  1.7276
10432TIP3    H252712   2.481   2.763  14.017  2.4002 -1.3550  1.4568
10433TIP3   OH252713   4.763   5.071  16.081 -0.1628 -0.1383 -0.1947
10433TIP3    H152714   4.732   5.105  16.164 -0.0252 -0.7654  0.1164
10433TIP3    H252715   4.804   4.987  16.102  1.2447  0.3908 -0.6656
10434TIP3   OH252716   2.347   1.540  13.822 -0.4424 -0.2688  0.1344
10434TIP3    H152717   2.412   1.482  13.861  0.2729 -0.1210 -0.8074
10434TIP3    H252718   2.384   1.563  13.737 -1.4806  0.2540 -0.1849
10435TIP3   OH252719   1.213   4.290   0.444 -0.2868  0.4804  0.2135
10435TIP3    H152720   1.254   4.279   0.358 -0.6275 -1.7697  0.2753
10435TIP3    H252721   1.257   4.366   0.482  2.1851 -0.3991 -0.6693
10436TIP3   OH252722   0.047   0.770  10.856  0.2503 -0.3009 -0.0702
10436TIP3    H152723   0.108   0.842  10.840  0.4990 -0.7789 -1.4140
10436TIP3    H252724   0.100   0.701  10.894  0.1133  0.0344  0.7420
10437TIP3   OH252725   5.498   2.687   0.237  0.0218  0.0955  0.0943
10437TIP3    H152726   5.434   2.626   0.200  1.1220 -0.6763 -0.6264
10437TIP3    H252727   5.505   2.757   0.171 -0.8718  0.7612  0.6877
10438TIP3   OH252728   4.931   5.691   1.373 -0.0935  0.1342  0.1458
10438TIP3    H152729   4.906   5.599   1.377  0.2086  0.0114 -0.6609
10438TIP3    H252730   5.024   5.691   1.394 -0.4243  0.4362  1.7205
10439TIP3   OH252731   0.135   1.217  14.191  0.7390  0.1454  0.1805
10439TIP3    H152732   0.185   1.277  14.135  1.7081 -0.5687  0.2558
10439TIP3    H252733   0.201   1.157  14.226  0.2017  0.7792  2.3758
10440TIP3   OH252734   0.706   1.329  10.417 -0.2513  0.1702 -0.5757
10440TIP3    H152735   0.790   1.293  10.445  0.5528  2.3670  0.0731
10440TIP3    H252736   0.680   1.274  10.343  2.3590  0.1161 -1.5760
10441TIP3   OH252737   2.626   4.107  14.951  0.4244 -0.1222 -0.2558
10441TIP3    H152738   2.644   4.194  14.915 -0.1758  1.2931  2.5690
10441TIP3    H252739   2.708   4.059  14.940  0.6661  0.6651 -2.1481
10442TIP3   OH252740   4.225   4.698  15.916  0.8959  0.4249 -0.5232
10442TIP3    H152741   4.172   4.637  15.865  1.0353  0.9882 -1.3834
10442TIP3    H252742   4.163   4.742  15.974  1.1556 -2.3189  2.0263
10443TIP3   OH252743   2.950   5.379  14.601 -0.3925  0.1116 -0.4454
10443TIP3    H152744   2.964   5.440  14.673  0.8616  0.8358 -1.2692
10443TIP3    H252745   2.864   5.403  14.566 -0.4485  0.5938  0.0131
10444TIP3   OH252746   2.783   0.367  14.017 -0.5212 -0.1320  0.6474
10444TIP3    H152747   2.695   0.352  14.052 -2.6419  3.2253 -2.4790
10444TIP3    H252748   2.815   0.443  14.066 -0.2562 -0.0629  0.3688
10445TIP3   OH252749   0.512   2.051   2.999  0.8198 -0.0917  0.0990
10445TIP3    H152750   0.595   2.062   3.045  0.6562  0.8608  0.1862
10445TIP3    H252751   0.494   1.957   3.004  0.8268 -0.0367  1.9842
10446TIP3   OH252752   0.048   2.522   0.794 -0.3998  0.2533 -0.3009
10446TIP3    H152753   0.083   2.433   0.801 -0.1313  0.1534 -2.3549
10446TIP3    H252754   0.124   2.579   0.807 -0.6043  0.2269  1.2048
10447TIP3   OH252755   1.357   5.989  12.459  0.4736 -0.0495  0.4027
10447TIP3    H152756   1.281   5.932  12.473  0.3608 -0.2701 -1.0440
10447TIP3    H252757   1.430   5.939  12.497  0.3058 -0.9790 -0.4598
10448TIP3   OH252758   4.589   3.866  13.360  0.2764  0.1370  0.3087
10448TIP3    H152759   4.634   3.827  13.435 -0.4212 -0.4197  0.4479
10448TIP3    H252760   4.641   3.838  13.284  2.8177  3.1728  0.6768
10449TIP3   OH252761   3.190   3.602  11.878  0.1716 -0.1719 -0.1534
10449TIP3    H152762   3.140   3.599  11.959 -2.2295  1.9309 -1.3936
10449TIP3    H252763   3.224   3.513  11.866 -2.2130 -1.3972  1.4593
10450TIP3   OH252764   3.794   5.318   4.173 -0.7008 -0.5272 -0.5318
10450TIP3    H152765   3.845   5.303   4.094 -0.8900 -1.7983 -0.4395
10450TIP3    H252766   3.849   5.286   4.244 -1.0381 -0.5512 -0.2774
10451TIP3   OH252767   4.681   6.003  14.791 -0.2922  0.1717  0.1733
10451TIP3    H152768   4.703   6.068  14.857  0.7731  0.7615 -0.7329
10451TIP3    H252769   4.760   5.949  14.783  0.4375  1.4512 -2.1341
10452TIP3   OH252770   1.505   6.468   1.077 -0.1680  0.0602 -0.4375
10452TIP3    H152771   1.469   6.556   1.066 -0.5840 -0.1302 -0.6126
10452TIP3    H252772   1.542   6.468   1.165  0.5392  0.6593 -0.7165
10453TIP3   OH252773   6.619   2.100   3.329  1.1527  0.3641 -0.5388
10453TIP3    H152774   6.603   2.157   3.254  1.4530 -1.1456 -1.7965
10453TIP3    H252775   6.622   2.012   3.292  1.6124 -0.3960  1.2126
10454TIP3   OH252776   3.279   6.485   0.095 -0.1972 -0.0533  0.1547
10454TIP3    H152777   3.321   6.569   0.117 -0.9544  0.4411 -0.2205
10454TIP3    H252778   3.323   6.456   0.015  1.2212 -0.8778  1.1838
10455TIP3   OH252779   5.386   0.850  13.123 -0.4369 -0.0621  0.1244
10455TIP3    H152780   5.301   0.892  13.135 -0.5017 -0.5402  1.6030
10455TIP3    H252781   5.366   0.762  13.091 -0.3505  0.6118 -1.9204
10456TIP3   OH252782   1.809   5.146  14.419 -0.5488  0.6743 -0.4765
10456TIP3    H152783   1.859   5.075  14.379  0.1745  0.4683  0.7556
10456TIP3    H252784   1.746   5.171  14.352 -0.0283 -0.3252 -1.3706
10457TIP3   OH252785   0.159   6.032  15.630 -0.4844 -0.3041  0.3149
10457TIP3    H152786   0.186   6.122  15.648 -1.7813  0.0489  0.6526
10457TIP3    H252787   0.147   6.030  15.535  0.0778 -0.2831  0.2403
10458TIP3   OH252788   3.933   1.986   0.034 -0.3247  0.1967  0.4884
10458TIP3    H152789   4.024   2.001   0.059  0.2486 -0.8736 -0.8661
10458TIP3    H252790   3.889   2.070   0.053  0.9115  0.7051  1.2047
10459TIP3   OH252791   2.454   6.558   0.547  0.2154 -0.0994  0.1302
10459TIP3    H152792   2.537   6.579   0.503 -0.4501 -1.1054 -1.7040
10459TIP3    H252793   2.390   6.616   0.507 -0.3321 -0.7121  0.1167
10460TIP3   OH252794   2.362   5.038  11.683  0.0581  0.0181  0.3932
10460TIP3    H152795   2.355   5.004  11.772  1.3854  1.2357  0.9948
10460TIP3    H252796   2.372   4.960  11.628 -3.3207 -0.9714  0.9220
10461TIP3   OH252797   2.195   5.061  17.032  0.2329 -0.6613  0.2081
10461TIP3    H152798   2.101   5.043  17.025  0.3667 -1.1570 -0.4457
10461TIP3    H252799   2.230   4.987  17.082  0.2377 -0.3235  0.7149
10462TIP3   OH252800   0.433   6.554  12.102  0.7083 -0.3567  0.3253
10462TIP3    H152801   0.436   6.650  12.108  1.6864 -0.4440  1.5882
10462TIP3    H252802   0.343   6.535  12.077  0.2154  0.8536  1.0793
10463TIP3   OH252803   2.482   6.385   1.689  0.1231 -0.1463 -0.2291
10463TIP3    H152804   2.481   6.444   1.614 -1.5378  0.9242  0.5889
10463TIP3    H252805   2.426   6.311   1.663  3.2655 -2.2129 -1.7862
10464TIP3   OH252806   6.108   2.814   3.470  0.2303  0.3674  0.4428
10464TIP3    H152807   6.132   2.815   3.377 -0.2226  0.2384  0.3223
10464TIP3    H252808   6.136   2.899   3.503 -0.1229  0.6374  0.0542
10465TIP3   OH252809   6.291   3.143  16.670  0.1955 -0.1230  0.0891
10465TIP3    H152810   6.281   3.235  16.645  1.0115  0.1898  0.8659
10465TIP3    H252811   6.257   3.094  16.595  1.0894  0.7952 -0.9479
10466TIP3   OH252812   4.800   3.277   2.051 -0.1574 -0.2000  0.4734
10466TIP3    H152813   4.721   3.294   2.001  0.4663  1.0773 -0.1342
10466TIP3    H252814   4.871   3.281   1.987  0.8478  3.0374  1.5392
10467TIP3   OH252815   5.885   4.188   2.228 -0.9170 -0.0021 -0.1767
10467TIP3    H152816   5.975   4.190   2.261 -1.0606  1.6448  0.1836
10467TIP3    H252817   5.831   4.208   2.304 -1.6293 -1.2959 -0.3193
10468TIP3   OH252818   1.856   2.054  15.182 -0.4813 -0.4902  0.0028
10468TIP3    H152819   1.832   2.115  15.252  1.4456 -1.1686  1.3418
10468TIP3    H252820   1.817   2.091  15.103 -3.5745 -0.2018  1.5251
10469TIP3   OH252821   2.512   0.985   1.756  0.0480 -0.0091  0.3752
10469TIP3    H152822   2.483   0.979   1.847 -1.5248  0.4100 -0.0811
10469TIP3    H252823   2.563   0.904   1.743 -0.1914 -0.3543  1.4428
10470TIP3   OH252824   0.880   4.813  16.026 -0.3374  0.1332  0.2902
10470TIP3    H152825   0.807   4.875  16.025 -0.2042  0.2910 -1.0021
10470TIP3    H252826   0.958   4.867  16.015 -0.1644 -0.1946 -0.1190
10471TIP3   OH252827   4.565   0.465   1.152 -0.5198 -0.4843 -0.1998
10471TIP3    H152828   4.655   0.434   1.160 -0.8006 -1.4704 -0.8031
10471TIP3    H252829   4.543   0.454   1.060 -1.6493 -1.3790  0.1454
10472TIP3   OH252830   6.502   3.611  14.200 -0.0913 -0.7615 -0.0275
10472TIP3    H152831   6.499   3.670  14.125  1.5783 -1.6111 -0.8062
10472TIP3    H252832   6.517   3.669  14.275  1.0634 -0.1465 -0.7105
10473TIP3   OH252833   2.919   0.747  16.241 -0.1819  0.2940 -0.3448
10473TIP3    H152834   2.993   0.802  16.268  0.0693 -0.2140  0.0068
10473TIP3    H252835   2.859   0.808  16.198 -1.3845  1.5182  2.7212
10474TIP3   OH252836   1.502   0.895   3.432 -0.6708 -0.0626  0.1588
10474TIP3    H152837   1.414   0.865   3.410  0.3041 -2.0051 -1.4003
10474TIP3    H252838   1.551   0.815   3.452  0.8265  0.9394  0.7254
10475TIP3   OH252839   5.392   6.467   5.591 -0.2773 -0.0253 -0.8216
10475TIP3    H152840   5.417   6.534   5.527 -0.7574  1.1860  0.1969
10475TIP3    H252841   5.392   6.514   5.675 -4.3849 -0.2333 -0.5097
10476TIP3   OH252842   0.442   2.897  17.052 -0.5222  0.3880 -0.0253
10476TIP3    H152843   0.353   2.917  17.024 -0.1923  0.0729 -1.3949
10476TIP3    H252844   0.492   2.890  16.970  0.2831 -1.6961  0.5630
10477TIP3   OH252845   1.376   3.776   2.832 -0.1357 -0.4715  0.1641
10477TIP3    H152846   1.378   3.854   2.888  3.9354 -0.0886 -0.2578
10477TIP3    H252847   1.374   3.810   2.743  2.1316 -0.7017 -0.0389
10478TIP3   OH252848   0.642   4.770  16.691  0.0145  0.0218 -0.3869
10478TIP3    H152849   0.692   4.839  16.649 -0.7490  2.1456  1.9697
10478TIP3    H252850   0.709   4.715  16.733  0.5345  1.2858  0.5044
10479TIP3   OH252851   3.957   2.359  15.484 -0.5556 -1.1044  0.1231
10479TIP3    H152852   3.921   2.446  15.465 -1.2131 -1.7527 -1.8562
10479TIP3    H252853   3.956   2.353  15.580 -1.7634  0.5406  0.2653
10480TIP3   OH252854   6.350   2.004   1.130 -0.3622  0.2589  1.0348
10480TIP3    H152855   6.295   1.929   1.107  0.2912  0.2849 -0.7578
10480TIP3    H252856   6.299   2.080   1.103  0.0200  0.3408  0.5452
10481TIP3   OH252857   1.566   4.917   0.758  0.1723 -0.4472  0.3901
10481TIP3    H152858   1.608   4.899   0.674 -0.4203 -1.2562  0.2484
10481TIP3    H252859   1.526   5.003   0.747  1.5760  0.2398  0.4555
10482TIP3   OH252860   1.134   0.537  11.499 -0.0477  0.4840 -0.3852
10482TIP3    H152861   1.111   0.591  11.424 -0.2289  2.2665  0.8744
10482TIP3    H252862   1.202   0.588  11.545 -0.3199 -0.2742  0.9192
10483TIP3   OH252863   0.375   4.680   4.760  0.2943 -0.6259  0.0002
10483TIP3    H152864   0.344   4.590   4.770  0.1500 -0.8248 -1.9111
10483TIP3    H252865   0.303   4.734   4.791 -0.2617 -1.1543 -0.3608
10484TIP3   OH252866   6.496   0.666  14.285 -0.3701 -0.0873  0.1237
10484TIP3    H152867   6.455   0.667  14.198  0.0017  0.5936 -0.0474
10484TIP3    H252868   6.589   0.675  14.267 -0.1260 -1.5413  0.5154
10485TIP3   OH252869   3.746   5.227  10.955 -0.2544 -0.1850 -0.1991
10485TIP3    H152870   3.795   5.145  10.963 -0.8455 -0.4760  0.5661
10485TIP3    H252871   3.814   5.295  10.952  0.2136 -0.6263  0.1514
10486TIP3   OH252872   5.493   2.237   5.507 -0.1736 -0.1639 -0.4871
10486TIP3    H152873   5.436   2.289   5.563 -0.2604  1.3610 -1.9197
10486TIP3    H252874   5.497   2.285   5.425  0.0862 -2.2221 -1.7654
10487TIP3   OH252875   0.185   4.850  12.479  0.1081  0.0063  0.5336
10487TIP3    H152876   0.148   4.874  12.564  0.0687  0.1140  0.4866
10487TIP3    H252877   0.240   4.774  12.497  0.1481  0.0669  0.6666
10488TIP3   OH252878   1.578   5.210   1.279  0.0847  0.5656  0.4254
10488TIP3    H152879   1.508   5.272   1.262 -0.3907 -0.2265 -0.6422
10488TIP3    H252880   1.643   5.225   1.210  1.2773  1.6664  1.7175
10489TIP3   OH252881   1.877   2.847  17.129  0.3868  0.5229  0.9784
10489TIP3    H152882   1.901   2.929  17.173 -0.5582  2.2251 -1.4324
10489TIP3    H252883   1.957   2.822  17.081  0.1546  1.0852  0.2746
10490TIP3   OH252884   4.189   0.783   1.292 -0.9361  0.2279  0.4980
10490TIP3    H152885   4.278   0.750   1.296 -1.7133 -1.9281  0.9428
10490TIP3    H252886   4.162   0.794   1.383 -0.9572  1.4910  0.3700
10491TIP3   OH252887   3.343   3.881  15.180  0.2877  0.4886 -0.3260
10491TIP3    H152888   3.322   3.789  15.164 -1.6135  1.1739 -2.2546
10491TIP3    H252889   3.427   3.894  15.137  0.3526 -0.2509 -0.4425
10492TIP3   OH252890   1.924   4.590  17.161 -0.1618 -0.0282  0.3236
10492TIP3    H152891   1.975   4.513  17.137 -0.3628  0.0862 -0.4776
10492TIP3    H252892   1.863   4.559  17.228 -0.6724 -0.7113 -0.4451
10493TIP3   OH252893   6.286   1.310  14.157 -0.7894  0.4645  0.3223
10493TIP3    H152894   6.328   1.227  14.179 -0.8028  0.2722 -0.3565
10493TIP3    H252895   6.358   1.371  14.141 -0.7166  0.0011 -1.3588
10494TIP3   OH252896   3.291   2.436   3.097  0.5382  0.0887 -0.5798
10494TIP3    H152897   3.344   2.357   3.092  1.4632  0.7407 -1.8431
10494TIP3    H252898   3.308   2.482   3.014  0.5752  1.9450  0.3948
10495TIP3   OH252899   4.289   5.828  13.909 -0.7609  0.0469 -0.6785
10495TIP3    H152900   4.280   5.737  13.878 -1.5536  0.3149 -1.2620
10495TIP3    H252901   4.200   5.854  13.933 -0.3003  0.1188  1.1298
10496TIP3   OH252902   1.565   6.056   2.967  0.1229 -1.1028  0.4405
10496TIP3    H152903   1.553   5.965   2.996  0.4769 -0.7555  1.7476
10496TIP3    H252904   1.513   6.107   3.029  0.3812 -0.3737  0.0612
10497TIP3   OH252905   0.473   3.590   2.025  0.1837 -0.1743 -0.1628
10497TIP3    H152906   0.453   3.576   2.118 -0.8367  1.1036 -0.1630
10497TIP3    H252907   0.534   3.520   2.003 -0.4971 -1.2334  1.1610
10498TIP3   OH252908   3.999   4.783  16.061  0.4133 -0.0761  0.2757
10498TIP3    H152909   3.935   4.727  16.016 -1.4545  0.7773  1.7448
10498TIP3    H252910   3.962   4.871  16.057  1.4400  0.4285  1.2859
10499TIP3   OH252911   1.422   2.846  10.482  0.4853 -0.6212 -0.3646
10499TIP3    H152912   1.512   2.844  10.513  0.0803  1.2153  1.0748
10499TIP3    H252913   1.399   2.939  10.481 -1.8851 -1.1189  0.8394
10500TIP3   OH252914   0.962   6.686  14.543  0.9953  0.4407 -0.7707
10500TIP3    H152915   0.954   6.626  14.469 -1.8365 -0.3363  0.0030
10500TIP3    H252916   0.969   6.773  14.504 -0.9941  0.1086 -2.0298
10501TIP3   OH252917   4.937   4.269  15.488 -0.4671 -0.5252  0.5551
10501TIP3    H152918   4.941   4.322  15.568 -0.3829  0.1203  0.1313
10501TIP3    H252919   5.028   4.254  15.464 -0.4175  1.3633 -0.7455
10502TIP3   OH252920   0.339   5.037   1.135  0.3552  0.7269 -0.5276
10502TIP3    H152921   0.350   4.992   1.051  1.8310 -0.9305  0.4744
10502TIP3    H252922   0.373   5.126   1.119 -1.8051  1.3227 -2.3136
10503TIP3   OH252923   0.266   1.990  15.528  0.2659 -0.1839 -0.3912
10503TIP3    H152924   0.358   1.965  15.518  0.3273  0.5583 -1.8240
10503TIP3    H252925   0.263   2.038  15.611  1.0498 -0.6970 -0.0558
10504TIP3   OH252926   0.984   6.162   4.822 -0.4575  0.1992  0.5274
10504TIP3    H152927   0.925   6.098   4.783  0.5416 -1.1895  1.2144
10504TIP3    H252928   0.968   6.156   4.916  0.7017 -0.1556  0.7170
10505TIP3   OH252929   0.034   0.932  14.356  0.0468  0.2729 -0.5724
10505TIP3    H152930  -0.013   0.924  14.273  0.1596  2.0783 -0.8620
10505TIP3    H252931   0.121   0.964  14.331 -0.4300  2.4448  0.2879
10506TIP3   OH252932   3.493   3.426   2.022 -0.5074 -0.1034  0.1759
10506TIP3    H152933   3.430   3.492   1.993  0.8174  0.1117 -2.5804
10506TIP3    H252934   3.440   3.349   2.043 -1.7787  0.2420 -1.5208
10507TIP3   OH252935   4.656   6.546  12.991  0.2865 -0.2452  0.0557
10507TIP3    H152936   4.630   6.633  13.020 -0.5112 -0.1197 -0.9865
10507TIP3    H252937   4.586   6.488  13.021  0.0172 -0.2805 -0.6207
10508TIP3   OH252938   5.294   3.029  13.435 -0.1142  0.0394  0.5696
10508TIP3    H152939   5.208   3.046  13.474 -1.3963 -2.2045 -1.0243
10508TIP3    H252940   5.338   2.974  13.499 -1.3273 -1.7718 -0.0726
10509TIP3   OH252941   6.148   3.586   2.845  0.1316 -0.3975  0.8721
10509TIP3    H152942   6.075   3.614   2.900 -0.0183 -1.5781  1.2961
10509TIP3    H252943   6.225   3.595   2.901  0.5534  2.1053  0.0203
10510TIP3   OH252944   0.601   3.454   4.154 -0.4379  0.0019 -0.5123
10510TIP3    H152945   0.550   3.426   4.078 -0.9623  1.6632 -0.8144
10510TIP3    H252946   0.602   3.378   4.211 -0.0163 -1.3001 -2.1659
10511TIP3   OH252947   3.312   3.017  13.170 -0.1257  0.2374  0.0780
10511TIP3    H152948   3.226   2.975  13.177  0.0952 -0.2992 -0.3302
10511TIP3    H252949   3.313   3.082  13.240  0.3150 -1.8243  2.1235
10512TIP3   OH252950   6.038   0.524  13.151  0.3440  0.3904 -0.1025
10512TIP3    H152951   6.040   0.498  13.059 -0.5203 -0.5843  0.1272
10512TIP3    H252952   5.972   0.466  13.191  1.5632 -0.0484  1.3794
10513TIP3   OH252953   0.660   3.911  12.616  0.4797  0.1355  0.1197
10513TIP3    H152954   0.690   3.884  12.703 -0.0055  0.8246  0.5109
10513TIP3    H252955   0.668   3.832  12.562 -2.0316 -1.1922  1.5078
10514TIP3   OH252956   4.119   1.500   4.819  0.0436  0.5603 -0.0506
10514TIP3    H152957   4.186   1.566   4.803  2.4015 -2.3322 -4.0763
10514TIP3    H252958   4.167   1.425   4.854 -1.2908 -1.0788 -1.5389
10515TIP3   OH252959   0.142   2.124   5.894  0.1135 -0.2382 -0.6771
10515TIP3    H152960   0.058   2.150   5.932  0.6231 -0.0409  0.3559
10515TIP3    H252961   0.119   2.085   5.810 -1.2440 -2.3873  0.5830
10516TIP3   OH252962   0.562   4.046   3.251 -0.2685  0.2183 -0.1935
10516TIP3    H152963   0.494   4.078   3.192  0.2107 -0.7220 -1.3150
10516TIP3    H252964   0.518   3.982   3.307 -0.8187  1.4226  0.7932
10517TIP3   OH252965   4.915   5.225  13.755 -0.4177  0.1050  0.1537
10517TIP3    H152966   4.950   5.153  13.702 -1.8864 -1.7809  1.5892
10517TIP3    H252967   4.914   5.300  13.696  3.6600 -0.2534 -0.6763
10518TIP3   OH252968   1.811   6.481  16.604  0.6174 -0.3762 -0.4895
10518TIP3    H152969   1.809   6.560  16.549  1.7221 -0.0061 -0.0312
10518TIP3    H252970   1.810   6.514  16.694 -0.5656 -0.9597 -0.2603
10519TIP3   OH252971   4.225   0.306  16.034  0.0507  0.0184 -0.1867
10519TIP3    H152972   4.229   0.396  16.066  1.3854  0.2422 -0.9200
10519TIP3    H252973   4.161   0.309  15.962  0.8764  0.6254 -0.9122
10520TIP3   OH252974   0.248   3.534   1.396 -0.0140  0.1061  0.0939
10520TIP3    H152975   0.174   3.478   1.371  0.8330 -0.8349 -0.4406
10520TIP3    H252976   0.235   3.614   1.345 -0.2504 -0.3648 -0.6154
10521TIP3   OH252977   4.034   5.853  11.979  0.3433 -0.4642 -1.0440
10521TIP3    H152978   4.015   5.930  12.032  1.0118 -0.5960 -0.6015
10521TIP3    H252979   3.968   5.789  12.005 -0.3529  0.0212 -1.5724
10522TIP3   OH252980   2.435   3.643  16.232  0.6550  0.7585 -0.0180
10522TIP3    H152981   2.448   3.572  16.294 -0.9859 -0.1795 -0.6809
10522TIP3    H252982   2.422   3.599  16.148 -1.0849  1.7793 -0.3276
10523TIP3   OH252983   2.500   1.354  13.969  0.3858 -0.2394  0.3272
10523TIP3    H152984   2.479   1.310  14.052  2.0752 -2.5675 -0.3854
10523TIP3    H252985   2.581   1.402  13.987  0.0294  0.3737  0.3475
10524TIP3   OH252986   0.603   1.551   0.267 -0.3285 -0.0761  0.1290
10524TIP3    H152987   0.654   1.602   0.329 -0.0787 -0.2418  0.0645
10524TIP3    H252988   0.523   1.528   0.313 -0.7465  0.9417 -0.0658
10525TIP3   OH252989   2.331   6.354  13.517  0.3712 -0.1100 -0.1693
10525TIP3    H152990   2.279   6.426  13.480 -0.9855 -0.8500  0.2376
10525TIP3    H252991   2.407   6.348  13.459  1.7012  3.0743  1.0191
10526TIP3   OH252992   1.817   1.754   2.257 -0.1323 -0.1570  0.0136
10526TIP3    H152993   1.748   1.703   2.300 -0.9206 -0.1790 -1.2211
10526TIP3    H252994   1.804   1.843   2.288  0.0301 -0.3577  0.6851
10527TIP3   OH252995   4.435   4.184   5.769 -0.1631  0.3249  0.2623
10527TIP3    H152996   4.444   4.222   5.682 -0.7509  1.8770  0.8456
10527TIP3    H252997   4.515   4.132   5.781 -0.2745 -0.2807 -1.3461
10528TIP3   OH252998   6.297   6.462   5.281 -0.0231 -0.0415 -0.1640
10528TIP3    H152999   6.317   6.449   5.374 -0.4014 -0.0999 -0.0904
10528TIP3    H253000   6.383   6.471   5.239  0.1322  0.9285  0.3253
10529TIP3   OH253001   0.312   2.999  14.775 -0.3232  0.0451  0.3625
10529TIP3    H153002   0.372   3.067  14.806  1.4435 -1.4961  0.4997
10529TIP3    H253003   0.251   2.987  14.848 -1.2585  2.0676 -0.0166
10530TIP3   OH253004   4.492   3.188  16.207  0.0398 -1.0202 -0.3669
10530TIP3    H153005   4.440   3.123  16.160 -2.7403  0.4966  0.3717
10530TIP3    H253006   4.469   3.175  16.299 -0.4072  0.7776 -0.1760
10531TIP3   OH253007   4.966   3.157  16.522 -0.3673  0.0519 -0.1839
10531TIP3    H153008   5.042   3.126  16.473  0.2002  1.4484 -0.2366
10531TIP3    H253009   4.893   3.151  16.460  0.0398  0.3015 -0.6971
10532TIP3   OH253010   6.491   1.336   4.711 -0.3404 -0.4375 -1.0061
10532TIP3    H153011   6.583   1.315   4.691 -0.8235 -1.1464 -2.7087
10532TIP3    H253012   6.485   1.332   4.806  1.2463 -1.0356 -0.9012
10533TIP3   OH253013   0.411   4.502   0.335 -0.3560  0.1820  0.1972
10533TIP3    H153014   0.344   4.458   0.282  0.3170 -1.5593  0.7165
10533TIP3    H253015   0.363   4.538   0.410 -0.9134  0.2349 -0.1827
10534TIP3   OH253016   6.317   3.293  12.639  0.3234 -0.1835 -0.0262
10534TIP3    H153017   6.393   3.260  12.593  0.5861  0.6569 -0.2126
10534TIP3    H253018   6.352   3.357  12.701 -0.3406  1.2473 -1.0822
10535TIP3   OH253019   6.667   5.947  16.462  0.2214  0.2588 -0.3797
10535TIP3    H153020   6.595   5.979  16.408  1.2509  2.2624 -0.6559
10535TIP3    H253021   6.682   5.858  16.432 -1.3807  0.1988 -1.1047
10536TIP3   OH253022   1.090   0.363  14.916  0.1850  0.6238  0.4701
10536TIP3    H153023   1.091   0.334  14.825  0.1499 -1.4157  1.0732
10536TIP3    H253024   1.182   0.379  14.937  0.5260 -1.5209  0.8136
10537TIP3   OH253025   4.822   2.982  14.292 -0.6388  0.0594 -0.1663
10537TIP3    H153026   4.909   3.023  14.291  0.1168 -1.4577 -0.0388
10537TIP3    H253027   4.770   3.038  14.349 -0.0729  1.6060 -1.1054
10538TIP3   OH253028   1.797   3.755   2.763 -0.1539  0.4063 -0.4572
10538TIP3    H153029   1.753   3.799   2.690 -0.6508 -0.3005 -0.5962
10538TIP3    H253030   1.877   3.719   2.725  0.0816  0.8856 -0.4222
10539TIP3   OH253031   4.572   0.210   1.931 -0.3340  0.1909 -0.1469
10539TIP3    H153032   4.602   0.177   2.015 -0.1562  1.4737  0.3263
10539TIP3    H253033   4.546   0.132   1.882  2.7208 -0.9279 -0.2008
10540TIP3   OH253034   4.058   0.305   5.658  0.8643  0.1286  0.3181
10540TIP3    H153035   4.065   0.222   5.610  0.7508 -0.7520  1.7664
10540TIP3    H253036   4.010   0.283   5.738  0.9893  1.5573  0.8179
10541TIP3   OH253037   4.065   3.120   3.027  0.4806  0.2777  0.5613
10541TIP3    H153038   3.985   3.111   2.976  0.8021  2.3600 -0.3996
10541TIP3    H253039   4.128   3.159   2.967  2.5799 -2.1378  0.9974
10542TIP3   OH253040   3.920   2.739   1.489 -0.3957  0.1768 -0.9207
10542TIP3    H153041   3.830   2.756   1.515 -0.1557 -0.1675  0.1597
10542TIP3    H253042   3.924   2.769   1.398 -1.3434  1.0576 -0.6936
10543TIP3   OH253043   0.395   1.596  10.621 -0.5256  0.9132 -0.9977
10543TIP3    H153044   0.346   1.527  10.667  2.1308 -0.3684  0.1597
10543TIP3    H253045   0.345   1.676  10.637 -1.0946  0.0718  2.0434
10544TIP3   OH253046   2.326   4.477  14.933  0.1424  0.0076  0.6633
10544TIP3    H153047   2.347   4.532  15.008  0.0963 -1.0372  1.4705
10544TIP3    H253048   2.248   4.517  14.895  0.1420  0.5247  1.1961
10545TIP3   OH253049   4.992   3.705   2.193  0.2850 -0.8475  0.1700
10545TIP3    H153050   5.036   3.731   2.113 -1.0682 -0.2211 -0.4034
10545TIP3    H253051   5.059   3.715   2.261  1.1098 -0.2240 -0.6952
10546TIP3   OH253052   4.562   0.076   5.203 -0.2135  0.0120 -0.3724
10546TIP3    H153053   4.630   0.119   5.254 -1.7608  1.7044  0.3834
10546TIP3    H253054   4.545  -0.006   5.250 -0.0324  0.4784  0.5275
10547TIP3   OH253055   2.917   1.152  13.811  0.2898 -0.5126 -0.5860
10547TIP3    H153056   2.972   1.229  13.828  1.2416 -1.1100 -0.9000
10547TIP3    H253057   2.857   1.181  13.742  0.4209  0.0489 -0.4689
10548TIP3   OH253058   4.596   5.603   2.198 -0.0503  0.5799  0.5394
10548TIP3    H153059   4.563   5.613   2.288  1.6009 -1.6074  1.4895
10548TIP3    H253060   4.535   5.541   2.157 -1.5160  2.5115 -0.3171
10549TIP3   OH253061   1.576   5.964   5.647  0.2646 -0.6898  0.1523
10549TIP3    H153062   1.502   6.010   5.686  0.4472 -1.8043  1.9120
10549TIP3    H253063   1.649   5.983   5.706  0.9114 -1.2585 -0.4487
10550TIP3   OH253064   5.205   6.214  13.145 -0.3545  0.2075 -0.2607
10550TIP3    H153065   5.252   6.173  13.217 -0.8159  1.1753  0.6296
10550TIP3    H253066   5.193   6.145  13.081  0.0225 -0.6953  0.6196
10551TIP3   OH253067   0.640   5.281  12.031 -0.0667 -0.5203  0.1570
10551TIP3    H153068   0.628   5.251  12.122 -0.9362 -3.1409 -0.7316
10551TIP3    H253069   0.679   5.206  11.986  2.8063  1.5701 -1.1717
10552TIP3   OH253070   4.921   3.723   4.336  0.1126 -0.1014 -0.3612
10552TIP3    H153071   4.873   3.772   4.269  0.5896 -1.3281 -1.6445
10552TIP3    H253072   4.867   3.646   4.351  0.3279 -0.1411  0.2153
10553TIP3   OH253073   4.823   0.771   4.597 -0.3080  0.2296 -0.6742
10553TIP3    H153074   4.744   0.758   4.650  1.2052  1.0357  1.9301
10553TIP3    H253075   4.876   0.693   4.613 -0.2824 -0.0490 -1.9642
10554TIP3   OH253076   5.573   5.339   4.388  0.4635 -0.5376 -0.1197
10554TIP3    H153077   5.656   5.295   4.404  0.9453  0.9172  1.8041
10554TIP3    H253078   5.543   5.365   4.475 -2.3750 -1.6052 -0.6776
10555TIP3   OH253079   3.945   6.644   4.243 -0.6808  0.0006  0.2414
10555TIP3    H153080   3.931   6.560   4.199 -0.6382 -0.1738  0.5579
10555TIP3    H253081   3.913   6.709   4.181  1.1464 -0.0934 -0.8689
10556TIP3   OH253082   3.954   5.602   2.220  0.3719 -0.2060 -0.6948
10556TIP3    H153083   3.970   5.598   2.314  0.2459 -1.8339 -0.7134
10556TIP3    H253084   4.041   5.611   2.181  0.3312  1.9480 -0.4076
10557TIP3   OH253085   5.412   1.467   6.126 -0.3788  0.0554  0.0574
10557TIP3    H153086   5.388   1.380   6.094 -0.6536  0.9446 -2.4049
10557TIP3    H253087   5.353   1.483   6.199 -2.6361 -0.5606 -1.5096
10558TIP3   OH253088   6.727   1.369  14.819 -0.5869 -0.2133  0.1682
10558TIP3    H153089   6.639   1.380  14.855 -0.7064  1.8526 -0.6418
10558TIP3    H253090   6.751   1.456  14.786  2.3052 -0.3546  1.5709
10559TIP3   OH253091   6.769   3.139   5.274 -0.5740 -0.3773 -0.0427
10559TIP3    H153092   6.720   3.156   5.355 -0.2644 -1.8621  0.5048
10559TIP3    H253093   6.702   3.136   5.206 -0.6923  2.3681 -0.1507
10560TIP3   OH253094   2.636   6.097  15.703 -0.3295  0.4323  0.5517
10560TIP3    H153095   2.583   6.019  15.686 -1.9952  1.8850 -1.6875
10560TIP3    H253096   2.618   6.120  15.794  0.2837 -1.7806  1.2868
10561TIP3   OH253097   3.106   2.489   5.474  1.0656 -0.0856  0.5938
10561TIP3    H153098   3.061   2.478   5.558  1.8526  0.7585  1.1382
10561TIP3    H253099   3.075   2.415   5.421  0.8292 -0.8340  1.7394
10562TIP3   OH253100   1.199   4.004   0.516 -0.3449 -0.3401  0.6475
10562TIP3    H153101   1.111   3.975   0.494 -0.6786  1.4971 -0.7016
10562TIP3    H253102   1.201   4.096   0.491  2.1818 -0.5201 -0.1259
10563TIP3   OH253103   2.946   5.743   4.927  0.0691 -0.0679 -0.1113
10563TIP3    H153104   3.020   5.708   4.877  0.8233  2.4402 -0.8795
10563TIP3    H253105   2.870   5.695   4.894  1.0163 -0.9494 -1.0894
10564TIP3   OH253106   5.781   5.742   2.463 -0.0247 -0.4663 -0.2163
10564TIP3    H153107   5.686   5.733   2.455 -0.3004 -1.3169  2.9531
10564TIP3    H253108   5.814   5.652   2.464  0.5396 -0.2608  1.0483
10565TIP3   OH253109   0.681   3.324  15.913  0.0023  0.5238 -0.5872
10565TIP3    H153110   0.773   3.299  15.913 -0.2993 -0.6232 -0.4628
10565TIP3    H253111   0.676   3.396  15.976  0.9836  1.2928 -1.3541
10566TIP3   OH253112   2.272   2.858  15.306  0.8490  0.0077 -0.1337
10566TIP3    H153113   2.351   2.909  15.327 -0.6033  2.0067  0.8669
10566TIP3    H253114   2.214   2.874  15.380 -1.8523  1.5908 -2.4172
10567TIP3   OH253115   0.280   5.964  16.569  0.1988  0.2536 -0.2524
10567TIP3    H153116   0.311   5.873  16.575  2.4469  1.0772  2.6817
10567TIP3    H253117   0.343   6.006  16.510  0.2466  0.3100 -0.1615
10568TIP3   OH253118   2.195   2.964  12.796  0.3178 -0.3334  0.3860
10568TIP3    H153119   2.115   2.920  12.824  0.9556 -1.5836  0.3320
10568TIP3    H253120   2.168   3.053  12.775 -1.4888 -1.3094 -1.7750
10569TIP3   OH253121   6.219   1.490   2.119 -0.5765 -0.5125  0.2898
10569TIP3    H153122   6.314   1.481   2.127 -0.7552 -1.9598  1.0662
10569TIP3    H253123   6.197   1.438   2.041 -0.7140  0.0395 -0.0459
10570TIP3   OH253124   5.074   5.341  17.227  0.6427  0.3101 -0.2679
10570TIP3    H153125   4.994   5.296  17.201  0.7553 -0.3746  0.5314
10570TIP3    H253126   5.050   5.388  17.307  1.0914 -0.0884  0.1096
10571TIP3   OH253127   0.824   1.803   2.058 -0.3983  0.0327  0.5459
10571TIP3    H153128   0.787   1.886   2.088 -1.6253 -0.4228  0.3484
10571TIP3    H253129   0.918   1.812   2.073 -0.1577  2.3885 -1.6990
10572TIP3   OH253130   1.710   6.100   6.102 -0.4854  0.2730  0.3182
10572TIP3    H153131   1.649   6.049   6.156 -0.8437  1.3703  0.9879
10572TIP3    H253132   1.794   6.057   6.113 -0.7027  0.0532  1.1979
10573TIP3   OH253133   5.384   0.348   0.345  0.1091 -0.5886 -0.8434
10573TIP3    H153134   5.436   0.428   0.354 -0.3980 -0.1956 -1.3381
10573TIP3    H253135   5.429   0.297   0.277  0.4909 -0.7800 -0.4535
10574TIP3   OH253136   1.699   0.179  13.193 -0.2922  0.0361  0.1537
10574TIP3    H153137   1.780   0.180  13.244  0.0826 -0.9415 -0.3840
10574TIP3    H253138   1.695   0.090  13.156 -0.9720  0.4551 -0.8273
10575TIP3   OH253139   4.498   2.094   6.820  0.7606  0.0587  0.9685
10575TIP3    H153140   4.571   2.040   6.789 -0.0162 -0.7073  0.4283
10575TIP3    H253141   4.452   2.120   6.740 -0.4925 -0.8225  1.3608
10576TIP3   OH253142   6.672   5.185  14.026  0.8748  0.3153 -0.4148
10576TIP3    H153143   6.591   5.221  14.062  0.8356  2.3292 -2.2884
10576TIP3    H253144   6.679   5.097  14.065 -1.8703  0.3156  0.2795
10577TIP3   OH253145   6.065   0.514  16.705  0.0322  0.4735  0.3203
10577TIP3    H153146   5.984   0.464  16.700  1.2769 -1.6174 -0.7424
10577TIP3    H253147   6.133   0.448  16.720  2.0504  1.4585 -3.1755
10578TIP3   OH253148   5.814   5.604  12.192 -0.2903 -0.2143  0.5845
10578TIP3    H153149   5.890   5.547  12.175  0.2796  1.1169 -1.9329
10578TIP3    H253150   5.837   5.651  12.272  0.5046 -1.4209  1.1082
10579TIP3   OH253151   2.216   0.851  15.267 -0.0884  0.7564 -0.4287
10579TIP3    H153152   2.151   0.780  15.272  0.7909 -0.1572 -1.3490
10579TIP3    H253153   2.262   0.848  15.350  1.2183 -1.0770 -1.1392
10580TIP3   OH253154   5.607   6.037   4.564 -0.1752 -0.3960 -0.5086
10580TIP3    H153155   5.612   6.105   4.631 -0.0584 -0.3997 -0.5131
10580TIP3    H253156   5.569   6.081   4.488 -0.2197 -0.3689 -0.4708
10581TIP3   OH253157   6.501   0.020   0.619  0.3766 -0.0804 -0.0299
10581TIP3    H153158   6.524   0.027   0.712  0.1662 -1.7901  0.1920
10581TIP3    H253159   6.422  -0.033   0.619 -0.6343  1.3732 -1.1057
10582TIP3   OH253160   0.857   3.417   3.507 -0.2006  0.1453 -0.9378
10582TIP3    H153161   0.832   3.386   3.420  3.0774 -1.0490 -1.6204
10582TIP3    H253162   0.789   3.382   3.565 -1.4794 -0.6247 -2.7953
10583TIP3   OH253163   3.203   3.459   1.402 -0.7139  0.9368 -0.7465
10583TIP3    H153164   3.224   3.509   1.481 -1.7624  0.2754 -0.0133
10583TIP3    H253165   3.134   3.398   1.431 -0.1425 -0.2596 -1.8427
10584TIP3   OH253166   0.551   2.769   1.973 -0.2585  0.1784  0.2813
10584TIP3    H153167   0.636   2.808   1.994 -0.8318  0.6039  1.9554
10584TIP3    H253168   0.495   2.844   1.953 -0.0824 -0.1413 -1.6237
10585TIP3   OH253169   5.949   0.771  15.246  0.1901 -0.3347 -0.0330
10585TIP3    H153170   5.889   0.722  15.190  0.7231 -0.4952 -0.4785
10585TIP3    H253171   5.997   0.828  15.186  0.5545 -0.2870  0.2961
10586TIP3   OH253172   4.045   3.815  11.353  0.2738 -0.4605 -0.3292
10586TIP3    H153173   4.123   3.793  11.404  1.6781 -0.4153 -2.3484
10586TIP3    H253174   4.078   3.833  11.265 -1.8181  1.3511 -0.8344
10587TIP3   OH253175   2.530   0.297  11.156  0.2646 -0.6502  0.0180
10587TIP3    H153176   2.534   0.383  11.199  3.0171 -0.1015 -1.1013
10587TIP3    H253177   2.492   0.239  11.222  0.4628  0.9838  1.6655
10588TIP3   OH253178   1.371   3.704  11.610  0.0133 -0.3254 -0.1103
10588TIP3    H153179   1.317   3.780  11.588 -0.2080  0.0383  1.5950
10588TIP3    H253180   1.370   3.700  11.705  2.5304 -0.6636 -0.0438
10589TIP3   OH253181   6.294   0.313   5.629 -0.4563 -0.4709 -0.4587
10589TIP3    H153182   6.298   0.396   5.582  1.5126 -0.9043 -1.1444
10589TIP3    H253183   6.281   0.247   5.561 -0.7744 -0.8388 -0.0480
10590TIP3   OH253184   1.053   1.996  14.490 -0.2715  0.4911  0.0162
10590TIP3    H153185   0.980   1.959  14.540  0.6392  0.9608  1.7862
10590TIP3    H253186   1.130   1.982  14.545  1.0057  0.0538 -1.7795
10591TIP3   OH253187   4.422   1.193   5.110 -0.1447  0.1887  0.2732
10591TIP3    H153188   4.405   1.099   5.098  0.7575  0.0914 -0.3675
10591TIP3    H253189   4.386   1.234   5.031  0.4263  0.2519  0.0422
10592TIP3   OH253190   3.537   3.269   5.214  0.3291 -0.1442 -0.2167
10592TIP3    H153191   3.615   3.231   5.254  0.3115 -0.4593 -0.4778
10592TIP3    H253192   3.563   3.358   5.192  0.1038  0.2909  1.1753
10593TIP3   OH253193   5.276   2.656   3.863 -0.3499  0.3002 -0.0067
10593TIP3    H153194   5.290   2.736   3.813  5.4419  0.5115  1.2408
10593TIP3    H253195   5.259   2.686   3.952  2.1003  0.3474  0.5196
10594TIP3   OH253196   1.489   0.058   2.531  0.0958  0.6994 -0.0751
10594TIP3    H153197   1.492   0.104   2.615  0.7017  2.5407 -1.0490
10594TIP3    H253198   1.575   0.074   2.492  0.3811 -1.3958 -0.4471
10595TIP3   OH253199   6.263   6.150  11.770  0.1209 -0.0658  0.4580
10595TIP3    H153200   6.324   6.120  11.837 -0.8521  0.4502  1.6050
10595TIP3    H253201   6.295   6.110  11.689  0.1938 -2.3273  1.5351
10596TIP3   OH253202   5.377   1.428   5.562  0.2648 -0.1368  0.1635
10596TIP3    H153203   5.316   1.479   5.614 -1.0362 -2.0847  0.6455
10596TIP3    H253204   5.441   1.395   5.625  0.1735 -0.4000  0.1202
10597TIP3   OH253205   3.306   1.637  17.035 -0.3628 -0.0534  0.3078
10597TIP3    H153206   3.270   1.575  17.098  1.1212 -0.0035  1.2651
10597TIP3    H253207   3.363   1.584  16.979  1.2263  0.4281  1.3796
10598TIP3   OH253208   3.766   0.849   2.706 -0.3429 -0.1556 -0.2383
10598TIP3    H153209   3.820   0.779   2.744  0.4780  1.4063  1.6372
10598TIP3    H253210   3.814   0.877   2.629  0.8955  0.3337  0.6839
10599TIP3   OH253211   6.105   4.513   2.083 -0.0748 -0.6221 -0.3667
10599TIP3    H153212   6.014   4.488   2.098 -0.7675  1.8777  0.0918
10599TIP3    H253213   6.107   4.607   2.100  2.3933 -0.4161 -1.3723
10600TIP3   OH253214   5.619   1.540   2.332  0.1753 -0.8082  0.5245
10600TIP3    H153215   5.556   1.605   2.364  0.7965  0.0752 -0.0017
10600TIP3    H253216   5.693   1.547   2.392  1.2621  0.7165 -0.9251
10601TIP3   OH253217   5.321   2.408  10.797 -0.1826 -0.4632  0.1107
10601TIP3    H153218   5.257   2.406  10.725 -0.2277 -1.0521  0.1565
10601TIP3    H253219   5.399   2.367  10.760 -0.3856 -1.2786  0.5576
10602TIP3   OH253220   6.506   0.889   4.819 -0.2186  0.1914 -0.2422
10602TIP3    H153221   6.587   0.936   4.801 -0.1061  0.6355  1.3346
10602TIP3    H253222   6.524   0.836   4.896 -0.7546 -1.4773 -1.2004
10603TIP3   OH253223   0.674   2.902  15.029 -0.0425  0.7245 -0.4285
10603TIP3    H153224   0.649   2.941  14.945 -0.4155  0.5987 -0.3769
10603TIP3    H253225   0.702   2.975  15.083  1.4913  0.6725 -1.1090
10604TIP3   OH253226   4.035   4.493   4.520  0.1085 -0.3537  0.1651
10604TIP3    H153227   4.094   4.551   4.569 -1.1987 -0.4545  1.9341
10604TIP3    H253228   4.066   4.405   4.540 -0.9425 -0.4350  1.5884
10605TIP3   OH253229   1.559   1.380  15.135  0.1963  0.5182  0.7890
10605TIP3    H153230   1.528   1.327  15.061 -0.3342 -0.2718  1.5561
10605TIP3    H253231   1.653   1.361  15.140  0.1895  0.3855  0.4813
10606TIP3   OH253232   2.025   5.869   1.767 -0.2790 -0.2066  0.8471
10606TIP3    H153233   2.047   5.954   1.806  1.3638 -0.5905  0.8173
10606TIP3    H253234   1.947   5.841   1.815 -0.7662  1.2432  0.9604
10607TIP3   OH253235   0.057   3.178  10.987 -0.0184 -0.1845 -0.2444
10607TIP3    H153236  -0.023   3.125  10.991 -0.2665 -0.0686 -2.3444
10607TIP3    H253237   0.029   3.267  11.009 -0.3666 -0.2551 -0.4014
10608TIP3   OH253238   5.996   3.582   4.133 -0.0634 -0.2094  0.2739
10608TIP3    H153239   5.936   3.624   4.195  0.0426  0.9253 -0.3728
10608TIP3    H253240   6.014   3.649   4.067  0.8511 -0.9759 -0.2839
10609TIP3   OH253241   5.515   2.666  15.451  0.1303 -0.1150 -0.0884
10609TIP3    H153242   5.598   2.671  15.403 -0.1180 -0.2288 -0.5299
10609TIP3    H253243   5.448   2.691  15.387 -0.3200 -1.3573 -0.1306
10610TIP3   OH253244   2.091   2.656  12.133  0.0561 -0.2402  0.3139
10610TIP3    H153245   2.179   2.646  12.096  0.0252  0.8971 -0.1276
10610TIP3    H253246   2.069   2.570  12.168  1.5421 -0.4190  0.8759
10611TIP3   OH253247   5.841   6.373   2.163 -0.5409 -0.1114  0.3220
10611TIP3    H153248   5.824   6.375   2.069  1.5940  1.0935 -0.1275
10611TIP3    H253249   5.935   6.393   2.170 -0.9770  1.5372  2.7654
10612TIP3   OH253250   0.830   4.079   0.039  0.2204 -0.1616 -0.3559
10612TIP3    H153251   0.802   3.998  -0.002 -2.4589 -0.3783  1.6184
10612TIP3    H253252   0.925   4.070   0.048  0.3881 -1.7380 -2.7802
10613TIP3   OH253253   1.701   3.877   2.989  0.1151  0.2785  0.1126
10613TIP3    H153254   1.644   3.814   3.033 -0.8756  1.3600  0.4266
10613TIP3    H253255   1.727   3.834   2.908  2.1286 -1.8481  1.7513
10614TIP3   OH253256   3.167   4.882   2.485 -0.0795 -0.6605 -0.5521
10614TIP3    H153257   3.104   4.811   2.494 -0.8861  0.1415  0.3096
10614TIP3    H253258   3.147   4.921   2.400 -0.2474 -0.8711 -0.6106
10615TIP3   OH253259   1.597   4.227   0.627 -0.0987 -0.3035  1.0030
10615TIP3    H153260   1.600   4.153   0.567 -0.8132 -0.5339  1.2418
10615TIP3    H253261   1.636   4.193   0.708  1.3631  0.1674  0.5154
10616TIP3   OH253262   5.617   5.073   2.810  0.8155  0.0887  0.3107
10616TIP3    H153263   5.526   5.065   2.782  1.0407  1.3048 -0.8790
10616TIP3    H253264   5.613   5.089   2.904 -0.2689  1.4595  0.0447
10617TIP3   OH253265   1.118   4.527  16.322 -0.7750  0.0097 -0.1654
10617TIP3    H153266   1.133   4.622  16.319 -1.2031  0.0791 -0.1614
10617TIP3    H253267   1.205   4.489  16.329 -0.6035  0.4079 -0.1316
10618TIP3   OH253268   2.713   2.894   6.033 -0.1438  0.1396  0.5683
10618TIP3    H153269   2.641   2.956   6.034 -0.1353  0.1713 -0.1940
10618TIP3    H253270   2.766   2.918   5.956  0.5763  0.0048  1.0090
10619TIP3   OH253271   6.666   0.865  14.147 -0.2565  0.1768 -0.3214
10619TIP3    H153272   6.593   0.923  14.170 -1.4357 -0.4634 -2.2681
10619TIP3    H253273   6.676   0.873  14.052  1.4126 -0.6922 -0.2739
10620TIP3   OH253274   3.335   4.422   5.374 -0.5072 -0.0057  0.2714
10620TIP3    H153275   3.345   4.328   5.358 -0.3684 -0.2226  1.5632
10620TIP3    H253276   3.419   4.460   5.345  0.9027 -0.7520  3.0322
10621TIP3   OH253277   1.226   3.992  14.761  0.0566 -0.0922  0.0617
10621TIP3    H153278   1.159   4.047  14.804 -0.2521 -0.4082 -0.0089
10621TIP3    H253279   1.304   4.002  14.816 -0.2690 -0.3100  0.5734
10622TIP3   OH253280   0.309   3.500  16.511  0.4510  0.6677  0.7924
10622TIP3    H153281   0.241   3.541  16.563 -0.8060  0.4573 -0.5994
10622TIP3    H253282   0.298   3.406  16.527 -1.6097  0.3857 -1.6337
10623TIP3   OH253283   4.770   6.153  11.052  0.0783  0.6479  0.7643
10623TIP3    H153284   4.806   6.136  10.965 -2.3157  0.9057 -0.3808
10623TIP3    H253285   4.831   6.215  11.092  2.0204 -0.6243 -0.1147
10624TIP3   OH253286   2.918   2.059   3.329  0.2389  0.3739 -0.3492
10624TIP3    H153287   2.895   2.147   3.298  1.4660  0.6121 -0.6375
10624TIP3    H253288   2.940   2.072   3.422  1.3396  0.5641 -0.6206
10625TIP3   OH253289   3.995   5.753  11.419 -0.1291 -0.1677 -0.1521
10625TIP3    H153290   4.021   5.798  11.500  3.1217  1.3269 -1.8038
10625TIP3    H253291   4.021   5.814  11.350 -1.7239 -1.8710 -2.3696
10626TIP3   OH253292   6.675   6.405   3.608 -0.5606  0.3895  0.0013
10626TIP3    H153293   6.640   6.489   3.637  0.7786  0.3609  1.8910
10626TIP3    H253294   6.752   6.427   3.555 -0.3650  0.3675  0.2742
10627TIP3   OH253295   0.328   2.722  14.357  0.6896  0.2058 -0.1403
10627TIP3    H153296   0.347   2.765  14.440  1.7097  0.2746 -0.3991
10627TIP3    H253297   0.381   2.643  14.358 -1.0410 -1.0087  0.2548
10628TIP3   OH253298   1.003   4.826  15.421  0.3501 -0.4423 -0.4916
10628TIP3    H153299   0.964   4.874  15.494 -1.0447 -0.5046 -1.1608
10628TIP3    H253300   0.928   4.787  15.375  1.2917 -1.4279 -1.2379
10629TIP3   OH253301   4.296   2.910  10.881 -0.1017 -0.5985 -0.1532
10629TIP3    H153302   4.305   2.918  10.786 -0.8009 -1.2663 -0.2872
10629TIP3    H253303   4.359   2.842  10.905  1.0020  0.4574  0.0574
10630TIP3   OH253304   2.720   0.624   5.068  0.2151  0.9910  0.5147
10630TIP3    H153305   2.643   0.658   5.114  0.2257 -0.1954  1.4613
10630TIP3    H253306   2.702   0.639   4.976 -0.9571  1.1471  0.7566
10631TIP3   OH253307   6.147   5.536   1.974  0.2835  0.5795  0.1391
10631TIP3    H153308   6.178   5.544   1.883  0.4324  1.9844  0.2892
10631TIP3    H253309   6.065   5.586   1.976  1.6280  2.9127  1.3592
10632TIP3   OH253310   2.161   5.928   4.194  0.7965 -0.1070 -0.1792
10632TIP3    H153311   2.107   5.995   4.235 -0.2959  0.7730 -2.8711
10632TIP3    H253312   2.133   5.846   4.237 -1.7971  0.4849 -0.5807
10633TIP3   OH253313   1.569   3.712   5.483 -0.0648  0.4575 -0.0387
10633TIP3    H153314   1.607   3.720   5.571  1.1311 -0.0234 -0.4900
10633TIP3    H253315   1.497   3.775   5.483  0.7062  1.3925  0.8799
10634TIP3   OH253316   6.282   1.334  16.856  0.0720 -0.1931  0.3191
10634TIP3    H153317   6.258   1.269  16.789 -0.6548 -0.0511  0.4283
10634TIP3    H253318   6.260   1.291  16.939  0.4231 -0.1450  0.4390
10635TIP3   OH253319   0.875   3.722  11.940 -0.2723 -0.1380 -0.4319
10635TIP3    H153320   0.824   3.768  11.873 -2.0592 -0.8318  0.3722
10635TIP3    H253321   0.889   3.635  11.903 -1.1224 -0.4708  0.0086
10636TIP3   OH253322   4.723   1.684  14.065 -0.1603  0.6348 -0.1449
10636TIP3    H153323   4.781   1.720  13.998  0.9313 -0.8338 -0.0417
10636TIP3    H253324   4.705   1.758  14.124  2.9724  0.8261  0.7597
10637TIP3   OH253325   6.246   1.665  15.780  0.1036  0.2940  0.1678
10637TIP3    H153326   6.205   1.643  15.864  1.5693 -0.3999  0.7513
10637TIP3    H253327   6.311   1.731  15.803  0.0128  0.6370 -0.5565
10638TIP3   OH253328   4.539   3.968  13.780  0.0677  0.5463  0.0581
10638TIP3    H153329   4.531   3.985  13.874  3.3693  2.4127  0.1433
10638TIP3    H253330   4.547   4.055  13.741  1.4955 -0.2740 -1.6018
10639TIP3   OH253331   3.479   3.676  16.547  0.3717 -0.2118  0.1850
10639TIP3    H153332   3.483   3.637  16.460 -0.8035  1.0762 -0.4829
10639TIP3    H253333   3.568   3.668  16.581  0.7177 -1.2131 -0.8971
10640TIP3   OH253334   4.987   4.757  16.031 -0.5897 -0.0420 -0.0534
10640TIP3    H153335   4.994   4.744  16.126 -0.9071  1.0320  0.1375
10640TIP3    H253336   4.907   4.710  16.007  0.4417 -1.8671 -0.1353
10641TIP3   OH253337   4.509   2.085  12.842  0.5015  0.9301  0.2656
10641TIP3    H153338   4.530   2.130  12.760  1.2142  0.5434  0.2325
10641TIP3    H253339   4.572   2.119  12.905 -0.1199  1.3149  0.6938
10642TIP3   OH253340   6.153   1.667  12.780  0.0567 -0.3592  0.7044
10642TIP3    H153341   6.068   1.629  12.801  0.5552 -0.9812  1.7352
10642TIP3    H253342   6.136   1.759  12.764 -1.2232 -0.9622 -1.9779
10643TIP3   OH253343   6.793   2.714   2.824  0.5036  0.6736  0.1530
10643TIP3    H153344   6.727   2.739   2.889  1.2274 -1.4833  1.8212
10643TIP3    H253345   6.749   2.729   2.740 -2.2482 -0.8283  1.1782
10644TIP3   OH253346   3.111   5.711   3.324 -0.1308 -0.1217 -1.4941
10644TIP3    H153347   3.023   5.741   3.304 -0.3798  0.3815  0.1443
10644TIP3    H253348   3.099   5.621   3.354  0.1896 -0.7532 -3.1961
10645TIP3   OH253349   2.984   5.367  13.228 -0.1945  0.6958  0.5953
10645TIP3    H153350   3.030   5.335  13.151 -1.2511  0.2058  0.1529
10645TIP3    H253351   3.018   5.312  13.300  0.2020  0.6115  0.3478
10646TIP3   OH253352   6.611   1.260   3.128 -0.4496  0.4363 -0.3939
10646TIP3    H153353   6.657   1.180   3.103  0.5821  0.6713  0.7074
10646TIP3    H253354   6.675   1.330   3.115 -1.1543  1.0298 -0.7740
10647TIP3   OH253355   0.863   2.051   1.655 -0.4504 -0.0948 -0.3399
10647TIP3    H153356   0.792   2.041   1.718 -0.9980  0.4334 -0.8613
10647TIP3    H253357   0.937   2.085   1.706 -0.7754 -0.0108  0.0768
10648TIP3   OH253358   6.707   6.168  16.176 -0.6265 -0.0201  0.0753
10648TIP3    H153359   6.771   6.133  16.237 -1.4559  0.1518  1.0609
10648TIP3    H253360   6.759   6.219  16.114  0.2102 -0.1176  0.6795
10649TIP3   OH253361   2.424   2.350  12.249  0.1202  0.0476  0.4440
10649TIP3    H153362   2.369   2.395  12.186 -0.8851 -0.3817  1.0031
10649TIP3    H253363   2.482   2.295  12.196 -0.6706 -0.2631 -0.1168
10650TIP3   OH253364   6.503   5.202  13.171  0.9225  0.4496  0.0753
10650TIP3    H153365   6.476   5.120  13.213  0.1332  0.6950  0.0679
10650TIP3    H253366   6.497   5.267  13.240 -0.4750  0.8737 -0.4085
10651TIP3   OH253367   4.516   1.971   6.417  0.0725 -0.2783 -0.2609
10651TIP3    H153368   4.557   2.036   6.475  1.5671 -0.5969 -0.9382
10651TIP3    H253369   4.588   1.933   6.368 -0.7386 -2.6136  0.2360
10652TIP3   OH253370   0.561   6.626   6.087  0.4493  0.3568  0.7657
10652TIP3    H153371   0.606   6.543   6.074 -0.3148 -0.0225  0.5099
10652TIP3    H253372   0.628   6.684   6.125  0.4481 -0.9645  2.9761
10653TIP3   OH253373   2.606   1.275  14.844 -0.1280  0.2236  0.1551
10653TIP3    H153374   2.568   1.187  14.849 -0.5087  0.4410  2.5207
10653TIP3    H253375   2.700   1.261  14.856 -0.1163  0.1095 -0.0565
10654TIP3   OH253376   3.993   4.622  15.539 -0.4412 -0.3747  0.0697
10654TIP3    H153377   3.953   4.554  15.485  0.5726 -0.4251 -0.6466
10654TIP3    H253378   3.980   4.592  15.629 -0.8100 -1.0609 -0.2069
10655TIP3   OH253379   2.616   5.821   5.246  0.3502  0.0113  0.3282
10655TIP3    H153380   2.561   5.895   5.222  1.3768  0.5291 -0.5020
10655TIP3    H253381   2.705   5.858   5.251  0.3963 -0.2634  3.9439
10656TIP3   OH253382   0.223   0.502   6.081  0.0917 -0.3718  0.2340
10656TIP3    H153383   0.255   0.420   6.118  0.1323 -0.8187 -0.7754
10656TIP3    H253384   0.177   0.544   6.154  1.1499 -0.6871  1.1231
10657TIP3   OH253385   3.561   4.411  12.931 -0.0343  0.3406 -0.2564
10657TIP3    H153386   3.534   4.453  13.013 -0.3278 -1.0423  0.3687
10657TIP3    H253387   3.592   4.484  12.877 -3.9341  1.9903 -0.6201
10658TIP3   OH253388   1.082   4.635   1.334  0.3494  0.4307  0.5905
10658TIP3    H153389   1.004   4.677   1.372 -1.7444 -1.3915 -1.3720
10658TIP3    H253390   1.070   4.542   1.352  3.8541  0.2645  3.0707
10659TIP3   OH253391   1.183   4.128   3.600 -0.0890  0.4306  0.4381
10659TIP3    H153392   1.103   4.078   3.585  0.2996 -0.1064  0.0820
10659TIP3    H253393   1.193   4.133   3.695 -0.7347  0.8201  0.4879
10660TIP3   OH253394   2.947   4.182  12.032 -0.2760  0.4382 -0.5306
10660TIP3    H153395   3.036   4.215  12.048 -0.6579  0.0026  3.3330
10660TIP3    H253396   2.960   4.093  11.998  0.8868 -0.3787  1.8334
10661TIP3   OH253397   0.910   2.555  12.352 -0.5892 -0.3368  0.4157
10661TIP3    H153398   0.863   2.472  12.359  0.3770 -0.9683 -0.2202
10661TIP3    H253399   0.933   2.577  12.443 -2.1108  0.0096  0.7343
10662TIP3   OH253400   1.721   1.533  13.497  0.0794  0.2370 -0.5549
10662TIP3    H153401   1.718   1.567  13.408  0.7585 -1.1808 -1.1406
10662TIP3    H253402   1.773   1.598  13.545  1.0792  0.2211 -1.5660
10663TIP3   OH253403   4.408   1.715   1.224 -0.0877  0.1255  0.2503
10663TIP3    H153404   4.329   1.720   1.170 -0.4672 -1.6113  0.5835
10663TIP3    H253405   4.379   1.742   1.312 -0.9623 -2.6850  0.9375
10664TIP3   OH253406   1.512   5.703  13.871 -0.7728  0.3671  0.2539
10664TIP3    H153407   1.487   5.783  13.824 -0.1659  3.2114  4.2079
10664TIP3    H253408   1.429   5.656  13.884 -1.0516 -0.1668 -2.7006
10665TIP3   OH253409   5.430   0.024  15.925 -0.1541 -0.7977  0.3953
10665TIP3    H153410   5.418  -0.025  16.006  0.5650 -0.9440  0.4140
10665TIP3    H253411   5.355   0.084  15.922  0.1697 -0.3230  1.5029
10666TIP3   OH253412   2.393   5.547  11.554 -0.5521 -0.5114  0.7624
10666TIP3    H153413   2.327   5.599  11.509 -1.1983  0.5048  2.7674
10666TIP3    H253414   2.354   5.460  11.563 -0.9843 -0.3314  0.6172
10667TIP3   OH253415   4.226   1.220   1.533 -0.4021 -0.2817 -0.2204
10667TIP3    H153416   4.179   1.142   1.503  1.1680 -1.6072  0.5838
10667TIP3    H253417   4.318   1.203   1.510 -0.0010  1.2468  0.1365
10668TIP3   OH253418   1.219   6.621  10.806  0.5319 -0.6434 -0.2391
10668TIP3    H153419   1.294   6.644  10.862  1.1972 -1.0612 -0.9390
10668TIP3    H253420   1.169   6.702  10.799  2.0899  0.2501 -1.5303
10669TIP3   OH253421   2.359   5.853   3.324  0.0316  0.5354 -0.9372
10669TIP3    H153422   2.369   5.905   3.244 -1.3750 -0.3774 -1.7450
10669TIP3    H253423   2.279   5.803   3.310  1.0170 -1.4464  0.0239
10670TIP3   OH253424   1.537   4.197   5.682  0.0915 -0.1545 -0.4047
10670TIP3    H153425   1.621   4.211   5.726 -0.3669 -0.1768  0.5198
10670TIP3    H253426   1.557   4.199   5.589  1.0890  0.0011 -0.1950
10671TIP3   OH253427   4.685   6.268   1.865  0.9101  0.3808  0.2452
10671TIP3    H153428   4.735   6.236   1.940  0.6207 -0.4604  0.0880
10671TIP3    H253429   4.667   6.190   1.813  1.4099  0.9920 -0.8910
10672TIP3   OH253430   2.269   5.872  16.191 -0.4099  0.4064 -0.3789
10672TIP3    H153431   2.351   5.899  16.151 -0.6127  0.7320 -0.5787
10672TIP3    H253432   2.241   5.797  16.138  0.5511 -0.7267  0.6663
10673TIP3   OH253433   0.553   4.274  13.864  0.1038  0.1548  0.0346
10673TIP3    H153434   0.592   4.361  13.877 -1.5679  0.6352  2.6305
10673TIP3    H253435   0.461   4.285  13.889 -0.5530 -2.0058 -1.2204
10674TIP3   OH253436   1.993   5.202   2.586 -0.1773  0.2702  0.8307
10674TIP3    H153437   2.040   5.283   2.567  0.5836 -0.3791 -0.1832
10674TIP3    H253438   1.905   5.216   2.552  0.4616  0.0395 -0.9949
10675TIP3   OH253439   5.271   3.995  11.847  0.5140 -0.2772  0.1135
10675TIP3    H153440   5.337   3.927  11.854 -0.6745 -1.4313  0.5707
10675TIP3    H253441   5.189   3.952  11.870 -0.3980  1.1278 -0.3222
10676TIP3   OH253442   0.220   3.472  11.389  0.3588 -0.0189 -0.7017
10676TIP3    H153443   0.205   3.524  11.310  0.6665 -0.2804 -0.9372
10676TIP3    H253444   0.132   3.452  11.422  0.2439  0.9474 -0.4060
10677TIP3   OH253445   3.654   3.029   2.733  0.8687  0.5737 -0.2353
10677TIP3    H153446   3.661   2.934   2.726 -0.5503  0.4752 -0.6999
10677TIP3    H253447   3.592   3.044   2.805 -2.1926  0.9675 -2.7586
10678TIP3   OH253448   5.411   6.579   4.421 -0.7050 -0.5355 -0.4928
10678TIP3    H153449   5.467   6.639   4.372 -2.1963  0.9288 -0.4930
10678TIP3    H253450   5.375   6.520   4.354  1.4997 -2.1423 -0.3747
10679TIP3   OH253451   3.160   6.419  16.873 -0.0848  0.1662  0.2087
10679TIP3    H153452   3.254   6.402  16.865  0.0199  1.0647 -0.7127
10679TIP3    H253453   3.134   6.448  16.785 -1.1478  0.2638  0.5506
10680TIP3   OH253454   6.691   5.419  11.239 -0.8625  0.2988 -0.1863
10680TIP3    H153455   6.733   5.451  11.160  0.3301  0.8758  0.6477
10680TIP3    H253456   6.646   5.339  11.212 -0.3341  0.3944 -1.3929
10681TIP3   OH253457   3.632   6.434  16.276  0.0446  0.4191 -0.0827
10681TIP3    H153458   3.544   6.395  16.278  0.2953 -0.1255  1.3573
10681TIP3    H253459   3.618   6.523  16.246 -1.1213  0.6195  0.9737
10682TIP3   OH253460   1.463   1.170   0.495 -0.5245  0.0648  0.2953
10682TIP3    H153461   1.522   1.217   0.554 -0.4404 -0.0879  0.3324
10682TIP3    H253462   1.472   1.216   0.411  2.1420 -1.9032 -0.6278
10683TIP3   OH253463   5.517   4.190   0.059  0.7087  0.6165 -0.3403
10683TIP3    H153464   5.490   4.124   0.123  0.3582  0.9871 -0.1061
10683TIP3    H253465   5.577   4.247   0.107  3.5966 -1.3347 -1.3399
10684TIP3   OH253466   3.287   2.852   5.716 -0.0704 -0.1894  0.5303
10684TIP3    H153467   3.300   2.788   5.646  0.9196  1.8469 -1.2668
10684TIP3    H253468   3.375   2.884   5.736 -0.6554  1.8266  0.1146
10685TIP3   OH253469   2.277   2.942   0.042  0.6697 -0.0105 -0.9359
10685TIP3    H153470   2.371   2.944   0.025  0.9392 -1.7408  0.0841
10685TIP3    H253471   2.264   3.001   0.116  1.2070 -0.9275 -0.0975
10686TIP3   OH253472   1.230   1.682  15.703  0.2291 -0.2515 -0.1918
10686TIP3    H153473   1.291   1.621  15.660 -1.5445 -0.6720 -2.3063
10686TIP3    H253474   1.173   1.712  15.632 -2.1726 -0.0623  1.6998
10687TIP3   OH253475   4.407   4.523  13.340 -0.3765  0.2363  0.2701
10687TIP3    H153476   4.473   4.454  13.337 -1.8529 -1.2517  0.5705
10687TIP3    H253477   4.418   4.562  13.426 -0.4259 -0.5698  0.6527
10688TIP3   OH253478   5.208   6.627   2.602  0.0456 -0.0947  0.0484
10688TIP3    H153479   5.269   6.623   2.675  0.9765 -1.2044 -0.7436
10688TIP3    H253480   5.264   6.628   2.524 -0.9289  0.5301 -0.6719
10689TIP3   OH253481   6.108   3.980  16.831  0.1694  0.1530  0.6252
10689TIP3    H153482   6.167   3.925  16.882 -0.0751  1.1050  1.9653
10689TIP3    H253483   6.089   3.928  16.753  0.7217 -1.2411  1.3934
10690TIP3   OH253484   4.908   2.712   5.078  0.2884 -0.0327 -0.5731
10690TIP3    H153485   4.907   2.782   5.143  0.6339 -0.5696  0.0170
10690TIP3    H253486   4.894   2.757   4.995  2.4909  1.0216 -0.4654
10691TIP3   OH253487   6.474   5.864  10.949 -0.4644  0.2992  1.2292
10691TIP3    H153488   6.507   5.794  10.892 -1.0234  0.0753  1.1688
10691TIP3    H253489   6.480   5.943  10.896 -2.6497 -0.1743  0.1651
10692TIP3   OH253490   2.477   2.402   1.276 -0.2828  0.2841 -0.4109
10692TIP3    H153491   2.425   2.413   1.356 -0.2563  1.1715 -0.5002
10692TIP3    H253492   2.521   2.486   1.265 -0.6343  0.3281 -1.6020
10693TIP3   OH253493   3.845   3.171   5.807  0.8965  0.5658 -0.1203
10693TIP3    H153494   3.772   3.232   5.798 -0.8000 -1.0320  1.8601
10693TIP3    H253495   3.899   3.207   5.877  0.0068 -0.0662  0.9068
10694TIP3   OH253496   0.594   2.234   1.948  0.2883 -0.6242  0.0407
10694TIP3    H153497   0.682   2.244   1.986  0.1514 -2.4206  0.9486
10694TIP3    H253498   0.601   2.159   1.890 -0.7559 -1.1582  0.5624
10695TIP3   OH253499   2.084   2.693   0.247 -0.3226  0.3162  0.5255
10695TIP3    H153500   2.118   2.617   0.293  1.2794  2.2336  2.6945
10695TIP3    H253501   2.149   2.711   0.179 -0.8893 -0.4069 -0.2341
10696TIP3   OH253502   5.014   4.854   5.602 -0.3818 -0.3489  0.1592
10696TIP3    H153503   4.942   4.901   5.643  0.0334  1.4171 -1.0707
10696TIP3    H253504   5.071   4.831   5.676  0.5878  3.1758  0.6853
10697TIP3   OH253505   1.248   3.938  11.485 -0.2489 -0.3120 -0.1533
10697TIP3    H153506   1.227   4.028  11.460  1.3838  0.5594  1.3389
10697TIP3    H253507   1.165   3.890  11.477 -0.9791  1.1387 -1.6833
10698TIP3   OH253508   5.548   1.224   4.893 -0.1905 -0.1410  0.2581
10698TIP3    H153509   5.569   1.291   4.959 -0.8479  0.6809 -0.3398
10698TIP3    H253510   5.535   1.144   4.944  2.6858 -0.3539  0.8055
10699TIP3   OH253511   0.875   6.687  11.609 -0.2267 -0.2164  0.1486
10699TIP3    H153512   0.927   6.739  11.548 -0.2880  2.6478  2.3401
10699TIP3    H253513   0.785   6.717  11.597 -0.2661  0.2532  1.4368
10700TIP3   OH253514   4.656   5.193  10.949 -0.3671 -0.5266 -0.1140
10700TIP3    H153515   4.639   5.102  10.924 -0.7764 -1.1264  2.1786
10700TIP3    H253516   4.606   5.244  10.884 -0.3393 -1.9101 -1.2862
10701TIP3   OH253517   6.412   0.264   0.159  0.0554 -0.1030  0.7574
10701TIP3    H153518   6.358   0.341   0.175  2.9159  2.0070  0.9468
10701TIP3    H253519   6.394   0.241   0.068 -0.5873  1.0210  0.5817
10702TIP3   OH253520   0.561   1.098   2.864  0.3198  0.5598  0.3732
10702TIP3    H153521   0.509   1.164   2.817  1.5641  0.4456 -1.2685
10702TIP3    H253522   0.579   1.031   2.798 -0.6227 -1.3107  1.9046
10703TIP3   OH253523   4.197   4.927  12.794  1.0251  0.1624 -0.7188
10703TIP3    H153524   4.145   4.848  12.778  0.5811  0.5731 -1.3773
10703TIP3    H253525   4.145   4.998  12.756  1.7639  0.6725 -0.8018
10704TIP3   OH253526   2.710   2.839  12.769 -0.5228  0.0606 -0.6613
10704TIP3    H153527   2.623   2.873  12.789 -0.3787 -0.1696  0.3990
10704TIP3    H253528   2.695   2.774  12.701 -1.3023 -0.6273  0.1490
10705TIP3   OH253529   0.792   0.340  12.178  0.5460  0.8693  0.3760
10705TIP3    H153530   0.832   0.290  12.250 -0.3105 -0.6103 -0.1357
10705TIP3    H253531   0.774   0.426  12.216  0.6668  0.3135  1.7590
10706TIP3   OH253532   2.570   6.196  11.980  0.4385 -0.3733  0.6565
10706TIP3    H153533   2.611   6.127  11.927  0.2536  0.0967 -0.1163
10706TIP3    H253534   2.619   6.275  11.957  0.2332 -0.1286  1.0579
10707TIP3   OH253535   5.368   5.428   5.793 -0.3342  0.0054  0.6648
10707TIP3    H153536   5.428   5.354   5.783 -0.2388  0.2048 -0.4095
10707TIP3    H253537   5.320   5.431   5.710 -0.6175  0.9016  0.8498
10708TIP3   OH253538   2.158   1.642  13.573 -0.3797 -0.4002  0.2287
10708TIP3    H153539   2.176   1.555  13.608 -0.4238  0.3985  2.4108
10708TIP3    H253540   2.244   1.683  13.565 -0.4189 -0.3563  0.0380
10709TIP3   OH253541   2.947   0.430  16.891  0.7794 -0.2211  0.0616
10709TIP3    H153542   2.894   0.481  16.830 -2.7522 -1.9910  1.3544
10709TIP3    H253543   2.979   0.356  16.840 -0.6368 -0.7468 -0.0830
10710TIP3   OH253544   4.815   5.698  13.988  0.3361 -0.1422 -0.0117
10710TIP3    H153545   4.882   5.721  14.051 -0.2673  0.0802  0.5609
10710TIP3    H253546   4.764   5.778  13.977  0.8742  0.0407 -1.3451
10711TIP3   OH253547   4.555   6.241  13.485  0.0171 -0.7272 -0.2551
10711TIP3    H153548   4.562   6.228  13.390  0.9264  1.2263 -0.4946
10711TIP3    H253549   4.640   6.215  13.519  1.6864  3.4721 -0.6832
10712TIP3   OH253550   4.799   4.198  14.591  0.3583 -0.6611  0.3634
10712TIP3    H153551   4.722   4.179  14.645  1.1394 -3.1113  0.7317
10712TIP3    H253552   4.771   4.176  14.502  1.6350 -5.5933  0.9154
10713TIP3   OH253553   0.004   5.658   3.752 -0.0685 -0.2846 -0.2488
10713TIP3    H153554  -0.055   5.690   3.684 -3.3408 -2.8470  1.1306
10713TIP3    H253555   0.029   5.570   3.724  1.6528  0.0308  0.1433
10714TIP3   OH253556   0.071   0.960   5.186  0.5355 -0.2376 -0.3888
10714TIP3    H153557   0.045   0.945   5.276 -2.9949 -1.2309 -1.4066
10714TIP3    H253558   0.026   1.041   5.161  1.4585  0.0269 -1.2607
10715TIP3   OH253559   0.964   2.278   2.418 -0.5328 -0.0747  0.1597
10715TIP3    H153560   1.008   2.334   2.354 -0.0723  0.7194  1.1533
10715TIP3    H253561   0.895   2.333   2.454 -1.6057 -0.9278 -0.5269
10716TIP3   OH253562   6.665   2.370  13.402 -0.5509 -0.2087  0.2718
10716TIP3    H153563   6.619   2.303  13.352  0.3056 -0.5308 -0.1082
10716TIP3    H253564   6.713   2.322  13.470 -0.9457  0.1405  0.8103
10717TIP3   OH253565   4.101   4.810  15.367  0.1293 -0.2196  0.4269
10717TIP3    H153566   4.189   4.844  15.384  0.3363 -0.4921 -0.0718
10717TIP3    H253567   4.094   4.732  15.421  0.2567 -0.2956  0.3323
10718TIP3   OH253568   2.222   2.512  14.531  0.5440  0.5759  0.4659
10718TIP3    H153569   2.227   2.562  14.613  0.1032  1.4766 -0.0454
10718TIP3    H253570   2.251   2.573  14.464 -0.3268  0.2544 -0.2197
10719TIP3   OH253571   2.788   3.211  14.938 -0.8133 -0.1580  0.2828
10719TIP3    H153572   2.837   3.199  15.019 -1.0008  0.7345  0.5427
10719TIP3    H253573   2.832   3.154  14.875  0.0233 -0.0283  0.7318
10720TIP3   OH253574   6.583   5.628   1.866 -0.1267 -0.6138  0.6062
10720TIP3    H153575   6.508   5.626   1.926 -1.8914 -0.1326 -1.4828
10720TIP3    H253576   6.650   5.677   1.914 -1.6997  0.3487  1.9392
10721TIP3   OH253577   5.103   0.697   5.492  0.0476 -0.0583 -0.0903
10721TIP3    H153578   5.082   0.782   5.453 -2.0375 -0.3803  0.2100
10721TIP3    H253579   5.075   0.633   5.426  0.0937 -0.5401  0.3554
10722TIP3   OH253580   6.780   6.472  14.009  0.0023  0.3792  0.1171
10722TIP3    H153581   6.858   6.460  13.955 -0.1450  0.1620 -0.0530
10722TIP3    H253582   6.760   6.565  14.002  0.9867  0.6911  1.2060
10723TIP3   OH253583   0.502   1.839  15.544 -0.1428  0.0223  0.2317
10723TIP3    H153584   0.579   1.815  15.596 -0.9310  0.0331  1.4306
10723TIP3    H253585   0.526   1.924  15.505  1.4424 -1.1544 -1.5388
10724TIP3   OH253586   6.428   5.899   3.530 -0.6073 -0.3019 -0.3995
10724TIP3    H153587   6.476   5.834   3.480 -0.9121 -1.1547  0.3876
10724TIP3    H253588   6.441   5.981   3.482  3.4852  0.0419  0.8577
10725TIP3   OH253589   5.759   3.382  14.270  0.5196 -0.2237  0.9861
10725TIP3    H153590   5.801   3.375  14.184 -0.5905  1.2292  0.2851
10725TIP3    H253591   5.833   3.387  14.332  1.3391 -0.6729  0.0745
10726TIP3   OH253592   3.075   3.945   4.129  0.0053 -0.1442  0.2813
10726TIP3    H153593   3.060   4.040   4.137  0.0976 -0.0531 -0.4723
10726TIP3    H253594   3.100   3.917   4.216 -0.9393  0.3593  0.7340
10727TIP3   OH253595   2.115   5.566  12.146 -0.7676  0.6199  0.1408
10727TIP3    H153596   2.109   5.602  12.235  0.7811  0.1241  0.4745
10727TIP3    H253597   2.024   5.549  12.121 -1.1708 -1.4704  2.5746
10728TIP3   OH253598   2.802   5.599   5.799 -0.2827  0.6942 -0.4681
10728TIP3    H153599   2.804   5.600   5.895 -0.0497 -2.9619 -0.2951
10728TIP3    H253600   2.868   5.664   5.774  1.0028  0.4516  1.9145
10729TIP3   OH253601   1.212   3.177   2.501  0.0643 -0.1968  0.6660
10729TIP3    H153602   1.221   3.269   2.474  0.1757 -0.2007  0.6911
10729TIP3    H253603   1.208   3.180   2.596  2.3670 -0.4014  0.8211
10730TIP3   OH253604   0.565   6.769   1.652 -0.8296 -0.5271  0.3109
10730TIP3    H153605   0.500   6.772   1.581 -1.1267  0.5324  0.6084
10730TIP3    H253606   0.514   6.774   1.732 -0.3473  2.8777  0.5372
10731TIP3   OH253607   2.060   1.630  14.644 -0.5976  0.4899  0.3574
10731TIP3    H153608   2.011   1.708  14.672 -0.3076  1.0582 -0.6812
10731TIP3    H253609   2.098   1.655  14.560 -0.1884 -0.6545  0.1962
10732TIP3   OH253610   2.340   5.259   2.200  0.0300 -0.0873 -0.2250
10732TIP3    H153611   2.412   5.307   2.159 -1.3501 -0.1837 -3.0243
10732TIP3    H253612   2.262   5.291   2.156 -1.5012 -1.1678  1.5578
10733TIP3   OH253613   1.245   2.021  16.785  0.1119 -0.1962  0.0492
10733TIP3    H153614   1.260   2.099  16.838 -0.0897 -0.7344  0.9338
10733TIP3    H253615   1.177   2.046  16.724  0.7121  0.6003 -0.3182
10734TIP3   OH253616   0.780   2.012   0.898 -0.3114 -0.6715 -0.1473
10734TIP3    H153617   0.728   1.932   0.906  1.6327 -2.0965 -1.0536
10734TIP3    H253618   0.864   1.983   0.863  1.6255  1.3450  2.4483
10735TIP3   OH253619   4.968   0.553  13.255 -0.7389  0.2074 -0.0995
10735TIP3    H153620   4.960   0.640  13.294  1.3612  1.1584 -1.6126
10735TIP3    H253621   4.994   0.497  13.328 -2.5895  0.6762  1.0038
10736TIP3   OH253622   6.168   5.501  14.253 -0.0771  0.0393  0.3059
10736TIP3    H153623   6.194   5.586  14.289  0.3986  0.6402 -1.3742
10736TIP3    H253624   6.074   5.508  14.239 -0.4114 -0.4689  2.0426
10737TIP3   OH253625   2.632   3.691  12.140  0.2380 -0.1589  0.4235
10737TIP3    H153626   2.714   3.740  12.143  0.4380 -0.5083  0.7423
10737TIP3    H253627   2.570   3.746  12.189  0.2230  0.2010  0.0092
10738TIP3   OH253628   1.029   5.943  16.894  0.1339 -0.1102 -0.8613
10738TIP3    H153629   0.953   5.886  16.880 -0.5514  0.4151  0.4814
10738TIP3    H253630   1.094   5.888  16.936  0.2716 -0.4129 -1.4675
10739TIP3   OH253631   0.213   4.353   1.297 -0.7066  0.1616 -0.3846
10739TIP3    H153632   0.295   4.325   1.338 -0.2372  1.8798 -0.0752
10739TIP3    H253633   0.208   4.303   1.216  0.0233 -0.8516  0.1706
10740TIP3   OH253634   4.940   6.068   1.467 -0.0607 -0.1956  0.0672
10740TIP3    H153635   4.897   5.987   1.497 -0.7137  0.0398 -0.2181
10740TIP3    H253636   5.017   6.037   1.420 -1.8461 -0.8592 -2.6798
10741TIP3   OH253637   3.335   5.242   5.695 -0.1375  0.8208  0.3534
10741TIP3    H153638   3.312   5.157   5.732 -0.4646  1.2750  1.2232
10741TIP3    H253639   3.286   5.246   5.612 -1.6991  0.9651  1.2443
10742TIP3   OH253640   3.889   1.491   1.446  0.1697 -0.1571  0.4246
10742TIP3    H153641   3.943   1.560   1.484  0.1076  0.0324  0.1706
10742TIP3    H253642   3.917   1.412   1.492  0.0549  0.0744  0.9035
10743TIP3   OH253643   0.901   3.949   4.762  0.3822 -0.2119 -0.1900
10743TIP3    H153644   0.818   3.902   4.751  0.9332 -0.6212 -4.1128
10743TIP3    H253645   0.880   4.040   4.741  0.6577 -0.0126  0.3706
10744TIP3   OH253646   4.701   4.288   1.148  0.0003 -0.3620  0.3688
10744TIP3    H153647   4.764   4.244   1.092  0.1907  0.5420 -0.1344
10744TIP3    H253648   4.672   4.220   1.209  1.0911 -0.9098  0.3005
10745TIP3   OH253649   4.649   5.551   3.332  0.0569 -0.1711 -0.6043
10745TIP3    H153650   4.728   5.533   3.281  0.3420 -0.5036 -0.0533
10745TIP3    H253651   4.644   5.480   3.395 -0.4464  0.0847 -0.3466
10746TIP3   OH253652   1.597   0.868  15.713 -0.1728 -0.2128  0.1135
10746TIP3    H153653   1.552   0.837  15.634 -1.8503 -2.6442  1.8674
10746TIP3    H253654   1.657   0.796  15.736 -0.1103  0.2038  1.3276
10747TIP3   OH253655   6.613   2.367   3.910  0.0522 -0.2070 -0.1754
10747TIP3    H153656   6.661   2.399   3.986 -0.0664 -0.9836  0.2459
10747TIP3    H253657   6.674   2.306   3.867  0.4290  0.8453 -1.1904
10748TIP3   OH253658   0.070   4.742   6.024  0.3336 -0.4997 -0.1950
10748TIP3    H153659   0.088   4.708   5.936 -1.6522  0.0113 -0.8426
10748TIP3    H253660  -0.025   4.742   6.031  0.4374 -1.2442  2.2706
10749TIP3   OH253661   5.982   1.921  13.307  0.3038  0.7815 -0.5864
10749TIP3    H153662   6.017   1.950  13.391 -1.5004  1.2988  0.0235
10749TIP3    H253663   6.005   1.828  13.303  0.3571  0.7318  0.5251
10750TIP3   OH253664   5.915   2.592   2.538 -0.4916 -0.0466 -0.1151
10750TIP3    H153665   5.880   2.636   2.461 -0.8899 -2.3467 -1.3362
10750TIP3    H253666   5.991   2.544   2.506  0.3636  0.2975  1.3174
10751TIP3   OH253667   2.049   1.093   2.567  0.1651 -0.1469 -0.0161
10751TIP3    H153668   2.024   1.064   2.480  1.7761  0.8137 -0.8439
10751TIP3    H253669   2.107   1.167   2.552  0.6292 -0.0731  1.8678
10752TIP3   OH253670   4.543   3.695   0.707 -0.6707 -0.2353 -0.1409
10752TIP3    H153671   4.506   3.690   0.795  1.9107  1.3177  1.1809
10752TIP3    H253672   4.539   3.606   0.673 -0.7618 -1.1007  2.0150
10753TIP3   OH253673   4.779   1.944  10.784  0.3882  0.3351 -0.6530
10753TIP3    H153674   4.850   1.896  10.741  0.1223  0.7856 -1.6377
10753TIP3    H253675   4.821   2.024  10.816  0.7976 -0.4465  0.8488
10754TIP3   OH253676   6.490   3.879   3.361 -0.1321  0.2947  0.2667
10754TIP3    H153677   6.526   3.811   3.304  2.1047  0.7430  1.0214
10754TIP3    H253678   6.532   3.960   3.331 -0.9985  0.9668  0.8222
10755TIP3   OH253679   1.879   3.565   5.945 -0.5136  0.0589 -0.3199
10755TIP3    H153680   1.930   3.616   6.008 -0.2777 -0.8699  0.2640
10755TIP3    H253681   1.806   3.622   5.920 -0.5412  0.4847  0.7007
10756TIP3   OH253682   6.470   5.090   3.800  0.6080  0.2928  0.0543
10756TIP3    H153683   6.444   5.000   3.818  0.1350  0.4982  0.4239
10756TIP3    H253684   6.565   5.090   3.811  0.5796 -0.0977  0.3255
10757TIP3   OH253685   0.849   3.540   5.604 -0.1391  0.0274  0.0861
10757TIP3    H153686   0.853   3.521   5.698 -0.7905 -0.2559  0.0601
10757TIP3    H253687   0.892   3.625   5.595  2.9450 -1.3897  0.1913
10758TIP3   OH253688   4.401   4.286   0.618  0.5800 -0.6743  0.2280
10758TIP3    H153689   4.482   4.337   0.624  1.3953 -2.0259  1.1442
10758TIP3    H253690   4.425   4.210   0.565 -0.3668 -0.6213 -0.3043
10759TIP3   OH253691   0.425   1.686  11.222  0.7742 -0.3652 -0.8073
10759TIP3    H153692   0.505   1.670  11.271  0.1687  0.7359  0.5991
10759TIP3    H253693   0.363   1.619  11.253 -0.5355  2.0224  2.2315
10760TIP3   OH253694   6.106   1.964   3.903  0.1122  0.1801 -0.0134
10760TIP3    H153695   6.080   2.022   3.831 -0.5555 -0.9182 -0.7014
10760TIP3    H253696   6.167   2.016   3.955  0.8534  0.9104 -1.5423
10761TIP3   OH253697   3.548   4.677  10.451 -0.7662  0.1421  0.3489
10761TIP3    H153698   3.610   4.606  10.437 -0.6669  0.1612  0.6744
10761TIP3    H253699   3.504   4.654  10.533 -1.5291 -0.1138 -0.1285
10762TIP3   OH253700   0.220   4.658  13.180  0.2209 -0.2860 -0.3847
10762TIP3    H153701   0.239   4.714  13.105 -0.2057 -0.8323 -0.9055
10762TIP3    H253702   0.262   4.575  13.160 -2.1180 -1.3244 -1.2933
10763TIP3   OH253703   0.658   5.497  11.475  0.4885 -0.3644 -0.1039
10763TIP3    H153704   0.626   5.567  11.531  0.2036 -0.1461 -0.5315
10763TIP3    H253705   0.677   5.539  11.391  0.1968 -0.8205 -0.4036
10764TIP3   OH253706   4.003   3.057   4.512  0.1674  0.1385  0.0447
10764TIP3    H153707   4.058   3.035   4.436 -0.1118 -0.1802 -0.0673
10764TIP3    H253708   3.969   2.973   4.543 -0.5044  0.3546 -0.0771
10765TIP3   OH253709   0.800   4.554   2.119  0.0194  0.1475  0.2011
10765TIP3    H153710   0.756   4.496   2.056 -1.9920  0.9225  0.8300
10765TIP3    H253711   0.891   4.526   2.116 -0.8839 -3.3758  0.7900
10766TIP3   OH253712   0.987   3.199  11.708 -0.4801  0.0060 -0.0412
10766TIP3    H153713   0.895   3.192  11.682 -0.1452 -0.6633 -1.1116
10766TIP3    H253714   1.032   3.233  11.631  0.2527 -0.2165  0.2772
10767TIP3   OH253715   0.235   5.272  16.296  0.3980  0.7588 -0.4522
10767TIP3    H153716   0.197   5.359  16.284 -1.3736 -0.1231 -1.6925
10767TIP3    H253717   0.228   5.256  16.390 -0.7486  1.3192 -0.4271
10768TIP3   OH253718   1.163   1.742   5.894  0.0320 -0.2235 -0.1937
10768TIP3    H153719   1.235   1.769   5.950  0.1804  0.8429 -0.8844
10768TIP3    H253720   1.204   1.710   5.814 -0.2455  0.1453 -0.4888
10769TIP3   OH253721   0.244   0.939  14.577 -0.3992 -0.3883 -0.4451
10769TIP3    H153722   0.242   0.978  14.664  1.5722  1.5632 -1.1689
10769TIP3    H253723   0.191   0.998  14.524  1.0013  0.2845 -1.1588
10770TIP3   OH253724   2.695   3.048   5.327  0.0193 -0.6131 -0.0967
10770TIP3    H153725   2.728   3.009   5.408 -0.4738 -1.2600 -0.2039
10770TIP3    H253726   2.668   3.136   5.352  2.9662  0.4450 -0.2471
10771TIP3   OH253727   0.506   3.876  11.953  0.0969 -0.1480 -0.6496
10771TIP3    H153728   0.463   3.949  11.909  0.6066 -0.2827 -1.3909
10771TIP3    H253729   0.539   3.821  11.882  1.3636 -0.1232 -0.1142
10772TIP3   OH253730   3.467   3.455   6.093 -0.6776  0.1221 -0.2021
10772TIP3    H153731   3.500   3.368   6.069 -0.4533  0.2604 -0.3910
10772TIP3    H253732   3.496   3.467   6.183  0.2907  0.4809 -0.5471
10773TIP3   OH253733   3.938   5.002  15.596 -0.5663 -0.7536  0.4106
10773TIP3    H153734   3.894   5.080  15.630 -0.3755 -0.3580 -0.2341
10773TIP3    H253735   4.028   5.031  15.579 -0.7681 -0.8014 -0.8572
10774TIP3   OH253736   5.482   3.582  16.048 -0.0907 -0.0647  0.1825
10774TIP3    H153737   5.513   3.524  15.979 -1.9948 -1.8169  0.7158
10774TIP3    H253738   5.395   3.610  16.020  0.0860  1.1680  0.7756
10775TIP3   OH253739   4.850   0.967  14.275  0.2477 -0.7783 -0.0721
10775TIP3    H153740   4.929   1.008  14.239 -0.9063  1.6726 -0.0313
10775TIP3    H253741   4.877   0.937  14.362  1.6859 -2.0207 -0.9040
10776TIP3   OH253742   4.529   1.935  14.730 -0.0918  0.4134  0.4218
10776TIP3    H153743   4.463   1.986  14.775 -0.7066  0.6110 -0.6791
10776TIP3    H253744   4.524   1.963  14.639  1.6759  0.6081  0.3527
10777TIP3   OH253745   1.322   5.257  16.329  0.2349  0.2860  0.3323
10777TIP3    H153746   1.233   5.249  16.362  0.7161 -1.1033  1.3969
10777TIP3    H253747   1.312   5.286  16.238 -1.3902 -1.7401 -0.2095
10778TIP3   OH253748   1.169   3.402   2.317  0.0457  0.7016  0.2403
10778TIP3    H153749   1.246   3.458   2.315  0.0745  0.6773 -2.2056
10778TIP3    H253750   1.095   3.462   2.311 -0.1564  0.6870  2.0143
10779TIP3   OH253751   2.760   0.371   5.184  0.0014 -0.2462 -0.6932
10779TIP3    H153752   2.769   0.460   5.151  1.4009  0.1207  0.5239
10779TIP3    H253753   2.847   0.349   5.218 -0.3041 -2.0902 -0.9769
10780TIP3   OH253754   1.327   5.917   1.186  0.4408  0.2029  0.4173
10780TIP3    H153755   1.385   5.899   1.112 -0.6399  0.8171 -0.6135
10780TIP3    H253756   1.310   6.011   1.180 -2.3709 -0.2943 -0.6267
10781TIP3   OH253757   2.400   6.266  15.801 -0.3213  0.2728  0.9329
10781TIP3    H153758   2.481   6.269  15.851  0.2215 -0.3374  0.1039
10781TIP3    H253759   2.376   6.358  15.789  1.5217  0.6050 -0.8278
10782TIP3   OH253760   3.575   5.568   1.926  0.2658  0.3578  0.3614
10782TIP3    H153761   3.509   5.508   1.960 -0.1417  0.1435 -0.7561
10782TIP3    H253762   3.659   5.532   1.956 -0.1091  0.7468  1.9598
10783TIP3   OH253763   5.526   4.641   6.307  0.2395  0.0298  0.4073
10783TIP3    H153764   5.450   4.602   6.350 -1.1248  0.4317 -1.5053
10783TIP3    H253765   5.493   4.723   6.270  0.6901 -1.2073 -3.1368
10784TIP3   OH253766   6.504   2.385   5.886  0.2898  0.5753 -0.1229
10784TIP3    H153767   6.462   2.307   5.850  1.7664  0.3535 -1.4674
10784TIP3    H253768   6.521   2.363   5.978  0.1298 -0.4460 -0.3280
10785TIP3   OH253769   1.707   0.021  11.593  0.4262  0.1923  0.8638
10785TIP3    H153770   1.675   0.102  11.553  0.3261  0.7297  1.9907
10785TIP3    H253771   1.629  -0.031  11.608  0.6378 -0.8386 -1.3420
10786TIP3   OH253772   5.318   1.298  14.653  0.4213 -0.1988  0.4617
10786TIP3    H153773   5.335   1.272  14.562  5.6774 -0.4957  1.2348
10786TIP3    H253774   5.313   1.393  14.650 -1.5970 -0.2843 -0.2956
10787TIP3   OH253775   5.222   0.283  17.029 -0.1879  0.4817  0.4720
10787TIP3    H153776   5.263   0.355  17.076  1.9451 -0.2476 -0.1475
10787TIP3    H253777   5.270   0.205  17.057 -1.8087 -0.6045  0.4135
10788TIP3   OH253778   3.917   4.705   0.135 -0.0179  0.5024  0.1398
10788TIP3    H153779   3.826   4.679   0.147  0.2608 -1.2071 -1.0083
10788TIP3    H253780   3.914   4.799   0.119 -1.2990  0.9644  2.6311
10789TIP3   OH253781   1.768   2.865  14.976 -0.5167 -0.0648 -0.1931
10789TIP3    H153782   1.769   2.956  14.947 -0.0279 -0.4447 -1.4436
10789TIP3    H253783   1.827   2.820  14.915  1.8732 -0.6646  2.3712
10790TIP3   OH253784   0.687   6.586  14.056  0.2241  0.3025  0.1826
10790TIP3    H153785   0.667   6.671  14.017 -0.5667  0.6890  1.3829
10790TIP3    H253786   0.603   6.539  14.055  0.0221  0.5611  1.9561
10791TIP3   OH253787   6.004   6.489  16.389 -0.4357 -0.1187 -0.8269
10791TIP3    H153788   6.090   6.466  16.353 -0.2884 -0.8915 -0.0180
10791TIP3    H253789   5.943   6.472  16.318  0.1876  1.6521 -1.8461
10792TIP3   OH253790   4.886   2.178   3.646  0.2539  0.3829 -0.6023
10792TIP3    H153791   4.834   2.235   3.590 -1.0202 -0.4032 -0.2520
10792TIP3    H253792   4.952   2.235   3.685 -0.3906  1.4096 -0.9972
10793TIP3   OH253793   0.973   4.076  14.264 -0.2659  0.4824  0.2081
10793TIP3    H153794   0.941   4.130  14.336 -0.5767  0.2542  0.2402
10793TIP3    H253795   1.068   4.076  14.275 -0.2907  0.6905  0.4441
10794TIP3   OH253796   0.921   3.066  11.382  0.5246  0.0317  0.2453
10794TIP3    H153797   0.962   2.987  11.418 -0.6280  0.0556  1.7010
10794TIP3    H253798   0.984   3.135  11.398  1.7671 -0.6238 -1.4897
10795TIP3   OH253799   3.669   6.522   0.656 -0.5746  0.6400  0.3453
10795TIP3    H153800   3.733   6.451   0.664 -1.5896 -0.1657  1.5975
10795TIP3    H253801   3.722   6.601   0.647  0.5910 -0.2368 -1.1292
10796TIP3   OH253802   5.938   6.593   4.087 -0.1234  0.0738 -0.2033
10796TIP3    H153803   5.923   6.573   3.995 -1.9740  0.4898 -0.0304
10796TIP3    H253804   5.945   6.507   4.129  0.1270 -0.1217 -0.6429
10797TIP3   OH253805   5.300   4.957  16.709 -0.6945 -0.2423 -0.2614
10797TIP3    H153806   5.221   4.919  16.749 -1.3336  1.2264 -0.0550
10797TIP3    H253807   5.270   4.990  16.624 -0.4052  0.6570 -0.0230
10798TIP3   OH253808   4.439   5.016   2.592 -0.0548 -0.3662 -0.2503
10798TIP3    H153809   4.526   4.990   2.561 -0.3028  0.0682 -1.3656
10798TIP3    H253810   4.444   5.111   2.601 -0.3086 -0.3784  0.0475
10799TIP3   OH253811   3.133   5.042   1.546 -0.5883  0.2962 -0.3569
10799TIP3    H153812   3.078   5.067   1.472 -0.1055  1.3008 -0.3898
10799TIP3    H253813   3.168   5.125   1.579  0.0211 -0.2316  0.3550
10800TIP3   OH253814   4.240   5.647  14.693  0.5198 -0.6240 -0.4994
10800TIP3    H153815   4.170   5.627  14.631  0.3639 -0.5833 -0.3399
10800TIP3    H253816   4.201   5.713  14.752  1.2167  0.6344 -1.3967
10801TIP3   OH253817   2.430   2.312   1.567  0.0329 -0.0994  0.1618
10801TIP3    H153818   2.408   2.378   1.634 -2.4026 -0.3010 -0.3266
10801TIP3    H253819   2.346   2.290   1.528  1.1237 -1.6770 -1.4262
10802TIP3   OH253820   5.552   2.035   5.270 -0.2648 -0.0984  0.3037
10802TIP3    H153821   5.538   2.100   5.201  2.3644  0.0439 -0.1944
10802TIP3    H253822   5.624   2.071   5.322 -0.3993 -1.4736  1.4899
10803TIP3   OH253823   6.461   4.245  15.192 -0.5521 -0.1422  0.2860
10803TIP3    H153824   6.507   4.258  15.274  1.7252 -1.0904 -0.7456
10803TIP3    H253825   6.399   4.174  15.210  0.4050 -0.8122  1.0297
10804TIP3   OH253826   4.739   1.144  12.389 -0.2875  0.0653  0.2526
10804TIP3    H153827   4.675   1.213  12.406  0.2565  0.1891  1.9304
10804TIP3    H253828   4.815   1.168  12.441  0.6149 -0.8423 -0.5953
10805TIP3   OH253829   0.987   6.157  10.477  0.5436  0.5155 -0.0091
10805TIP3    H153830   1.044   6.097  10.428 -0.5440 -0.5587 -0.0160
10805TIP3    H253831   1.029   6.243  10.468  0.7921  0.2282 -2.1997
10806TIP3   OH253832   1.100   0.527   4.407 -0.2264  0.3452  0.1196
10806TIP3    H153833   1.015   0.566   4.388  0.1290  0.9991 -0.1916
10806TIP3    H253834   1.154   0.601   4.435  0.8938  0.3542 -1.9264
10807TIP3   OH253835   4.689   4.338   3.853 -0.5320  0.2270  0.2053
10807TIP3    H153836   4.709   4.386   3.772  2.4743 -0.2967  0.5323
10807TIP3    H253837   4.647   4.403   3.909  0.3978  1.5662 -0.5875
10808TIP3   OH253838   3.324   2.902  13.970  0.1625  0.4652 -0.1506
10808TIP3    H153839   3.395   2.966  13.981 -0.8424  1.3815  1.5401
10808TIP3    H253840   3.325   2.851  14.051 -1.3176  0.7426  0.0685
10809TIP3   OH253841   1.381   5.770   5.122  0.1467 -0.1555 -0.4699
10809TIP3    H153842   1.321   5.696   5.119 -0.8525  0.5718  0.5258
10809TIP3    H253843   1.416   5.769   5.212  2.0343 -0.8365 -1.1489
10810TIP3   OH253844   0.095   5.605  14.273 -0.1190  0.7162  0.1646
10810TIP3    H153845   0.071   5.697  14.266 -1.4299  0.3333 -0.7140
10810TIP3    H253846   0.189   5.603  14.253 -0.2274  1.7794 -0.5144
10811TIP3   OH253847   0.578   0.009  17.129  0.3155  0.0650 -0.0670
10811TIP3    H153848   0.665  -0.013  17.096  0.3433 -0.4588  0.3492
10811TIP3    H253849   0.542  -0.074  17.160 -0.5202  0.1880 -0.6667
10812TIP3   OH253850   1.576   2.724  12.424 -0.1134  0.0413  0.5983
10812TIP3    H153851   1.647   2.661  12.423 -0.6393 -0.5958  1.5261
10812TIP3    H253852   1.600   2.788  12.491  0.5784  1.0465 -0.5732
10813TIP3   OH253853   1.137   3.993  16.969  0.1145  0.0146 -0.2658
10813TIP3    H153854   1.070   4.031  16.912  0.8821  0.8842 -0.6054
10813TIP3    H253855   1.090   3.926  17.019 -0.7880 -0.0826 -1.2045
10814TIP3   OH253856   1.942   0.841  11.876  0.0038 -0.4912 -1.0772
10814TIP3    H153857   1.879   0.903  11.839  1.0558  1.1829 -0.2355
10814TIP3    H253858   1.902   0.814  11.959  1.1273  2.1053  0.4419
10815TIP3   OH253859   1.437   5.153   0.722  0.4848  0.7611  0.3575
10815TIP3    H153860   1.383   5.171   0.799  2.0492  1.4045  1.3810
10815TIP3    H253861   1.376   5.122   0.656 -0.9124  0.0341  1.9054
10816TIP3   OH253862   2.362   3.976  13.069 -0.1864  0.5216 -0.4666
10816TIP3    H153863   2.443   4.009  13.106  0.4291  0.7749 -1.9554
10816TIP3    H253864   2.304   3.964  13.144  1.5136 -0.5433  0.7463
10817TIP3   OH253865   1.109   2.528  13.068  0.0276  0.4381  0.5075
10817TIP3    H153866   1.049   2.481  13.127  0.7494  1.7532  2.3736
10817TIP3    H253867   1.064   2.610  13.048  0.9694  1.2616  1.6062
10818TIP3   OH253868   3.566   0.397  14.698 -0.4111 -0.4653  0.4357
10818TIP3    H153869   3.492   0.441  14.656  0.4330  0.6372  0.0497
10818TIP3    H253870   3.541   0.392  14.790  0.1639  2.5211  0.8780
10819TIP3   OH253871   3.111   1.227   2.331  0.3152 -0.0098  0.0023
10819TIP3    H153872   3.089   1.239   2.238 -1.6797 -1.1142  0.2690
10819TIP3    H253873   3.177   1.158   2.331 -0.8720 -1.1912 -0.5444
10820TIP3   OH253874   0.468   3.622  10.761 -0.0109 -0.2249 -0.1628
10820TIP3    H153875   0.388   3.643  10.712 -0.9581 -1.6925  0.6883
10820TIP3    H253876   0.441   3.625  10.852  0.7161 -1.4571  0.1126
10821TIP3   OH253877   1.320   6.432  12.970  0.1951 -0.1434 -0.0117
10821TIP3    H153878   1.408   6.404  12.943  0.4032 -0.4805  0.9770
10821TIP3    H253879   1.319   6.419  13.065 -0.9405 -0.1788 -0.0197
10822TIP3   OH253880   1.306   1.798   1.332  0.2174 -0.1547  0.1554
10822TIP3    H153881   1.393   1.826   1.303 -0.4585  1.2710 -0.6148
10822TIP3    H253882   1.251   1.809   1.255 -1.0273  0.7781  1.1405
10823TIP3   OH253883   2.409   2.361  10.889 -0.6181  0.7553  0.4360
10823TIP3    H153884   2.317   2.387  10.891 -0.4316  1.4772  0.0232
10823TIP3    H253885   2.450   2.414  10.957 -0.4045  0.8472  0.2367
10824TIP3   OH253886   2.338   3.064  11.828 -0.0650 -0.4014  0.0488
10824TIP3    H153887   2.343   3.016  11.911 -1.6026 -0.0821  0.3563
10824TIP3    H253888   2.366   3.000  11.762 -1.5429 -1.5842  0.5053
10825TIP3   OH253889   4.808   3.503   0.194 -0.2567  0.2142  0.0860
10825TIP3    H153890   4.747   3.502   0.121 -1.4719  1.0440  1.0303
10825TIP3    H253891   4.753   3.523   0.270  1.2042  1.0598  0.9707
10826TIP3   OH253892   2.614   4.008  11.474 -0.1018  1.1652 -0.1600
10826TIP3    H153893   2.689   3.976  11.424  0.5936  3.0057 -0.3755
10826TIP3    H253894   2.563   4.059  11.411 -1.7958 -0.3925 -0.1144
10827TIP3   OH253895   4.805   1.104   0.012  0.6127  0.3318 -0.5332
10827TIP3    H153896   4.720   1.142   0.035  0.4789 -0.2778 -0.0056
10827TIP3    H253897   4.867   1.150   0.069  0.8285  1.6572 -1.7676
10828TIP3   OH253898   5.202   4.617  15.776 -0.0466 -0.1118  0.0202
10828TIP3    H153899   5.171   4.662  15.698 -0.4272  2.2779  1.4434
10828TIP3    H253900   5.135   4.551  15.795  0.1403 -0.8453 -1.6969
10829TIP3   OH253901   5.568   6.072   4.953  0.1890 -0.0300 -0.3058
10829TIP3    H153902   5.576   6.155   4.906  2.2281 -1.6169 -3.1158
10829TIP3    H253903   5.495   6.027   4.911  1.1673 -0.9120 -1.1390
10830TIP3   OH253904   6.165   1.128  16.678 -0.2928 -0.9238  0.4541
10830TIP3    H153905   6.195   1.067  16.610  3.4526  0.1552  0.8980
10830TIP3    H253906   6.153   1.210  16.632 -1.3288 -1.0193  0.5389
10831TIP3   OH253907   2.530   4.187  12.708 -0.4615  0.5116 -0.4855
10831TIP3    H153908   2.464   4.177  12.776 -0.9583  1.1630 -0.8594
10831TIP3    H253909   2.612   4.165  12.751 -0.8677  0.0575  0.0857
10832TIP3   OH253910   0.443   1.956  12.554  0.2551 -0.2971  0.2211
10832TIP3    H153911   0.501   1.887  12.587 -0.3454 -0.4492  0.9872
10832TIP3    H253912   0.402   1.992  12.632 -0.3268  0.1290 -0.2737
10833TIP3   OH253913   4.428   5.403  11.454 -0.3596  0.1131  0.6448
10833TIP3    H153914   4.451   5.460  11.380 -1.5944  2.4437  1.9332
10833TIP3    H253915   4.490   5.427  11.523 -0.5923 -0.4886  1.0729
10834TIP3   OH253916   5.235   3.278   1.824 -0.3484  0.3430 -0.7005
10834TIP3    H153917   5.153   3.304   1.781 -0.3978  1.3631 -0.0231
10834TIP3    H253918   5.210   3.263   1.915  0.4060  1.8300 -0.2165
10835TIP3   OH253919   5.762   0.974  13.631 -0.2389 -0.0441  0.5559
10835TIP3    H153920   5.807   1.057  13.643 -0.8549  0.1983  1.2181
10835TIP3    H253921   5.670   0.998  13.619 -0.6820 -0.7040  2.3547
10836TIP3   OH253922   0.890   4.567   4.311 -0.5345  0.2152 -0.0501
10836TIP3    H153923   0.813   4.564   4.369 -0.0838 -1.3920  0.5339
10836TIP3    H253924   0.952   4.623   4.357 -0.2571 -0.8834  0.9652
10837TIP3   OH253925   5.909   2.389  13.099  0.0990 -0.0184  0.7603
10837TIP3    H153926   5.847   2.368  13.169 -0.0650  1.9431  1.2553
10837TIP3    H253927   5.976   2.442  13.141  1.1454 -0.5649 -0.1608
10838TIP3   OH253928   5.437   2.422   2.666 -0.1764 -0.1922  0.0398
10838TIP3    H153929   5.463   2.506   2.704  1.2431 -0.6834  0.2028
10838TIP3    H253930   5.359   2.397   2.716 -0.4961  0.9251  0.1258
10839TIP3   OH253931   1.520   3.114  14.823  0.1555  0.5902 -0.0746
10839TIP3    H153932   1.605   3.146  14.854  0.4008  0.3058 -0.4495
10839TIP3    H253933   1.482   3.187  14.775  0.3128  0.6189 -0.1530
10840TIP3   OH253934   4.558   4.248  15.735  0.0314 -0.5200 -0.3548
10840TIP3    H153935   4.516   4.164  15.715  0.9947 -0.3560 -3.7072
10840TIP3    H253936   4.631   4.224  15.793 -1.2346 -1.5460  0.9131
10841TIP3   OH253937   5.951   4.827  11.721  0.6011 -0.0407 -0.0900
10841TIP3    H153938   6.007   4.889  11.674  0.7817  0.1646  0.3911
10841TIP3    H253939   5.885   4.882  11.764 -0.0405 -0.2872 -0.7388
10842TIP3   OH253940   3.775   5.873  13.391  0.3953 -0.0525 -0.7561
10842TIP3    H153941   3.813   5.790  13.362  0.6727 -0.1896 -0.0392
10842TIP3    H253942   3.717   5.899  13.320  0.4069 -0.7945 -1.0517
10843TIP3   OH253943   6.749   4.260   5.079  0.3244 -0.2238  0.4150
10843TIP3    H153944   6.788   4.245   5.165  0.2466 -0.4960  0.4035
10843TIP3    H253945   6.683   4.328   5.094 -2.8307 -3.2329  1.5013
10844TIP3   OH253946   0.484   3.678  12.192 -1.0364  0.0197 -0.3398
10844TIP3    H153947   0.442   3.725  12.265  0.3461  0.4626  0.2122
10844TIP3    H253948   0.461   3.729  12.115 -2.0017 -0.0939 -0.1456
10845TIP3   OH253949   0.851   0.257  10.859  0.1592  0.8833 -0.1508
10845TIP3    H153950   0.775   0.268  10.916  0.4179  1.3252  0.1145
10845TIP3    H253951   0.815   0.225  10.776 -0.2868  0.8538  0.0536
10846TIP3   OH253952   5.192   1.272   0.568 -0.8932 -0.3109 -0.3729
10846TIP3    H153953   5.224   1.226   0.646  0.8045  0.0373 -0.8414
10846TIP3    H253954   5.253   1.248   0.499  0.3964  3.0255 -0.5434
10847TIP3   OH253955   5.050   2.062  13.237 -0.1836 -0.0196 -0.1641
10847TIP3    H153956   4.992   1.995  13.202 -1.0967 -0.7042  2.4371
10847TIP3    H253957   5.011   2.087  13.321  3.1634 -0.4357  1.6990
10848TIP3   OH253958   3.126   3.522  12.848 -0.2145 -0.0830  0.0686
10848TIP3    H153959   3.053   3.554  12.900 -0.1345 -0.4695  0.4327
10848TIP3    H253960   3.091   3.513  12.759 -0.9507 -1.3465  0.4566
10849TIP3   OH253961   2.849   2.738  14.244  0.2037  0.4180 -0.2945
10849TIP3    H153962   2.781   2.685  14.203 -0.3065  2.4021 -2.2064
10849TIP3    H253963   2.804   2.783  14.315  0.4844 -1.0999  0.9038
10850TIP3   OH253964   3.308   3.260  15.381  0.6221 -0.0434  0.2948
10850TIP3    H153965   3.306   3.223  15.293 -0.8855  0.7951 -0.0559
10850TIP3    H253966   3.298   3.186  15.440  1.6653 -0.6132 -0.2225
10851TIP3   OH253967   6.033   5.444  15.927 -0.2688  0.6661 -0.0606
10851TIP3    H153968   6.050   5.384  16.000 -1.7056 -0.1586 -0.3803
10851TIP3    H253969   5.968   5.505  15.960  0.6239  1.6054  0.0081
10852TIP3   OH253970   2.763   4.518  15.827 -0.2526  0.2912 -0.3083
10852TIP3    H153971   2.843   4.522  15.775 -1.0355 -1.1880 -1.7645
10852TIP3    H253972   2.706   4.584  15.787  0.8934  2.9302  2.1212
10853TIP3   OH253973   3.607   3.392  11.800 -0.1270 -0.0026  0.3318
10853TIP3    H153974   3.612   3.373  11.707 -0.4789  2.0081 -0.1423
10853TIP3    H253975   3.696   3.377  11.832  0.1909  0.0933 -0.4887
10854TIP3   OH253976   3.507   5.330  10.895 -0.2761 -0.4922  0.3677
10854TIP3    H153977   3.514   5.424  10.910  0.0670 -0.5567  0.6414
10854TIP3    H253978   3.593   5.296  10.920 -0.5770 -0.9461  0.8037
10855TIP3   OH253979   1.437   5.717  16.667 -0.5917  0.1744 -0.1892
10855TIP3    H153980   1.366   5.682  16.613  0.1596  0.3091 -1.2956
10855TIP3    H253981   1.394   5.750  16.746 -1.8242  0.8080 -1.1071
10856TIP3   OH253982   3.450   1.524  14.179  0.3640 -0.8397  0.1199
10856TIP3    H153983   3.419   1.554  14.094 -0.4257 -0.6020  0.4815
10856TIP3    H253984   3.545   1.528  14.173  0.3094  0.8300 -0.1716
10857TIP3   OH253985   3.776   3.147   6.696  0.3505  0.0159 -0.7291
10857TIP3    H153986   3.842   3.120   6.760 -1.3238 -0.0300  1.0508
10857TIP3    H253987   3.755   3.066   6.648  1.8460  0.1178 -1.6316
10858TIP3   OH253988   6.090   5.355   5.413 -0.4410  0.0923  0.3171
10858TIP3    H153989   6.184   5.342   5.428 -0.5066 -0.8164 -0.0210
10858TIP3    H253990   6.084   5.444   5.378  0.4636 -0.3356 -1.0017
10859TIP3   OH253991   4.799   6.177   2.121  0.1728 -0.1955 -0.7170
10859TIP3    H153992   4.800   6.199   2.214  1.2907 -1.0435 -0.5095
10859TIP3    H253993   4.799   6.081   2.120 -0.8534 -0.2074 -1.5984
10860TIP3   OH253994   5.956   3.830  15.198 -0.4869  0.0777 -0.3699
10860TIP3    H153995   6.024   3.771  15.230 -1.3388 -0.5073  0.4282
10860TIP3    H253996   6.002   3.911  15.176  0.7086 -0.9021 -1.5726
10861TIP3   OH253997   1.727   3.238  14.573 -0.0467 -0.3168 -0.1379
10861TIP3    H153998   1.810   3.286  14.565 -0.6212  1.1154  1.9037
10861TIP3    H253999   1.694   3.261  14.659 -0.6533 -4.0241  0.7739
10862TIP3   OH254000   6.323   0.581  16.186 -0.5849 -0.3647 -0.3582
10862TIP3    H154001   6.271   0.506  16.216 -3.8679  2.0126  0.5018
10862TIP3    H254002   6.375   0.606  16.263  1.1152 -2.0470 -0.8685
10863TIP3   OH254003   4.900   1.196   2.508 -0.0062  0.1774 -0.4576
10863TIP3    H154004   4.919   1.134   2.437  2.1308 -0.1394  0.3220
10863TIP3    H254005   4.984   1.234   2.530 -0.8182  1.1820  1.0971
10864TIP3   OH254006   0.517   0.247  15.918  0.5053 -0.7750 -0.2691
10864TIP3    H154007   0.593   0.289  15.960  0.4850 -0.6256 -0.3802
10864TIP3    H254008   0.517   0.283  15.829 -1.2151  1.2646  0.4561
10865TIP3   OH254009   4.089   0.776  17.194 -0.2530 -0.0632  0.2808
10865TIP3    H154010   4.159   0.722  17.158  0.8529  1.0520  0.7079
10865TIP3    H254011   4.038   0.716  17.249  1.4137 -0.5377  1.3728
10866TIP3   OH254012   4.689   5.964   5.412 -0.2838  0.0714 -0.5985
10866TIP3    H154013   4.776   5.973   5.373 -0.4355  1.3727 -0.6801
10866TIP3    H254014   4.634   5.932   5.341  0.0072 -0.2107 -0.6986
10867TIP3   OH254015   0.800   4.487  13.034  0.0256 -0.1048 -0.2815
10867TIP3    H154016   0.824   4.419  13.097  0.4954  0.2069 -0.1120
10867TIP3    H254017   0.705   4.478  13.024 -0.1344  0.1358  0.8269
10868TIP3   OH254018   3.469   6.771  16.662 -0.0931  0.3251  0.0203
10868TIP3    H154019   3.433   6.768  16.574  2.3387  1.2137 -1.0894
10868TIP3    H254020   3.475   6.679  16.689  0.1732 -0.0213 -1.1930
10869TIP3   OH254021   2.312   6.686  13.730  0.4031  0.2052 -0.7052
10869TIP3    H154022   2.272   6.642  13.654 -0.4471 -1.8867  0.8704
10869TIP3    H254023   2.238   6.710  13.786  1.1354 -0.6255  0.6693
10870TIP3   OH254024   2.075   1.302   0.480  0.0228  0.1206 -0.1024
10870TIP3    H154025   2.094   1.239   0.410 -1.2137 -1.5314  0.9694
10870TIP3    H254026   2.084   1.252   0.560 -1.4908  1.1855  0.7760
10871TIP3   OH254027   3.801   2.223   2.716  0.3847 -0.1386 -0.5129
10871TIP3    H154028   3.817   2.164   2.789 -0.7550  1.1171  0.8303
10871TIP3    H254029   3.878   2.279   2.713  0.7130 -0.6019 -0.6765
10872TIP3   OH254030   0.543   6.476  13.741  0.1997  0.3605  0.1191
10872TIP3    H154031   0.562   6.481  13.834  0.0688 -1.1487  0.2395
10872TIP3    H254032   0.513   6.564  13.718  0.6657  0.8684  1.3908
10873TIP3   OH254033   5.724   4.641  16.683 -0.3603 -0.6148 -0.2027
10873TIP3    H154034   5.640   4.687  16.691 -1.7587 -2.8277 -1.2431
10873TIP3    H254035   5.749   4.622  16.773 -1.1942 -0.3045  0.1087
10874TIP3   OH254036   4.656   0.693   6.044 -0.1598 -0.1423 -0.3181
10874TIP3    H154037   4.592   0.718   6.111 -0.3388 -1.1179 -0.0986
10874TIP3    H254038   4.732   0.661   6.094 -0.0729 -0.3379 -0.5713
10875TIP3   OH254039   6.520   0.792   2.238 -0.1892 -0.0558 -0.0804
10875TIP3    H154040   6.540   0.708   2.278  1.0017 -0.2483 -1.0104
10875TIP3    H254041   6.605   0.827   2.212 -0.8540  0.0092 -2.4808
10876TIP3   OH254042   0.611   1.507  16.443  0.2017  0.4763 -0.0355
10876TIP3    H154043   0.614   1.592  16.487 -0.1349  0.5250 -0.1087
10876TIP3    H254044   0.559   1.523  16.364  0.1680  0.2107 -0.0665
10877TIP3   OH254045   3.245   5.613  16.136  0.2760 -0.1025  0.4758
10877TIP3    H154046   3.253   5.540  16.075  0.5106 -0.3163  0.7598
10877TIP3    H254047   3.304   5.591  16.208  2.3080  1.5113 -0.5561
10878TIP3   OH254048   0.057   4.252  10.532 -0.0141  0.1632 -0.6020
10878TIP3    H154049   0.150   4.235  10.540 -0.2331 -0.2132  2.1259
10878TIP3    H254050   0.019   4.167  10.508  0.3155  0.3202 -1.7265
10879TIP3   OH254051   6.523   0.135  17.179  0.4294  0.6038 -0.5083
10879TIP3    H154052   6.543   0.168  17.092  0.1100  0.1225 -0.7678
10879TIP3    H254053   6.493   0.045  17.165  0.4142  0.5059  0.1001
10880TIP3   OH254054   1.986   2.425  12.998  0.4737  0.4174  0.1759
10880TIP3    H154055   1.920   2.375  12.949  0.3125  0.1619  0.6394
10880TIP3    H254056   2.053   2.445  12.934 -0.0950  0.7496 -0.3277
10881TIP3   OH254057   4.369   5.099   0.629  0.3387 -0.0008 -0.6142
10881TIP3    H154058   4.375   5.052   0.546  1.1091  1.2689 -1.3224
10881TIP3    H254059   4.443   5.067   0.681 -0.4454 -1.1750 -0.1866
10882TIP3   OH254060   3.746   0.381  13.494 -0.0623  0.1792 -0.0522
10882TIP3    H154061   3.698   0.366  13.412 -0.5190  0.3733  0.1749
10882TIP3    H254062   3.715   0.312  13.552 -1.2739  1.2423  0.6100
10883TIP3   OH254063   6.034   2.669  13.594  0.0838 -0.3533  0.1591
10883TIP3    H154064   5.953   2.689  13.548 -0.0224 -0.2215  0.3990
10883TIP3    H254065   6.008   2.604  13.660 -0.3434  1.4912  1.8937
10884TIP3   OH254066   3.739   0.588   3.548  0.0042  0.1012  0.0206
10884TIP3    H154067   3.831   0.612   3.537 -0.1594  0.7651  0.0664
10884TIP3    H254068   3.692   0.671   3.542 -0.4714 -0.0428  1.5311
10885TIP3   OH254069   3.940   4.082   5.317 -0.0920 -0.8303 -0.0626
10885TIP3    H154070   3.853   4.079   5.279  0.1783  0.8294 -0.9025
10885TIP3    H254071   3.925   4.086   5.412 -1.0027  0.7584 -0.2378
10886TIP3   OH254072   5.285   3.943  15.534 -0.6193  0.0317 -0.0826
10886TIP3    H154073   5.207   3.960  15.586 -0.7304 -0.5450 -0.0478
10886TIP3    H254074   5.256   3.951  15.443 -0.4784  0.8159 -0.0591
10887TIP3   OH254075   2.651   6.465   3.855  0.4089 -0.0636 -0.5429
10887TIP3    H154076   2.581   6.529   3.841 -0.2366 -0.8220 -0.8124
10887TIP3    H254077   2.669   6.430   3.768 -0.7476 -1.7952 -0.1456
10888TIP3   OH254078   5.666   1.472   3.395  0.0188 -0.3782 -0.0461
10888TIP3    H154079   5.750   1.481   3.440  1.1942 -1.3961 -1.8717
10888TIP3    H254080   5.659   1.551   3.341 -1.3383  0.7931  1.7259
10889TIP3   OH254081   3.055   4.293   3.287  0.2211 -0.4154 -0.0636
10889TIP3    H154082   3.017   4.227   3.230 -1.7191  1.7521 -1.4253
10889TIP3    H254083   3.050   4.254   3.375  0.6233 -2.6575 -0.9712
10890TIP3   OH254084   4.833   4.593  16.478  0.0675 -0.0150 -0.0998
10890TIP3    H154085   4.752   4.620  16.522 -0.0140  0.8059 -0.7274
10890TIP3    H254086   4.862   4.671  16.431 -0.1477 -0.9903 -1.9543
10891TIP3   OH254087   6.574   1.029  14.722 -0.3487 -0.5682  0.4761
10891TIP3    H154088   6.596   0.959  14.661 -1.5824 -0.0403 -0.6072
10891TIP3    H254089   6.590   1.109  14.673 -0.7467 -0.1169  1.0726
10892TIP3   OH254090   5.975   3.757  17.109 -0.2098 -0.9311  0.2021
10892TIP3    H154091   6.041   3.777  17.042 -1.0947 -0.1249 -0.4552
10892TIP3    H254092   6.026   3.737  17.187  0.8302 -0.8875 -0.4430
10893TIP3   OH254093   4.377   0.118  11.142  0.6155 -0.0535  0.0931
10893TIP3    H154094   4.306   0.069  11.100  0.1587 -0.4649  1.3036
10893TIP3    H254095   4.411   0.174  11.073 -1.1688  0.4656 -0.4324
10894TIP3   OH254096   3.998   1.305  14.085  0.0791  0.4049  0.2592
10894TIP3    H154097   4.034   1.368  14.023  1.2195 -0.1759  0.3148
10894TIP3    H254098   4.051   1.315  14.163 -0.1052 -0.2253  0.4686
10895TIP3   OH254099   2.334   3.160  10.568  0.1467  0.2895 -0.1899
10895TIP3    H154100   2.265   3.182  10.505  1.0144 -0.6510 -1.5139
10895TIP3    H254101   2.289   3.159  10.653 -0.9372  2.0992 -0.6872
10896TIP3   OH254102   6.059   3.293  15.712 -0.3587  0.0268  0.0515
10896TIP3    H154103   6.144   3.326  15.684 -0.6046  1.1395  0.5464
10896TIP3    H254104   6.077   3.206  15.748  0.7827  0.7247  1.2435
10897TIP3   OH254105   1.050   2.599   3.341 -0.5140 -0.0523  0.2138
10897TIP3    H154106   1.060   2.586   3.435  0.8348  1.1978  0.2763
10897TIP3    H254107   0.971   2.653   3.333 -0.2038  0.4973  0.7079
10898TIP3   OH254108   5.732   5.081  14.756 -0.0697  0.2150  0.6514
10898TIP3    H154109   5.660   5.099  14.696 -0.9047 -1.1200  1.2044
10898TIP3    H254110   5.716   5.139  14.831 -2.1421 -1.8620  1.9594
10899TIP3   OH254111   4.218   2.588  13.862 -0.3374 -0.4250  0.5917
10899TIP3    H154112   4.299   2.634  13.884 -0.0542 -1.3159  1.4856
10899TIP3    H254113   4.169   2.584  13.944 -0.9745 -0.5194  0.2130
10900TIP3   OH254114   2.516   0.001  16.577 -0.1287  0.4693  0.9878
10900TIP3    H154115   2.540  -0.090  16.563 -1.0968  0.6433 -2.8713
10900TIP3    H254116   2.575   0.031  16.647  0.8994 -2.7690  1.6804
10901TIP3   OH254117   0.762   4.873   3.196 -0.0287  0.0667  0.0308
10901TIP3    H154118   0.793   4.963   3.186 -0.7117  0.3988  0.7982
10901TIP3    H254119   0.840   4.824   3.223  0.6536  0.1387 -1.6854
10902TIP3   OH254120   5.844   3.268  11.380 -0.3876  0.1143 -0.2449
10902TIP3    H154121   5.863   3.357  11.408 -0.8507 -0.1176  0.8248
10902TIP3    H254122   5.818   3.222  11.459  0.2385 -1.0869 -0.7097
10903TIP3   OH254123   5.259   2.212  12.491 -0.2560  0.7166 -0.1463
10903TIP3    H154124   5.303   2.276  12.546  1.1474  0.6069 -1.1022
10903TIP3    H254125   5.222   2.148  12.553  0.3883  1.1514  0.7025
10904TIP3   OH254126   1.911   6.030   3.289  0.8935  0.4586 -0.0074
10904TIP3    H154127   1.958   6.088   3.348  1.0657  0.2121  0.1032
10904TIP3    H254128   1.915   6.073   3.204  1.9940  0.0765 -0.1666
10905TIP3   OH254129   4.059   2.863  13.399  0.8274 -0.0203 -0.2884
10905TIP3    H154130   3.994   2.915  13.352  1.0976  1.1536  0.5949
10905TIP3    H254131   4.046   2.774  13.367  0.2019  0.5402 -1.6744
10906TIP3   OH254132   1.001   0.416   4.914 -0.6385 -0.5195  0.5916
10906TIP3    H154133   0.938   0.475   4.872  0.3818 -0.2784 -0.6598
10906TIP3    H254134   1.035   0.466   4.988 -1.3423 -0.3760  0.8337
10907TIP3   OH254135   4.521   1.388  13.847  0.4361 -0.2058 -0.1700
10907TIP3    H154136   4.440   1.423  13.810 -1.3153  0.8080  4.0578
10907TIP3    H254137   4.499   1.298  13.871  0.8530 -0.2220  0.1597
10908TIP3   OH254138   1.344   1.107   2.663  0.0440  0.3295 -0.4551
10908TIP3    H154139   1.419   1.163   2.643 -0.5905  1.2914 -0.2069
10908TIP3    H254140   1.342   1.043   2.591  1.2051  0.1651 -0.3608
10909TIP3   OH254141   2.540   0.649   5.666 -0.4448 -0.2034  0.1596
10909TIP3    H154142   2.498   0.680   5.747  0.2768  1.1027  0.0769
10909TIP3    H254143   2.610   0.713   5.651 -0.2533 -0.7209 -1.2298
10910TIP3   OH254144   2.646   6.476  10.970  0.6876  0.0336  0.2816
10910TIP3    H154145   2.652   6.462  11.065 -0.6174 -0.8511  0.2643
10910TIP3    H254146   2.552   6.486  10.953  1.0219  2.0075 -0.7037
10911TIP3   OH254147   6.047   6.107   0.194 -0.1796 -0.3478 -0.3327
10911TIP3    H154148   6.089   6.033   0.150  1.7146 -0.4537  1.4779
10911TIP3    H254149   6.111   6.178   0.186 -1.1033  0.5126 -0.2927
10912TIP3   OH254150   5.711   0.925  14.780  0.6911 -0.0530 -0.5067
10912TIP3    H154151   5.794   0.879  14.769  0.7850  0.2372 -1.0689
10912TIP3    H254152   5.704   0.980  14.702 -0.1252 -0.2271 -0.5630
10913TIP3   OH254153   3.068   0.189  12.607  0.2892  0.0400  0.3931
10913TIP3    H154154   3.137   0.152  12.553  0.0040  2.8260 -2.0994
10913TIP3    H254155   3.114   0.247  12.668  0.3794 -1.0203  1.3754
10914TIP3   OH254156   2.107   3.021  11.656  0.1368  0.1906  0.0381
10914TIP3    H154157   2.093   3.074  11.577  0.5018  0.4157  0.1202
10914TIP3    H254158   2.192   3.050  11.689  1.3873 -1.9887 -1.1219
10915TIP3   OH254159   2.707   4.526  16.476  0.2621 -0.3661 -0.0264
10915TIP3    H154160   2.789   4.482  16.496  0.7229  0.1650 -0.7167
10915TIP3    H254161   2.731   4.600  16.421 -0.8969 -1.4888 -2.1576
10916TIP3   OH254162   4.931   5.277   0.985 -0.0491 -0.3389 -0.1336
10916TIP3    H154163   4.953   5.195   1.030 -0.5003 -0.4723 -0.1591
10916TIP3    H254164   4.857   5.313   1.035 -0.1480 -0.1738 -0.3985
10917TIP3   OH254165   1.842   2.963   4.880  0.0251 -0.2312 -0.4532
10917TIP3    H154166   1.916   3.022   4.867 -0.2076 -0.0121 -0.8125
10917TIP3    H254167   1.833   2.956   4.975  0.5055 -0.2621 -0.4104
10918TIP3   OH254168   0.012   1.621   2.150  0.7700 -0.1218  0.7163
10918TIP3    H154169  -0.069   1.672   2.142  0.7533  0.3289  3.0567
10918TIP3    H254170   0.076   1.684   2.184  1.9861 -0.6284 -0.5293
10919TIP3   OH254171   3.888   4.719   2.833 -0.0489  0.1027  0.5952
10919TIP3    H154172   3.853   4.753   2.916  0.7992  2.5506  0.0303
10919TIP3    H254173   3.916   4.629   2.854 -1.9801 -0.1654  2.3122
10920TIP3   OH254174   5.323   0.712   0.457  0.3391  0.4758 -1.2615
10920TIP3    H154175   5.398   0.655   0.442 -1.2096 -2.4965  1.0315
10920TIP3    H254176   5.345   0.761   0.536 -0.2233 -0.8095 -0.2572
10921TIP3   OH254177   0.968   0.177   3.180  0.1216 -0.1806 -0.2533
10921TIP3    H154178   0.976   0.208   3.089  1.1241 -0.7109 -0.3618
10921TIP3    H254179   0.907   0.238   3.221  0.6509  0.8512 -0.9514
10922TIP3   OH254180   0.616   5.596   1.677 -0.4032  0.9102  0.0321
10922TIP3    H154181   0.672   5.651   1.622 -1.1510  0.0064 -1.7194
10922TIP3    H254182   0.635   5.625   1.766  0.4436  2.8440 -0.7059
10923TIP3   OH254183   1.103   0.344   1.625 -0.1814 -0.1741 -0.4586
10923TIP3    H154184   1.025   0.382   1.586 -0.0902 -0.5584 -1.0337
10923TIP3    H254185   1.169   0.347   1.555  0.1085 -0.4863 -0.2022
10924TIP3   OH254186   4.639   6.273  16.860  0.0617 -0.5924 -0.4472
10924TIP3    H154187   4.640   6.216  16.937 -1.5476 -0.2292 -0.1203
10924TIP3    H254188   4.575   6.232  16.801 -1.6101  1.1373  0.0558
10925TIP3   OH254189   5.956   0.362   0.820  0.5089  0.1417  0.0134
10925TIP3    H154190   5.989   0.325   0.738 -0.2630  1.0019 -0.7077
10925TIP3    H254191   5.861   0.350   0.815  0.1567  2.6556 -0.5194
10926TIP3   OH254192   4.287   6.648   4.627  0.0491  0.3187 -0.1143
10926TIP3    H154193   4.300   6.661   4.721  2.6836 -1.0308 -0.2065
10926TIP3    H254194   4.266   6.735   4.593 -1.5865  0.7412  1.7389
10927TIP3   OH254195   1.679   5.021   2.743 -0.0407  0.2721  0.0174
10927TIP3    H154196   1.662   5.050   2.653  0.9374 -0.5864 -0.4740
10927TIP3    H254197   1.695   4.927   2.734  2.2849  0.5431  0.7440
10928TIP3   OH254198   6.590   5.540   0.255  0.2798 -0.5852 -0.4006
10928TIP3    H154199   6.549   5.608   0.202 -1.1632 -1.2648 -0.2142
10928TIP3    H254200   6.605   5.582   0.340  2.4255  0.4454 -1.2114
10929TIP3   OH254201   2.426   0.123   6.175 -0.3273 -0.0502 -0.0419
10929TIP3    H154202   2.434   0.031   6.198  1.7974 -0.6818 -2.7446
10929TIP3    H254203   2.333   0.142   6.180 -0.7010 -2.0405  1.5272
10930TIP3   OH254204   6.688   4.791  15.176 -0.0435  0.2334  0.0911
10930TIP3    H154205   6.760   4.817  15.233  0.1643 -0.4423  0.1537
10930TIP3    H254206   6.614   4.777  15.235 -0.1704  0.7217  0.0511
10931TIP3   OH254207   5.862   4.461   2.372 -0.2008 -0.3817 -0.0593
10931TIP3    H154208   5.843   4.494   2.285  0.8511 -0.8982 -0.5123
10931TIP3    H254209   5.836   4.531   2.431 -0.8246  0.0162 -0.7911
10932TIP3   OH254210   4.548   5.912   2.634  0.3471  0.7684 -0.4789
10932TIP3    H154211   4.535   5.995   2.679 -1.0444  0.9503 -1.1503
10932TIP3    H254212   4.545   5.934   2.541  1.5309  0.1740 -0.6704
10933TIP3   OH254213   0.286   5.289   3.342  0.0994 -0.7653  0.7424
10933TIP3    H154214   0.292   5.346   3.265  0.8637  2.1303  2.7933
10933TIP3    H254215   0.374   5.255   3.354  0.2033 -0.4736  0.8299
10934TIP3   OH254216   4.559   5.392   4.279 -0.2463  0.5219  0.1455
10934TIP3    H154217   4.546   5.484   4.301 -0.6789  0.7620 -1.0471
10934TIP3    H254218   4.544   5.345   4.361 -0.1542  1.4969  0.7299
10935TIP3   OH254219   4.838   6.509   1.959  0.2042 -0.0472  0.0059
10935TIP3    H154220   4.769   6.443   1.960 -0.0911  0.2356  1.8163
10935TIP3    H254221   4.910   6.467   1.912 -1.0667 -0.4424 -1.6796
10936TIP3   OH254222   0.736   4.419   6.043  0.1030  0.5969  0.0875
10936TIP3    H154223   0.827   4.393   6.036 -0.3051 -0.6257 -1.1185
10936TIP3    H254224   0.729   4.463   6.128  1.6430  0.0676  0.5045
10937TIP3   OH254225   0.697   2.270  15.295  0.0080  0.3919  0.2459
10937TIP3    H154226   0.793   2.265  15.293  0.0887  1.7113 -0.7484
10937TIP3    H254227   0.676   2.340  15.233 -1.6269 -0.1287  0.1765
10938TIP3   OH254228   4.726   1.180  11.408 -0.3270 -0.4720 -0.1940
10938TIP3    H154229   4.660   1.192  11.341  0.0990  0.0971 -0.5198
10938TIP3    H254230   4.700   1.240  11.478  0.6157  0.8422 -0.9236
10939TIP3   OH254231   5.574   1.044  11.246  0.1699  0.0020  0.1348
10939TIP3    H154232   5.646   1.086  11.293  0.5045 -0.2136 -0.1768
10939TIP3    H254233   5.557   0.964  11.295  0.5253 -0.2276 -0.1132
10940TIP3   OH254234   3.219   5.645  14.729  0.7283 -0.6473  0.6539
10940TIP3    H154235   3.214   5.668  14.636 -0.9789  2.3689  1.3611
10940TIP3    H254236   3.298   5.688  14.761  1.1997 -1.5086  0.6888
10941TIP3   OH254237   0.205   1.354   2.899  0.6858 -0.1746  0.9257
10941TIP3    H154238   0.193   1.435   2.948 -0.1310  0.0336  0.3953
10941TIP3    H254239   0.171   1.286   2.957  0.2058  0.0128  0.8712
10942TIP3   OH254240   0.281   3.298   4.959  0.1690  0.4154 -0.1323
10942TIP3    H154241   0.279   3.253   5.044  1.1259  1.1314  0.2893
10942TIP3    H254242   0.332   3.377   4.976  1.6762 -0.1574 -1.7235
10943TIP3   OH254243   5.190   0.819   5.006 -0.2623  0.5946 -0.0651
10943TIP3    H154244   5.206   0.724   4.999  0.1629  0.5981  0.6850
10943TIP3    H254245   5.099   0.830   4.980  0.4008  0.3463 -2.8422
10944TIP3   OH254246   5.610   1.462  16.105  0.5167  0.0488  0.1313
10944TIP3    H154247   5.645   1.481  16.192  0.3933  1.0984 -0.0296
10944TIP3    H254248   5.664   1.390  16.072  0.8639 -0.0483  0.8865
10945TIP3   OH254249   5.712   0.484   0.618 -0.3451 -0.1795  0.0714
10945TIP3    H154250   5.787   0.543   0.618  0.2677 -0.9331 -0.8638
10945TIP3    H254251   5.750   0.397   0.617 -1.2259 -0.6712  2.2135
10946TIP3   OH254252   1.230   3.382   3.896 -0.2056 -0.1967 -0.5789
10946TIP3    H154253   1.182   3.318   3.947  1.5682 -0.8353  0.3769
10946TIP3    H254254   1.277   3.435   3.960 -0.0013  0.6951 -1.4351
10947TIP3   OH254255   5.848   3.635   5.835 -0.2126  0.0605  0.3549
10947TIP3    H154256   5.916   3.673   5.889 -0.6320  0.9916  0.2436
10947TIP3    H254257   5.801   3.710   5.798 -0.5175 -0.5557 -0.5597
10948TIP3   OH254258   6.202   2.410  14.335  0.0879 -0.5146 -0.0693
10948TIP3    H154259   6.141   2.354  14.382  0.5391 -1.0418 -0.0990
10948TIP3    H254260   6.168   2.499  14.347 -0.4630 -0.7638  0.2362
10949TIP3   OH254261   6.115   6.165  12.792 -0.5042  0.9516 -0.4368
10949TIP3    H154262   6.097   6.124  12.708 -0.3552  1.7206 -0.8525
10949TIP3    H254263   6.115   6.092  12.855  0.0799  0.2783 -1.1963
10950TIP3   OH254264   3.151   6.213  12.807 -0.1283  0.3270  0.6158
10950TIP3    H154265   3.089   6.161  12.858 -1.2545  1.0705  0.0536
10950TIP3    H254266   3.166   6.291  12.860 -0.8556  0.8368  0.0867
10951TIP3   OH254267   4.493   3.306   3.740 -0.5164  0.7180  0.2938
10951TIP3    H154268   4.518   3.216   3.765  0.9296  1.0748  0.2192
10951TIP3    H254269   4.574   3.346   3.710 -1.0446  2.2080  0.7583
10952TIP3   OH254270   3.448   0.735  16.546  0.7316 -0.6818  0.9015
10952TIP3    H154271   3.374   0.715  16.489 -0.8083  0.5705  2.3491
10952TIP3    H254272   3.523   0.691  16.506 -0.9029 -2.4961 -0.2965
10953TIP3   OH254273   0.407   0.292  16.945  0.0894  0.4234 -0.3410
10953TIP3    H154274   0.328   0.333  16.981  0.2474  1.1250 -0.7730
10953TIP3    H254275   0.412   0.324  16.855 -0.9963 -2.3032 -1.4653
10954TIP3   OH254276   1.540   2.576  10.528 -0.5612 -0.0777 -0.1035
10954TIP3    H154277   1.576   2.664  10.526  1.4004 -0.8253  0.1785
10954TIP3    H254278   1.543   2.547  10.437  1.9558 -0.9980  0.1962
10955TIP3   OH254279   4.403   2.856   1.716  0.0004 -0.4551 -0.0074
10955TIP3    H154280   4.345   2.907   1.658  0.0168  0.3680  0.6715
10955TIP3    H254281   4.361   2.861   1.802  0.0274 -1.5842  0.0831
10956TIP3   OH254282   1.492   2.198   5.899 -0.1021  0.4608 -0.0564
10956TIP3    H154283   1.579   2.229   5.924 -0.7619  0.9065  1.8836
10956TIP3    H254284   1.438   2.277   5.899 -0.5412  0.1778 -1.1838
10957TIP3   OH254285   1.220   0.286  11.928 -0.3402  0.2732 -0.0919
10957TIP3    H154286   1.275   0.332  11.864  1.6172 -0.7433  0.7655
10957TIP3    H254287   1.251   0.318  12.013 -1.1409 -0.2753  0.4161
10958TIP3   OH254288   1.097   2.796   1.516  0.2119 -0.1549  0.3423
10958TIP3    H154289   1.128   2.741   1.444 -0.3744  0.8607 -0.7079
10958TIP3    H254290   1.158   2.870   1.517 -1.2773  1.1402 -0.8227
10959TIP3   OH254291   0.114   1.088   6.073 -0.5991  0.3508  0.2512
10959TIP3    H154292   0.153   1.165   6.114 -2.2880  0.8933  0.9521
10959TIP3    H254293   0.066   1.045   6.145 -2.2846  0.4137 -0.7895
10960TIP3   OH254294   4.596   2.848   2.596  0.6239  0.2496  0.0950
10960TIP3    H154295   4.682   2.883   2.621  0.5097  1.5782 -1.2680
10960TIP3    H254296   4.612   2.754   2.584  1.5070  0.2074  1.4091
10961TIP3   OH254297   1.635   4.866  14.319  0.0788  0.3504 -0.6530
10961TIP3    H154298   1.623   4.961  14.319  2.5889  0.7361 -0.3542
10961TIP3    H254299   1.614   4.840  14.229 -1.4593  1.0119 -0.5237
10962TIP3   OH254300   4.462   0.651   4.423  0.3076  0.0231  0.2579
10962TIP3    H154301   4.368   0.637   4.424  0.1795  0.7858  1.2845
10962TIP3    H254302   4.482   0.679   4.334 -0.0281 -2.4423 -0.6700
10963TIP3   OH254303   5.499   4.971   4.783 -0.4753 -0.5681  0.1453
10963TIP3    H154304   5.404   4.973   4.785 -0.5234  2.4974 -0.5779
10963TIP3    H254305   5.521   4.973   4.689  0.1954  2.4777  0.2880
10964TIP3   OH254306   5.174   0.746  13.481 -0.1507 -0.0860 -0.6543
10964TIP3    H154307   5.089   0.781  13.452 -0.7673 -0.9690  0.0246
10964TIP3    H254308   5.184   0.664  13.431 -2.0417 -2.5702  2.6217
10965TIP3   OH254309   3.679   4.389  13.239 -0.8491 -0.2172  0.1346
10965TIP3    H154310   3.751   4.381  13.302  0.8272 -0.5924 -1.7397
10965TIP3    H254311   3.600   4.381  13.293  0.3957  2.1547  2.5528
10966TIP3   OH254312   1.055   5.093   2.642 -0.4468  0.3755 -0.2045
10966TIP3    H154313   1.088   5.035   2.573 -0.4516 -0.2034  0.2758
10966TIP3    H254314   1.126   5.156   2.656  0.7734 -1.2247  1.2563
10967TIP3   OH254315   5.440   5.737  11.522  0.1299  0.3353 -0.8091
10967TIP3    H154316   5.403   5.661  11.477  1.4130  0.0601 -1.4414
10967TIP3    H254317   5.448   5.803  11.453 -1.4351  1.2463 -0.1681
10968TIP3   OH254318   0.150   6.653   0.598 -0.2649  0.1929 -0.3463
10968TIP3    H154319   0.176   6.745   0.597 -1.0873  0.4281 -0.6394
10968TIP3    H254320   0.078   6.647   0.535 -0.6903 -0.5076  0.1834
10969TIP3   OH254321   2.612   0.239   2.570 -0.0099  0.3285 -0.0916
10969TIP3    H154322   2.696   0.196   2.584 -0.4610  0.1704  2.5204
10969TIP3    H254323   2.616   0.269   2.479  2.2724 -0.9075 -0.4812
10970TIP3   OH254324   0.908   6.280   0.483 -0.1345 -0.1632  0.3132
10970TIP3    H154325   0.937   6.190   0.467 -0.1423 -0.3141  1.1065
10970TIP3    H254326   0.921   6.293   0.577  2.4473  1.5602 -0.1729
10971TIP3   OH254327   0.983   4.175  14.846 -0.1831 -0.2183  0.1413
10971TIP3    H154328   1.010   4.256  14.889 -0.9193  0.3085 -0.3598
10971TIP3    H254329   0.919   4.136  14.905 -0.1852 -0.1920  0.1567
10972TIP3   OH254330   3.370   5.387  11.278 -0.2719 -0.0578  0.0912
10972TIP3    H154331   3.339   5.340  11.200  0.0180  0.1510 -0.1522
10972TIP3    H254332   3.312   5.463  11.284 -2.2929 -1.6020  1.8315
10973TIP3   OH254333   3.522   0.038   4.866 -0.3762  0.5913  0.0857
10973TIP3    H154334   3.481  -0.035   4.913  0.7336 -0.1673 -0.0914
10973TIP3    H254335   3.532   0.006   4.776  1.0600  0.5476  0.2398
10974TIP3   OH254336   3.023   0.083  15.363 -0.6645  0.0065 -0.4532
10974TIP3    H154337   3.037   0.174  15.389 -0.8057 -0.1900  0.3286
10974TIP3    H254338   2.936   0.084  15.321 -0.0034  0.5107 -1.8774
10975TIP3   OH254339   2.281   4.970  11.122 -0.5865 -0.1934  0.1474
10975TIP3    H154340   2.345   4.952  11.191  0.3271  0.3760 -0.5254
10975TIP3    H254341   2.269   4.886  11.077  0.5106 -0.0778 -0.3876
10976TIP3   OH254342   4.049   5.695  13.523  0.0561 -0.1454 -0.6840
10976TIP3    H154343   4.068   5.786  13.546 -0.0251  0.1036 -1.5695
10976TIP3    H254344   3.960   5.697  13.488  0.5336 -0.3375 -1.9379
10977TIP3   OH254345   0.083   2.964   1.176  0.3496  0.0407 -0.4315
10977TIP3    H154346  -0.003   2.946   1.214  0.7456  0.2923  0.6174
10977TIP3    H254347   0.103   3.053   1.203  2.6210 -1.2514  2.7509
10978TIP3   OH254348   3.442   0.442  13.519  0.4801  0.2473 -0.4918
10978TIP3    H154349   3.478   0.512  13.466 -0.1884 -0.5340 -2.0494
10978TIP3    H254350   3.482   0.362  13.484  0.4024 -0.2486  0.5169
10979TIP3   OH254351   0.156   3.437   2.304 -0.7391  0.0980  0.0535
10979TIP3    H154352   0.245   3.457   2.332 -0.5239  0.5757 -0.9256
10979TIP3    H254353   0.103   3.447   2.383  0.0206  0.1948  0.5559
10980TIP3   OH254354   1.326   2.973   1.923  0.5099 -0.5310  0.1582
10980TIP3    H154355   1.365   2.921   1.853  1.2522 -0.7791  0.7481
10980TIP3    H254356   1.272   2.910   1.972  0.1816 -0.4070 -0.0350
10981TIP3   OH254357   4.606   2.254  16.311  0.2692  0.0700 -0.2927
10981TIP3    H154358   4.650   2.259  16.226  0.8473  2.1596  0.0695
10981TIP3    H254359   4.518   2.222  16.290  0.0023  1.6761 -1.8651
10982TIP3   OH254360   6.752   5.901  16.737  0.1666  0.0457 -0.1704
10982TIP3    H154361   6.834   5.946  16.756  0.3598 -0.0746 -0.7253
10982TIP3    H254362   6.777   5.824  16.686 -0.4145  0.8122 -1.6834
10983TIP3   OH254363   5.744   6.291   0.785 -0.1228 -0.0116 -0.0442
10983TIP3    H154364   5.704   6.247   0.711 -2.0354  0.0424  0.8786
10983TIP3    H254365   5.730   6.232   0.859  0.5127  0.5409  0.5390
10984TIP3   OH254366   4.098   1.622   4.230 -0.0352  0.1863 -0.3458
10984TIP3    H154367   4.038   1.672   4.174 -0.8101 -0.1583  0.1569
10984TIP3    H254368   4.042   1.588   4.300  0.8820  0.4057  0.4995
10985TIP3   OH254369   5.966   4.172   1.204 -0.2350 -0.1957 -0.0413
10985TIP3    H154370   6.035   4.107   1.195  2.2121  1.9690  1.7279
10985TIP3    H254371   5.934   4.161   1.294  1.1855  1.8135  0.7788
10986TIP3   OH254372   4.221   1.341  15.117 -0.3774 -0.1319 -0.3470
10986TIP3    H154373   4.287   1.280  15.083 -1.0252 -0.9090 -0.2362
10986TIP3    H254374   4.270   1.400  15.174  0.2313 -0.6867 -0.2841
10987TIP3   OH254375   2.491   2.328   3.371  0.7610  0.3194  0.7214
10987TIP3    H154376   2.403   2.365   3.364  0.4640 -0.6074 -1.0704
10987TIP3    H254377   2.550   2.401   3.352  0.2780  0.4697 -0.2726
10988TIP3   OH254378   1.382   6.038  10.962  0.3250 -0.1711  0.0919
10988TIP3    H154379   1.306   5.995  11.001  0.4184  0.1598  0.6522
10988TIP3    H254380   1.434   5.966  10.926  1.1480 -0.7188  2.1878
10989TIP3   OH254381   6.534   2.977  11.217  0.4026 -0.1050  0.0522
10989TIP3    H154382   6.477   2.995  11.141  0.7240 -1.3406 -0.5121
10989TIP3    H254383   6.585   3.057  11.228  1.5479 -0.4388 -2.1294
10990TIP3   OH254384   6.380   4.656   3.494  0.3650 -0.0189 -0.1615
10990TIP3    H154385   6.352   4.636   3.405 -1.1570  1.7058 -0.1290
10990TIP3    H254386   6.475   4.646   3.492  0.3707  0.0250 -1.9863
10991TIP3   OH254387   1.977   0.046  10.745 -0.0213 -0.4844 -0.4292
10991TIP3    H154388   1.910   0.103  10.707 -1.6016  0.2742  3.0731
10991TIP3    H254389   1.933  -0.038  10.759 -0.0239 -0.2712  1.0252
10992TIP3   OH254390   6.443   1.817   2.513  0.4491  1.3117 -0.5273
10992TIP3    H154391   6.511   1.758   2.482  1.1105  2.0946 -0.5846
10992TIP3    H254392   6.372   1.806   2.449  0.4118  0.3146 -0.3304
10993TIP3   OH254393   1.168   0.971   1.438  0.2260  0.1520  0.1698
10993TIP3    H154394   1.213   0.972   1.523  2.4659 -2.5811 -0.8221
10993TIP3    H254395   1.095   0.910   1.451  0.3209  0.0533  0.2452
10994TIP3   OH254396   6.288   0.293   1.695  0.3257  0.4525 -0.6416
10994TIP3    H154397   6.238   0.322   1.618  0.4459  1.3965 -0.3788
10994TIP3    H254398   6.342   0.221   1.663 -1.9887 -1.3776 -0.6809
10995TIP3   OH254399   3.404   3.524  16.848 -0.5078 -0.9907  0.1860
10995TIP3    H154400   3.383   3.523  16.755 -0.6314  0.5049  0.1712
10995TIP3    H254401   3.349   3.455  16.886 -0.0818 -1.9664 -0.9048
10996TIP3   OH254402   4.866   5.111   1.373  0.3581  0.6301 -1.0032
10996TIP3    H154403   4.911   5.048   1.317 -1.1613 -0.8568 -0.6221
10996TIP3    H254404   4.832   5.059   1.446 -0.8735  1.8964 -0.6342
10997TIP3   OH254405   0.004   4.877  14.549  0.0409  0.7445  0.3387
10997TIP3    H154406   0.076   4.933  14.520  0.2881 -0.9972 -2.9472
10997TIP3    H254407   0.026   4.853  14.639  4.4209 -0.7873 -0.8839
10998TIP3   OH254408   4.074   6.305  11.879  0.3823 -0.1102  0.0189
10998TIP3    H154409   4.101   6.215  11.893 -0.0272 -0.0916  1.0108
10998TIP3    H254410   4.151   6.357  11.901 -0.0791 -0.1126  1.7756
10999TIP3   OH254411   4.213   0.193  14.636 -0.3620 -0.1332 -0.2390
10999TIP3    H154412   4.261   0.276  14.630 -0.5114  0.0282  0.6872
10999TIP3    H254413   4.220   0.167  14.727 -0.6076 -0.9773 -0.4500
11000TIP3   OH254414   1.504   4.892   3.159 -0.8168  0.1047 -0.3721
11000TIP3    H154415   1.567   4.949   3.116  1.3789 -1.8852 -0.0241
11000TIP3    H254416   1.456   4.850   3.088  0.0268 -0.2239 -0.7517
11001TIP3   OH254417   0.793   5.155   2.539  0.3672 -0.0289 -0.0537
11001TIP3    H154418   0.884   5.138   2.563 -0.1002 -0.7667  1.2980
11001TIP3    H254419   0.789   5.249   2.524  1.2209  0.1080  0.4928
11002TIP3   OH254420   2.614   1.185   0.917  0.3308 -0.0592 -0.2244
11002TIP3    H154421   2.644   1.127   0.987 -0.9820  1.2680  1.5353
11002TIP3    H254422   2.546   1.136   0.873  0.6773 -0.6516 -0.1118
11003TIP3   OH254423   4.194   1.130   2.224  0.1480 -0.4168 -1.2055
11003TIP3    H154424   4.113   1.080   2.215 -0.0243  0.0110 -2.2007
11003TIP3    H254425   4.165   1.220   2.235  0.4608 -0.0834 -2.7821
11004TIP3   OH254426   0.788   1.646  15.502  0.1913  0.0573 -0.1763
11004TIP3    H154427   0.883   1.642  15.494  0.2288  1.1447 -0.4527
11004TIP3    H254428   0.761   1.713  15.439 -0.5397  1.3174  1.3979
11005TIP3   OH254429   5.101   1.802   0.250 -0.4618 -0.3518 -0.6356
11005TIP3    H154430   5.016   1.843   0.262  0.6326  1.4918  1.6231
11005TIP3    H254431   5.128   1.828   0.162 -0.1078  3.4918  0.4321
11006TIP3   OH254432   3.773   6.258  16.080  0.2077 -0.1023  0.1773
11006TIP3    H154433   3.829   6.321  16.034  0.0015 -0.1991 -0.2132
11006TIP3    H254434   3.722   6.311  16.141  0.9218 -0.0455  0.7360
11007TIP3   OH254435   2.191   3.602  14.262  0.0327  0.2462  0.1702
11007TIP3    H154436   2.248   3.547  14.315  0.8999  0.3446 -0.6354
11007TIP3    H254437   2.119   3.544  14.237  0.0330 -0.0231  0.7735
11008TIP3   OH254438   4.260   2.592  15.942  0.0539 -0.1702 -0.0138
11008TIP3    H154439   4.206   2.645  16.001  1.5925  0.6620  0.7052
11008TIP3    H254440   4.213   2.595  15.858  0.1478  2.5548 -0.0650
11009TIP3   OH254441   4.268   5.541  13.632  0.0771  0.0830 -0.4296
11009TIP3    H154442   4.194   5.577  13.584  0.4857  0.4609 -0.7852
11009TIP3    H254443   4.345   5.568  13.582  0.5603  1.1154  0.8045
11010TIP3   OH254444   0.229   4.097   2.412  0.0891 -0.1964  0.4305
11010TIP3    H154445   0.232   4.171   2.351 -1.0477  0.7961  1.5124
11010TIP3    H254446   0.146   4.054   2.394  0.1782 -0.4531  0.6311
11011TIP3   OH254447   2.145   1.670  17.092 -0.7442 -0.3523  0.2303
11011TIP3    H154448   2.142   1.735  17.162 -0.6306 -0.2941  0.1811
11011TIP3    H254449   2.228   1.686  17.048 -0.6292 -0.6507  0.3330
11012TIP3   OH254450   5.647   6.480  12.712  0.6219 -0.0067  0.4927
11012TIP3    H154451   5.579   6.439  12.765 -0.0905 -0.0808 -0.4540
11012TIP3    H254452   5.647   6.431  12.630  0.7084  0.9890 -0.1237
11013TIP3   OH254453   5.786   3.003  16.323  0.0240  0.0211 -0.2320
11013TIP3    H154454   5.750   2.919  16.296  0.3297 -0.7027  1.4877
11013TIP3    H254455   5.838   3.032  16.248 -2.2229  0.0075 -1.8846
11014TIP3   OH254456   1.617   3.118   1.821  0.0045 -0.1456 -0.3342
11014TIP3    H154457   1.620   3.024   1.802 -2.2108 -0.8161  1.9900
11014TIP3    H254458   1.535   3.129   1.870  0.6353  2.8739  0.2056
11015TIP3   OH254459   5.643   1.936   0.352  0.1903  0.2948 -0.3632
11015TIP3    H154460   5.561   1.887   0.361 -0.3855  0.7028 -2.6174
11015TIP3    H254461   5.711   1.875   0.379 -0.7687 -0.3994  0.5798
11016TIP3   OH254462   4.809   2.013  11.303 -0.3301  0.0615  0.5084
11016TIP3    H154463   4.887   2.052  11.344  0.2238 -0.3147 -0.1837
11016TIP3    H254464   4.783   2.076  11.236 -1.6827  1.0438  1.8803
11017TIP3   OH254465   2.199   0.732  16.509 -0.5818  0.2163  0.1599
11017TIP3    H154466   2.250   0.681  16.573 -1.5255  1.7129  2.2368
11017TIP3    H254467   2.226   0.823  16.524 -0.8193  0.6248 -1.6491
11018TIP3   OH254468   3.950   4.643   1.054  0.4023  0.1181 -0.2421
11018TIP3    H154469   4.018   4.669   1.116  0.2782 -0.0393 -0.0410
11018TIP3    H254470   3.907   4.725   1.030  0.3443  0.1593  0.0022
11019TIP3   OH254471   0.767   5.685  16.847  0.2410 -0.2746  0.6591
11019TIP3    H154472   0.807   5.600  16.829 -1.8754 -1.1797 -0.0652
11019TIP3    H254473   0.732   5.676  16.936 -1.0023 -0.6329  0.1604
11020TIP3   OH254474   3.655   3.677   1.870 -0.2505 -0.4749 -0.2852
11020TIP3    H154475   3.645   3.728   1.790  2.6329 -1.6748 -1.5186
11020TIP3    H254476   3.712   3.730   1.926 -1.0115 -0.3282  0.3726
11021TIP3   OH254477   4.112   6.135   0.136 -0.2768 -0.6015  0.5150
11021TIP3    H154478   4.105   6.040   0.147 -1.3389 -0.6054 -0.0937
11021TIP3    H254479   4.083   6.152   0.047  1.2329  0.1804  0.1276
11022TIP3   OH254480   6.640   1.746  16.584  0.6277 -0.1252  0.0861
11022TIP3    H154481   6.574   1.815  16.572  0.4082 -0.5871 -1.7103
11022TIP3    H254482   6.632   1.722  16.676 -1.5595  0.0215  0.0049
11023TIP3   OH254483   5.177   3.410  15.422 -0.1393  0.4088  0.0348
11023TIP3    H154484   5.112   3.401  15.352  0.8992  0.1579 -0.9301
11023TIP3    H254485   5.184   3.505  15.436 -0.5886  0.4449  0.0396
11024TIP3   OH254486   0.514   6.681   3.733  0.3120 -0.0567  0.0520
11024TIP3    H154487   0.420   6.664   3.724  0.2669 -0.3531  0.9663
11024TIP3    H254488   0.520   6.764   3.780  0.5175  0.2139 -0.4396
11025TIP3   OH254489   3.288   5.753  15.245  0.2239 -0.5319  0.3914
11025TIP3    H154490   3.291   5.662  15.275 -2.3279 -0.8767 -0.2182
11025TIP3    H254491   3.233   5.798  15.309 -0.3508  0.0587 -0.4926
11026TIP3   OH254492   3.844   3.060  14.159 -0.8742 -0.5707  0.5795
11026TIP3    H154493   3.899   3.104  14.093 -1.2315 -0.0651  0.6106
11026TIP3    H254494   3.813   3.131  14.215 -0.9288 -0.9489  1.0321
11027TIP3   OH254495   5.849   2.736   2.053 -0.1158  0.0041 -0.1587
11027TIP3    H154496   5.774   2.678   2.045 -0.2096  0.1543 -0.3782
11027TIP3    H254497   5.811   2.824   2.046 -0.0873  0.1284  0.9507
11028TIP3   OH254498   2.241   5.761  16.692  0.3908  0.5978  0.0841
11028TIP3    H154499   2.218   5.805  16.610  1.3139  0.7305 -0.1144
11028TIP3    H254500   2.275   5.832  16.747  1.7831  0.1801 -0.1955
11029TIP3   OH254501   0.651   4.378   1.920 -0.0484  0.4720 -0.2005
11029TIP3    H154502   0.604   4.440   1.864 -1.1453  1.1508  1.3891
11029TIP3    H254503   0.583   4.322   1.955  0.7411 -0.5582 -0.2794
11030TIP3   OH254504   3.723   2.850   4.926 -0.2322  0.7557  0.1218
11030TIP3    H154505   3.652   2.807   4.974 -1.4277  1.3064 -1.1049
11030TIP3    H254506   3.687   2.934   4.898  1.3090  1.5918  0.4906
11031TIP3   OH254507   5.118   6.517  16.057  0.6838 -0.1815 -0.4719
11031TIP3    H154508   5.053   6.587  16.065 -0.8577 -1.5000 -1.0273
11031TIP3    H254509   5.159   6.513  16.143  0.2045  0.8438 -0.1779
11032TIP3   OH254510   0.874   2.629   1.556  0.0367 -0.0924 -0.3497
11032TIP3    H154511   0.962   2.664   1.549 -0.0349  0.0777 -0.4161
11032TIP3    H254512   0.817   2.704   1.539 -0.1152 -0.3030 -0.8000
11033TIP3   OH254513   3.568   3.556  14.121 -0.4400  0.5164 -0.4094
11033TIP3    H154514   3.513   3.621  14.077 -0.9671  2.2589  2.5149
11033TIP3    H254515   3.507   3.502  14.170  0.1536 -1.0189 -1.2972
11034TIP3   OH254516   2.937   3.355   4.691 -0.2570 -0.2386 -0.4182
11034TIP3    H154517   3.009   3.342   4.752 -0.7576 -3.2148 -0.3403
11034TIP3    H254518   2.866   3.301   4.725 -1.7135  0.6571 -1.8545
11035TIP3   OH254519   0.390   5.987  11.588  0.4252  0.7831  0.0113
11035TIP3    H154520   0.462   6.050  11.596  1.0053  0.0687  0.5616
11035TIP3    H254521   0.433   5.903  11.571 -0.2138  0.1906  1.1960
11036TIP3   OH254522   5.941   5.639   3.010  0.0401 -0.1283  0.5835
11036TIP3    H154523   6.006   5.680   3.067  0.2705  2.0836 -1.1135
11036TIP3    H254524   5.965   5.669   2.922 -1.2975 -2.0201 -0.4892
11037TIP3   OH254525   2.803   4.051   1.686 -0.0247  0.5168 -0.1109
11037TIP3    H154526   2.780   3.989   1.755 -0.1617 -0.2448 -0.8236
11037TIP3    H254527   2.721   4.064   1.637  0.0069  1.2512  0.0200
11038TIP3   OH254528   3.342   0.231  11.087  0.2807  0.4610  0.6959
11038TIP3    H154529   3.308   0.162  11.030  1.7467  0.4644 -0.2387
11038TIP3    H254530   3.362   0.303  11.028  1.2886  0.6774  1.2724
11039TIP3   OH254531   4.749   4.133  16.268 -0.0216  0.0597 -0.0738
11039TIP3    H154532   4.824   4.181  16.304 -0.3680 -1.6628  3.4009
11039TIP3    H254533   4.780   4.100  16.184  2.8837  0.0970  0.8507
11040TIP3   OH254534   4.725   6.499   1.418 -0.3743 -0.2624 -0.4398
11040TIP3    H154535   4.658   6.486   1.485 -0.9058 -0.7437 -1.0479
11040TIP3    H254536   4.777   6.419   1.421  1.7513  1.0801  1.7118
11041TIP3   OH254537   4.885   3.025  15.551  0.0550  1.0276  0.3131
11041TIP3    H154538   4.974   3.050  15.526  0.5424 -1.0861 -0.2941
11041TIP3    H254539   4.897   2.962  15.622 -0.8668 -0.0533 -0.4470
11042TIP3   OH254540   0.240   1.458  16.256 -0.4401 -0.0416  0.3543
11042TIP3    H154541   0.155   1.473  16.215  0.0029  0.3390 -0.4315
11042TIP3    H254542   0.291   1.537  16.236 -0.2706  0.2580  1.8063
11043TIP3   OH254543   1.963   0.946  13.547  0.4774 -0.2949 -0.4467
11043TIP3    H154544   1.884   0.967  13.497 -0.0142  0.4595  0.6091
11043TIP3    H254545   1.997   1.031  13.575 -0.1787 -0.7545  1.8731
11044TIP3   OH254546   0.458   3.076   0.026 -0.1372 -0.0168  0.4743
11044TIP3    H154547   0.524   3.085   0.095 -0.7944  0.1291  1.1042
11044TIP3    H254548   0.476   3.147  -0.035  0.7677 -0.4534  0.2171
11045TIP3   OH254549   0.297   2.533  12.150  0.2587  0.1083 -0.3107
11045TIP3    H154550   0.297   2.601  12.083  1.0295 -0.6402 -1.1073
11045TIP3    H254551   0.251   2.572  12.224 -1.2182  0.7294 -1.4934
11046TIP3   OH254552   1.206   5.096   1.948 -0.0887 -0.1816  0.0862
11046TIP3    H154553   1.208   5.067   1.857  0.6352  0.9655 -0.2860
11046TIP3    H254554   1.262   5.174   1.950 -0.7169  0.2705  1.3527
11047TIP3   OH254555   5.253   3.371   2.525  0.3495 -0.0442  1.0277
11047TIP3    H154556   5.258   3.326   2.609  1.4441 -0.3544  0.8137
11047TIP3    H254557   5.317   3.326   2.469 -1.6055 -1.0223 -0.5624
11048TIP3   OH254558   5.513   3.245   2.663 -0.5331  0.6599 -0.0971
11048TIP3    H154559   5.504   3.155   2.632 -0.0871  0.8686 -0.8519
11048TIP3    H254560   5.606   3.255   2.681 -0.8067  0.4486  1.6542
11049TIP3   OH254561   1.809   4.374  14.124  0.3607  0.6210  0.3073
11049TIP3    H154562   1.795   4.335  14.038  0.8671 -0.1624  0.5644
11049TIP3    H254563   1.754   4.452  14.125  1.7568  1.6754 -1.4066
11050TIP3   OH254564   0.985   6.546   0.335  0.5314  0.1275  0.6070
11050TIP3    H154565   1.059   6.588   0.379  0.1059  0.3049  1.1696
11050TIP3    H254566   0.962   6.473   0.392  0.0241  0.3132  0.6434
11051TIP3   OH254567   3.303   2.143  16.272  0.3422  0.8287 -0.2312
11051TIP3    H154568   3.355   2.162  16.194 -0.1699  0.6224 -0.6318
11051TIP3    H254569   3.352   2.074  16.318  0.3353  0.5141 -0.6924
11052TIP3   OH254570   5.923   4.843  16.984 -0.6092  0.1905  0.6777
11052TIP3    H154571   6.014   4.872  16.977 -0.5188  0.1236  1.4228
11052TIP3    H254572   5.882   4.908  17.041 -0.4364 -1.0358  2.2616
11053TIP3   OH254573   3.981   6.616   0.522 -0.0232  0.1764  0.4827
11053TIP3    H154574   3.980   6.550   0.453 -0.9564 -0.1094  0.7656
11053TIP3    H254575   3.976   6.699   0.476  1.4848  0.0848  0.1046
11054TIP3   OH254576   4.202   3.826  13.414 -0.4183  0.1001  0.0223
11054TIP3    H154577   4.116   3.868  13.408 -0.8334 -0.7493 -0.1029
11054TIP3    H254578   4.248   3.876  13.481  0.2491  2.6887 -2.1933
11055TIP3   OH254579   6.222   6.301   6.075 -0.4495 -0.1225 -0.1242
11055TIP3    H154580   6.147   6.249   6.105  0.4657 -0.8641  0.9412
11055TIP3    H254581   6.217   6.382   6.125 -0.9637  0.1675 -0.6257
11056TIP3   OH254582   0.283   5.235  12.512 -0.3657 -0.0556  0.5934
11056TIP3    H154583   0.276   5.258  12.604  1.3176 -0.1795  0.7860
11056TIP3    H254584   0.358   5.176  12.508 -2.0103 -2.2231 -0.4865
11057TIP3   OH254585   4.788   1.954   5.253 -0.7778 -0.1376  0.2558
11057TIP3    H154586   4.809   2.000   5.172 -0.2567 -0.7139  0.0540
11057TIP3    H254587   4.740   1.876   5.223 -1.9927  0.4545  0.6162
11058TIP3   OH254588   6.463   3.691   1.673  0.1580 -0.5292 -0.1680
11058TIP3    H154589   6.539   3.686   1.615  0.3043 -1.4097  0.0852
11058TIP3    H254590   6.407   3.758   1.634  0.7429 -0.3672 -0.7411
11059TIP3   OH254591   6.284   3.914   6.060 -0.1156  0.2330 -0.3070
11059TIP3    H154592   6.343   3.885   6.129  0.4989 -2.2549 -1.7548
11059TIP3    H254593   6.197   3.888   6.088 -0.2289  1.4832  0.5992
11060TIP3   OH254594   4.599   2.085  13.341  0.1033  0.6353 -0.2826
11060TIP3    H154595   4.553   2.120  13.418 -0.6755  1.5866 -1.1530
11060TIP3    H254596   4.636   2.162  13.298  1.6556 -0.0110 -0.1759
11061TIP3   OH254597   2.013   5.455   6.139 -0.2009  0.3460  0.0070
11061TIP3    H154598   2.102   5.438   6.168 -0.0722 -0.6482 -0.9292
11061TIP3    H254599   1.960   5.387   6.181 -0.1140 -0.6822 -1.4735
11062TIP3   OH254600   6.497   1.481   1.206 -0.0476  0.2981 -0.2056
11062TIP3    H154601   6.585   1.457   1.178 -0.5709 -0.3000 -1.4122
11062TIP3    H254602   6.490   1.575   1.188 -0.1025  0.0790 -1.3590
11063TIP3   OH254603   2.090   1.590   0.632 -0.4915  0.2349  0.0209
11063TIP3    H154604   2.108   1.548   0.548 -0.3076 -0.4597  0.3991
11063TIP3    H254605   2.176   1.601   0.673 -0.7181 -1.2274  0.9540
11064TIP3   OH254606   3.940   0.641  15.597  0.1142  0.1257  0.5950
11064TIP3    H154607   3.889   0.721  15.588 -0.4885 -0.3683 -0.5934
11064TIP3    H254608   3.882   0.571  15.567  0.9857 -0.6278  0.6024
11065TIP3   OH254609   2.256   3.531  13.845 -0.0969  0.5782  0.3770
11065TIP3    H154610   2.284   3.451  13.891  2.5258  1.6178  0.7585
11065TIP3    H254611   2.229   3.500  13.758 -1.4830 -0.9661  1.3042
11066TIP3   OH254612   1.862   3.757   5.593  0.0810 -0.0649  0.7370
11066TIP3    H154613   1.866   3.845   5.556 -0.3842 -0.1002  0.6003
11066TIP3    H254614   1.948   3.744   5.633 -0.1560  0.8156  1.5800
11067TIP3   OH254615   5.249   6.257   0.508  0.2121 -0.1315 -0.5242
11067TIP3    H154616   5.330   6.302   0.485  2.4200 -2.6270  1.8308
11067TIP3    H254617   5.236   6.194   0.437  0.5856 -0.0683 -0.6531
11068TIP3   OH254618   1.200   5.472  11.450  0.2938  0.1427  0.1700
11068TIP3    H154619   1.269   5.410  11.476  0.9135  0.7314 -0.0384
11068TIP3    H254620   1.134   5.418  11.407 -0.5085 -0.7983  2.4227
11069TIP3   OH254621   0.239   0.314   0.320 -0.2932  0.2116  0.1327
11069TIP3    H154622   0.168   0.339   0.379  0.7045 -0.3915  1.6779
11069TIP3    H254623   0.200   0.253   0.258 -1.4666  1.1634 -0.1029
11070TIP3   OH254624   1.412   1.184  13.203 -0.6414  0.2502 -0.0454
11070TIP3    H154625   1.408   1.261  13.259 -0.0034  0.6495 -0.5415
11070TIP3    H254626   1.340   1.195  13.141 -0.8214  0.2280  0.1597
11071TIP3   OH254627   3.479   2.837   4.187  0.1908 -0.0514  0.2231
11071TIP3    H154628   3.483   2.907   4.122 -0.9137 -1.7266 -1.7714
11071TIP3    H254629   3.389   2.841   4.221  0.0770 -0.6010 -0.0135
11072TIP3   OH254630   0.355   1.405   5.666  0.1860 -0.2081 -0.1350
11072TIP3    H154631   0.442   1.434   5.641  0.1236  0.5550  0.5061
11072TIP3    H254632   0.327   1.467   5.733  0.1818 -1.9040  1.5273
11073TIP3   OH254633   0.219   0.967   3.617  0.2449 -0.0702 -0.3921
11073TIP3    H154634   0.218   0.999   3.708  0.8735 -2.6651  0.6286
11073TIP3    H254635   0.128   0.976   3.588  0.1802  1.4887  0.1991
11074TIP3   OH254636   4.348   3.498  12.577  0.2124 -0.2283  0.5234
11074TIP3    H154637   4.415   3.437  12.607 -0.6004 -1.3634  0.1090
11074TIP3    H254638   4.278   3.491  12.642  0.2611  0.5692  0.6804
11075TIP3   OH254639   1.614   1.580   3.535  0.3847 -0.1512  0.3045
11075TIP3    H154640   1.596   1.529   3.457  0.1670  1.0154 -0.4337
11075TIP3    H254641   1.690   1.537   3.575  1.6385  0.2428 -1.5155
11076TIP3   OH254642   5.000   2.194   2.018  0.0678  0.2876  0.0551
11076TIP3    H154643   4.947   2.161   2.091 -0.9438  0.6698 -0.4913
11076TIP3    H254644   4.969   2.146   1.942  1.6390 -0.6553 -0.0342
11077TIP3   OH254645   1.491   0.402   1.729 -0.1944 -0.6890  0.3090
11077TIP3    H154646   1.482   0.481   1.782  0.8227 -0.4329  0.1116
11077TIP3    H254647   1.574   0.364   1.757  0.7773 -0.1238 -1.6413
11078TIP3   OH254648   1.041   0.636   1.721 -0.0281 -0.9095 -0.3164
11078TIP3    H154649   1.110   0.592   1.769 -1.3036 -2.5264  0.1103
11078TIP3    H254650   0.971   0.571   1.712 -1.2595  0.4537 -1.2717
11079TIP3   OH254651   4.883   1.697   3.804  0.1687 -0.5081  0.4721
11079TIP3    H154652   4.933   1.686   3.885  0.7703  0.8166  0.3034
11079TIP3    H254653   4.791   1.690   3.831  0.2652  1.6762  1.6464
11080TIP3   OH254654   2.804   2.062  15.833  0.4050  0.4860  0.1384
11080TIP3    H154655   2.857   2.060  15.753 -1.1415  0.9273 -0.9391
11080TIP3    H254656   2.795   2.155  15.853 -2.5666  0.6860 -1.5680
11081TIP3   OH254657   2.886   6.428  16.368  1.2310  0.6535  0.3567
11081TIP3    H154658   2.904   6.462  16.280  1.7591  0.3677  0.3521
11081TIP3    H254659   2.831   6.495  16.409 -0.0404  0.2382 -0.6137
11082TIP3   OH254660   5.837   3.026   2.088 -0.7933 -0.3687 -0.7653
11082TIP3    H154661   5.756   3.056   2.129 -0.6152 -1.6223  0.5659
11082TIP3    H254662   5.898   3.099   2.101 -1.2955  0.0113 -0.4980
11083TIP3   OH254663   4.721   0.898   6.389 -0.2128 -0.1256 -0.4089
11083TIP3    H154664   4.707   0.807   6.415 -0.3582  0.2190  0.7819
11083TIP3    H254665   4.635   0.939   6.397 -0.0110  0.2732 -0.2334
11084TIP3   OH254666   1.366   1.541  13.254  0.2053  0.2277  0.1196
11084TIP3    H154667   1.321   1.620  13.224 -0.9531 -1.0610 -1.7168
11084TIP3    H254668   1.439   1.530  13.193  0.8983  0.3416  0.9100
11085TIP3   OH254669   4.715   5.212   4.121  0.1164  0.5175 -0.3449
11085TIP3    H154670   4.736   5.289   4.068  1.3672 -0.3809 -1.2135
11085TIP3    H254671   4.686   5.248   4.204 -2.2011  1.9907 -1.6906
11086TIP3   OH254672   4.395   5.509   1.789  0.5015 -0.3462  0.4269
11086TIP3    H154673   4.335   5.583   1.791  2.8248  1.7177 -0.5499
11086TIP3    H254674   4.372   5.460   1.710  0.1768  0.4820  0.0022
11087TIP3   OH254675   3.697   3.843   3.077  0.3046 -0.3358 -0.4862
11087TIP3    H154676   3.643   3.912   3.039  0.2159 -0.3050 -0.3061
11087TIP3    H254677   3.641   3.765   3.075  0.5126 -0.4786 -0.9738
11088TIP3   OH254678   1.959   5.928   2.273  0.0293 -0.6038 -0.2592
11088TIP3    H154679   1.969   5.914   2.367  1.0985  2.4799  0.1968
11088TIP3    H254680   2.040   5.894   2.235  1.0356  0.9627  0.3795
11089TIP3   OH254681   1.653   6.288   5.245  0.2697  0.5669 -0.4586
11089TIP3    H154682   1.569   6.329   5.267  0.1484  0.9303 -1.5090
11089TIP3    H254683   1.631   6.226   5.175  1.0467  1.5364 -1.5947
11090TIP3   OH254684   3.638   5.128  12.126  0.0798 -0.1982 -0.2497
11090TIP3    H154685   3.601   5.196  12.182  1.8936 -0.6677  1.6614
11090TIP3    H254686   3.676   5.064  12.187 -0.8699 -2.5699 -1.9689
11091TIP3   OH254687   1.117   2.985  10.972 -0.4005 -0.2528  0.4476
11091TIP3    H154688   1.162   3.069  10.973 -0.9256  0.0616 -0.5786
11091TIP3    H254689   1.115   2.960  10.879 -1.4557 -0.7359  0.5861
11092TIP3   OH254690   2.518   6.485  16.985 -0.0933  0.3986  0.3616
11092TIP3    H154691   2.436   6.516  17.024 -0.4483 -0.1071  0.0275
11092TIP3    H254692   2.491   6.419  16.921  0.4416  1.6002 -1.1457
11093TIP3   OH254693   6.010   4.096   4.336  0.5731  0.7010 -0.3929
11093TIP3    H154694   5.972   4.020   4.380  4.2258 -1.2295 -0.1574
11093TIP3    H254695   6.022   4.067   4.246  3.1723  0.3729 -0.0174
11094TIP3   OH254696   2.297   2.951  13.348  0.0968  0.1911  0.3347
11094TIP3    H154697   2.367   2.886  13.348  1.8502  1.9695 -1.6728
11094TIP3    H254698   2.276   2.965  13.256 -2.7509 -0.0349  0.8391
11095TIP3   OH254699   0.197   1.290   4.793  0.0107 -0.6715 -0.3938
11095TIP3    H154700   0.192   1.372   4.843 -0.5099  0.3920 -2.1165
11095TIP3    H254701   0.257   1.235   4.844 -2.1248 -0.5116  2.5639
11096TIP3   OH254702   1.533   0.457  15.926 -0.0220 -0.2314 -0.1505
11096TIP3    H154703   1.458   0.402  15.949 -0.6895  0.5794 -0.3107
11096TIP3    H254704   1.511   0.543  15.964 -0.2948  0.6477 -2.1899
11097TIP3   OH254705   3.508   2.678  13.701  0.1109 -0.4566 -0.3846
11097TIP3    H154706   3.532   2.588  13.679  0.0091 -0.3225 -1.0667
11097TIP3    H254707   3.589   2.728  13.690  0.4171 -0.6167  0.9632
11098TIP3   OH254708   5.275   2.804  12.780  0.3389  0.3176 -0.4465
11098TIP3    H154709   5.195   2.755  12.763 -0.9640  2.0649  0.3287
11098TIP3    H254710   5.321   2.753  12.847 -1.2289  0.3578  0.7217
11099TIP3   OH254711   4.625   6.572   4.942  0.5958 -0.1613  0.0837
11099TIP3    H154712   4.637   6.486   4.984  1.7067 -0.9870 -1.8222
11099TIP3    H254713   4.570   6.554   4.866  0.1132  1.0060  0.1309
11100TIP3   OH254714   2.132   1.386   2.687 -0.3703  0.3168 -0.6195
11100TIP3    H154715   2.118   1.433   2.769 -1.3856 -0.9010 -0.0535
11100TIP3    H254716   2.105   1.447   2.618 -0.0922  1.1266 -0.0278
11101TIP3   OH254717   1.915   1.996  11.987  0.0615  0.1838 -0.4344
11101TIP3    H154718   1.972   1.921  12.000 -0.8764 -0.3352  0.7988
11101TIP3    H254719   1.943   2.033  11.903  3.0269  0.6983  0.6876
11102TIP3   OH254720   5.484   6.381   1.047 -0.2268  0.1555  0.6022
11102TIP3    H154721   5.400   6.403   1.008  0.0065  1.4215  0.7788
11102TIP3    H254722   5.532   6.464   1.051  0.3225 -0.1945  2.2058
11103TIP3   OH254723   2.881   0.295   4.350 -0.1288 -0.1975 -0.2113
11103TIP3    H154724   2.835   0.217   4.319  0.1012 -2.1150  3.6420
11103TIP3    H254725   2.814   0.363   4.350 -1.5324 -1.5158  0.1695
11104TIP3   OH254726   1.474   2.350  15.320 -0.0429  0.2582 -0.1392
11104TIP3    H154727   1.448   2.343  15.412  0.7845  1.5122  0.2254
11104TIP3    H254728   1.441   2.435  15.292 -1.4212 -0.6500 -1.4226
11105TIP3   OH254729   2.346   4.041   5.188  0.0081 -0.1741  0.3910
11105TIP3    H154730   2.289   3.975   5.229 -0.2148 -0.2463 -0.0276
11105TIP3    H254731   2.285   4.097   5.139 -0.2730  2.3910  3.3655
11106TIP3   OH254732   3.815   4.613   4.640 -0.0458  0.3476 -0.5029
11106TIP3    H154733   3.795   4.681   4.576 -0.1815 -0.5952 -1.5072
11106TIP3    H254734   3.871   4.551   4.592  0.6393  0.1051  0.5928
11107TIP3   OH254735   4.667   2.749   1.482 -0.5347  0.1137 -0.3327
11107TIP3    H154736   4.733   2.737   1.551 -1.6972  1.1633  1.0114
11107TIP3    H254737   4.653   2.843   1.478 -1.1431 -0.0048 -1.4110
11108TIP3   OH254738   4.787   3.250   4.290  0.1709  0.1752  0.1864
11108TIP3    H154739   4.786   3.154   4.291  1.4401  0.1408  0.3205
11108TIP3    H254740   4.878   3.273   4.311 -0.0113  1.3995 -0.2800
11109TIP3   OH254741   1.558   4.631  12.931  0.0766  0.6295  0.5280
11109TIP3    H154742   1.474   4.640  12.886 -0.6738 -1.2804  1.4368
11109TIP3    H254743   1.549   4.551  12.983  2.5965  0.1613  0.3768
11110TIP3   OH254744   5.221   1.309  12.584  0.4686  0.0114 -0.2552
11110TIP3    H154745   5.235   1.293  12.677 -1.0968  0.2349  0.0557
11110TIP3    H254746   5.290   1.260  12.540 -0.0076 -1.8271  0.9391
11111TIP3   OH254747   5.591   4.563  13.227  0.1133 -0.3959  0.2640
11111TIP3    H154748   5.569   4.649  13.265 -0.3920 -1.0711  1.5723
11111TIP3    H254749   5.683   4.570  13.204  0.2024  0.3587  0.8016
11112TIP3   OH254750   1.875   6.429   0.567  0.0397  0.4428 -0.6280
11112TIP3    H154751   1.861   6.514   0.610  1.2186  0.2715  0.1449
11112TIP3    H254752   1.863   6.365   0.636  1.1085  0.1099 -0.7244
11113TIP3   OH254753   5.071   5.141  14.088  0.1430  0.1922 -0.5518
11113TIP3    H154754   5.079   5.199  14.163 -1.0295 -0.2398 -0.0698
11113TIP3    H254755   5.007   5.183  14.031  0.3486  0.0737 -0.8744
11114TIP3   OH254756   5.283   4.863   3.192  0.7510  0.0547 -0.0999
11114TIP3    H154757   5.340   4.825   3.259 -1.3425 -1.1577  1.0930
11114TIP3    H254758   5.327   4.841   3.110  2.0041 -0.8410  0.7567
11115TIP3   OH254759   2.811   1.053  12.389 -0.3699  0.7095 -0.3919
11115TIP3    H154760   2.836   0.968  12.353 -1.7769 -0.1525  0.5310
11115TIP3    H254761   2.828   1.115  12.319  0.5688 -0.3556 -1.1443
11116TIP3   OH254762   6.648   6.169  16.659 -0.1683  0.4910  0.5834
11116TIP3    H154763   6.577   6.175  16.595  0.8204  0.5137 -0.5525
11116TIP3    H254764   6.649   6.076  16.684 -0.1786  0.3584  0.1102
11117TIP3   OH254765   5.294   4.445  14.657 -0.3288 -0.3077 -0.0194
11117TIP3    H154766   5.296   4.350  14.642  1.5531  0.1234 -3.6052
11117TIP3    H254767   5.254   4.480  14.577  0.9657  2.0328  0.3039
11118TIP3   OH254768   4.180   3.588  12.202  0.2055 -0.2100 -0.3583
11118TIP3    H154769   4.156   3.603  12.293  2.1381 -1.9217  0.5026
11118TIP3    H254770   4.105   3.541  12.164 -0.2561 -0.2497  0.5843
11119TIP3   OH254771   6.527   2.909  16.403  0.1953  0.3542  0.0588
11119TIP3    H154772   6.503   2.971  16.335 -0.0968 -0.8477 -0.9781
11119TIP3    H254773   6.456   2.913  16.467  0.7079  1.8452  0.5805
11120TIP3   OH254774   2.860   0.545   4.781 -0.5303 -0.0800  0.3345
11120TIP3    H154775   2.836   0.453   4.782  4.0630 -1.5636 -1.5190
11120TIP3    H254776   2.824   0.579   4.699 -2.2766 -0.0963  1.0451
11121TIP3   OH254777   1.870   3.164  13.029 -0.1819 -0.3764 -0.3998
11121TIP3    H154778   1.780   3.134  13.041 -0.5693  0.7179 -0.3925
11121TIP3    H254779   1.873   3.193  12.938 -0.0996  0.4053 -0.1564
11122TIP3   OH254780   4.945   5.224   5.243 -0.0570  0.0113 -0.3455
11122TIP3    H154781   5.007   5.166   5.288  0.2125  0.6199  0.0740
11122TIP3    H254782   4.997   5.269   5.177  0.6517  2.6189  1.8196
11123TIP3   OH254783   6.724   6.089   0.033  0.1227  0.1202 -0.6687
11123TIP3    H154784   6.748   6.115   0.122 -0.3236 -1.4581 -0.0628
11123TIP3    H254785   6.749   5.997   0.026 -5.0339 -1.6296 -0.1178
11124TIP3   OH254786   1.269   1.871   0.420  0.0180 -0.0374 -0.6302
11124TIP3    H154787   1.361   1.867   0.392  0.5687 -0.0027  1.0430
11124TIP3    H254788   1.236   1.952   0.380  1.1714  0.7585 -0.0327
11125TIP3   OH254789   2.953   5.665  11.813  0.1126 -0.1515  0.5821
11125TIP3    H154790   3.007   5.605  11.863 -0.6289 -0.6926  0.7539
11125TIP3    H254791   2.882   5.611  11.778  0.5155  0.2338 -0.9246
11126TIP3   OH254792   5.281   2.165   2.687  0.3356 -0.0251 -0.8649
11126TIP3    H154793   5.374   2.158   2.664  0.1389 -1.9030 -1.2627
11126TIP3    H254794   5.237   2.185   2.605  0.2792 -0.2180 -0.8817
11127TIP3   OH254795   5.744   5.317  12.012  0.5218 -0.7499  0.1891
11127TIP3    H154796   5.684   5.282  11.946  2.4041 -1.5867 -1.1695
11127TIP3    H254797   5.695   5.313  12.094 -1.1680 -1.6336 -0.8139
11128TIP3   OH254798   6.084   0.702  11.607 -0.2591  0.1292 -0.1777
11128TIP3    H154799   6.102   0.795  11.593 -0.4806  0.0247 -1.2095
11128TIP3    H254800   6.170   0.662  11.619 -0.0158  0.1737 -1.6315
11129TIP3   OH254801   1.609   2.787   5.239 -0.0971 -0.5852 -0.8087
11129TIP3    H154802   1.625   2.866   5.187  0.6125  1.6329  2.4001
11129TIP3    H254803   1.694   2.743   5.240  0.2402  0.0397 -0.5823
11130TIP3   OH254804   0.242   0.262  16.015 -0.1968  0.0781  0.1778
11130TIP3    H154805   0.324   0.235  15.974 -0.7217  2.2898 -2.6609
11130TIP3    H254806   0.269   0.314  16.091  0.9710 -0.3975  0.1014
11131TIP3   OH254807   1.192   0.011  11.601  0.9076 -0.3299 -0.4846
11131TIP3    H154808   1.213   0.101  11.575  0.3736  0.5260  1.8351
11131TIP3    H254809   1.129  -0.018  11.534 -1.2649  2.1420  0.2897
11132TIP3   OH254810   1.986   2.618   3.329  0.0436  0.0972 -0.2316
11132TIP3    H154811   2.073   2.646   3.354  0.2681 -0.4894 -0.3323
11132TIP3    H254812   1.998   2.571   3.246  0.0606 -2.2907  1.0205
11133TIP3   OH254813   6.244   2.052  11.808 -0.6777 -0.4635 -0.6135
11133TIP3    H154814   6.206   2.139  11.803  1.2061  0.3949 -1.0365
11133TIP3    H254815   6.220   2.011  11.725 -2.2358 -0.6737 -0.0873
11134TIP3   OH254816   5.846   0.291  13.871 -0.4584  0.7050 -0.4279
11134TIP3    H154817   5.871   0.262  13.784  2.0233  0.9730  0.1244
11134TIP3    H254818   5.782   0.226  13.901  2.3342 -2.3217 -0.5639
11135TIP3   OH254819   4.204   0.551  15.577  0.2018 -0.3329 -0.2589
11135TIP3    H154820   4.118   0.582  15.605  1.3594  3.2124 -0.1787
11135TIP3    H254821   4.191   0.527  15.485 -1.0191 -0.4775 -0.0646
11136TIP3   OH254822   0.688   2.219  16.714 -0.0427 -0.3081 -0.0657
11136TIP3    H154823   0.723   2.308  16.709  2.1260 -1.1237 -0.5028
11136TIP3    H254824   0.593   2.230  16.710  0.0144  2.1546  2.2951
11137TIP3   OH254825   1.869   1.218  14.826  0.4647 -0.0625  0.3409
11137TIP3    H154826   1.866   1.132  14.867  0.4139 -0.9105 -1.3492
11137TIP3    H254827   1.886   1.279  14.898  0.7898 -1.5079  1.5286
11138TIP3   OH254828   6.009   6.174   3.225  0.3317 -0.6636  0.4337
11138TIP3    H154829   5.996   6.085   3.257  1.4365 -0.6046  1.0605
11138TIP3    H254830   6.082   6.167   3.163  1.3507  0.0246  1.5304
11139TIP3   OH254831   4.330   5.971  12.876  0.0612 -0.3675 -0.0693
11139TIP3    H154832   4.261   6.032  12.850  1.3164  1.3781  0.4734
11139TIP3    H254833   4.343   5.915  12.799 -0.3626  0.8171 -1.0314
11140TIP3   OH254834   5.816   2.978  14.284  0.2140 -0.3263 -0.5722
11140TIP3    H154835   5.819   3.043  14.214 -2.6852 -0.3015 -0.8044
11140TIP3    H254836   5.724   2.979  14.313  0.9167 -1.6720  1.9621
11141TIP3   OH254837   4.722   0.013  11.194  0.6499  0.1762  0.4249
11141TIP3    H154838   4.654   0.070  11.155  0.1692 -0.2101  0.6930
11141TIP3    H254839   4.795   0.019  11.133  0.3593  0.5694  0.1069
11142TIP3   OH254840   6.587   3.454   3.791  0.1575  0.1576 -0.5014
11142TIP3    H154841   6.528   3.524   3.820  0.5156 -0.0128  0.6908
11142TIP3    H254842   6.674   3.484   3.816  0.4559 -0.1438 -1.1534
11143TIP3   OH254843   5.125   5.450   0.463  0.0434  0.1435 -0.5759
11143TIP3    H154844   5.127   5.372   0.518 -2.2106 -0.3958 -1.1771
11143TIP3    H254845   5.156   5.520   0.520 -0.9243 -0.6475  0.9837
11144TIP3   OH254846   5.787   1.014   4.220  0.1866  0.2480 -0.1452
11144TIP3    H154847   5.813   0.924   4.198  0.3389  0.6550 -1.7814
11144TIP3    H254848   5.725   1.004   4.292  0.3734 -1.1588 -0.1513
11145TIP3   OH254849   1.567   4.567   2.412  0.8891  0.0385 -0.0438
11145TIP3    H154850   1.526   4.483   2.390 -0.7995  0.4669  1.3108
11145TIP3    H254851   1.661   4.547   2.415  0.4216 -2.3101  2.1004
11146TIP3   OH254852   3.894   4.178  10.958 -0.5008  0.6025 -0.2237
11146TIP3    H154853   3.840   4.120  11.011  0.3478  0.4313  0.4796
11146TIP3    H254854   3.911   4.128  10.877  0.9194 -0.5327  0.7130
11147TIP3   OH254855   3.929   5.849   4.750  0.1809  0.2537  0.0789
11147TIP3    H154856   3.937   5.878   4.659 -0.2299 -0.8161 -0.3128
11147TIP3    H254857   4.007   5.884   4.793  1.0392 -0.2812 -0.9775
11148TIP3   OH254858   1.409   4.917  15.619  0.0906 -1.0045 -0.6659
11148TIP3    H154859   1.491   4.887  15.658  0.8497 -0.0889 -1.5137
11148TIP3    H254860   1.381   4.990  15.676  0.0576 -1.0787 -0.5873
11149TIP3   OH254861   2.453   5.723  13.654  0.1775 -0.0935  0.1368
11149TIP3    H154862   2.377   5.733  13.712 -0.7232  1.7224 -1.2162
11149TIP3    H254863   2.514   5.669  13.702 -1.7797 -1.1936  1.5025
11150TIP3   OH254864   3.256   5.846  14.989  0.1056 -0.5609 -0.5610
11150TIP3    H154865   3.240   5.940  14.998 -1.2815 -0.5732 -2.4332
11150TIP3    H254866   3.258   5.814  15.079  1.4682  1.3632  0.1592
11151TIP3   OH254867   6.064   6.446   2.568  0.3694  0.5548  0.1890
11151TIP3    H154868   6.128   6.424   2.634  0.0678 -0.4128  0.1752
11151TIP3    H254869   6.113   6.449   2.486  0.4318  0.0200  0.2080
11152TIP3   OH254870   1.082   4.223   4.838  0.0801  0.1815 -0.2747
11152TIP3    H154871   1.127   4.145   4.868  0.0337  0.6571  1.1182
11152TIP3    H254872   1.007   4.190   4.788 -0.3206 -0.6750  0.8663
11153TIP3   OH254873   5.540   3.474  17.062  0.4509 -0.1982 -0.0023
11153TIP3    H154874   5.488   3.544  17.102  0.1682 -1.2922  1.6048
11153TIP3    H254875   5.487   3.446  16.986  0.5351  1.2456 -0.6250
11154TIP3   OH254876   5.420   4.719   1.407  0.3544 -0.0479  0.0907
11154TIP3    H154877   5.492   4.660   1.429 -0.1122 -0.1525  1.4139
11154TIP3    H254878   5.348   4.691   1.464 -0.1686  1.2133  0.0697
11155TIP3   OH254879   4.677   3.600   0.405  0.2475 -0.1691 -0.0006
11155TIP3    H154880   4.660   3.611   0.498  1.8173  1.8734  0.1205
11155TIP3    H254881   4.653   3.685   0.366  0.2596 -0.7598 -1.3462
11156TIP3   OH254882   1.648   5.788  11.585  0.0140  0.2236  0.1233
11156TIP3    H154883   1.611   5.700  11.575 -0.7107  0.5311  0.0264
11156TIP3    H254884   1.584   5.835  11.638  0.7771  0.4709  0.8383
11157TIP3   OH254885   6.493   5.291   2.966 -0.3726 -0.4916 -0.5035
11157TIP3    H154886   6.554   5.360   2.991  0.2182 -1.5410  1.0964
11157TIP3    H254887   6.549   5.215   2.949 -1.1657 -1.2689  0.2514
11158TIP3   OH254888   6.708   2.021   2.432 -0.0421  0.4240  0.0634
11158TIP3    H154889   6.623   1.999   2.472  0.3286  1.7259  1.7077
11158TIP3    H254890   6.722   2.112   2.457  1.9444  0.1743 -0.0281
11159TIP3   OH254891   4.694   4.711  15.988  0.3005  0.3584 -0.1526
11159TIP3    H154892   4.602   4.707  16.014  0.5739 -0.2255  0.7613
11159TIP3    H254893   4.692   4.754  15.902 -1.0196 -1.4836 -1.1196
11160TIP3   OH254894   5.826   0.312   2.602 -0.0696  0.0712  0.2599
11160TIP3    H154895   5.778   0.275   2.676  0.3584 -1.1028 -0.0256
11160TIP3    H254896   5.766   0.301   2.528  0.2848 -0.5927  0.0672
11161TIP3   OH254897   5.931   5.789   4.317 -0.5581 -0.1220 -0.2635
11161TIP3    H154898   5.914   5.718   4.255 -0.6538  0.8223 -1.3550
11161TIP3    H254899   5.915   5.750   4.403  0.9230 -1.8661 -0.7172
11162TIP3   OH254900   4.781   5.567  13.349  0.3773 -0.2186 -0.0784
11162TIP3    H154901   4.811   5.504  13.282  0.4045  0.6749 -0.9290
11162TIP3    H254902   4.691   5.541  13.367  0.5802 -0.8771  0.0410
11163TIP3   OH254903   2.217   5.438  13.272 -0.0641 -0.0883 -0.6074
11163TIP3    H154904   2.248   5.525  13.246  1.0719 -0.9391 -2.3005
11163TIP3    H254905   2.224   5.438  13.367 -0.2260  1.7176 -0.5604
11164TIP3   OH254906   1.279   5.252   2.641 -0.3300 -0.3410 -0.1735
11164TIP3    H154907   1.253   5.342   2.624 -1.3832 -0.9142 -1.7472
11164TIP3    H254908   1.375   5.256   2.645 -0.4039  1.1078  1.5879
11165TIP3   OH254909   6.661   6.012  11.359 -0.3910  0.4222  0.4093
11165TIP3    H154910   6.749   6.037  11.330 -0.1824  2.2473  2.3375
11165TIP3    H254911   6.603   6.045  11.291  0.2678  1.7723  0.4611
11166TIP3   OH254912   4.944   2.303   2.643 -0.2856 -0.3977 -0.3530
11166TIP3    H154913   4.953   2.315   2.737  0.7613 -2.1722 -0.1698
11166TIP3    H254914   4.924   2.210   2.633  1.2314 -0.6119 -1.9421
11167TIP3   OH254915   4.652   2.449   0.484  0.2088  0.1080 -0.3853
11167TIP3    H154916   4.614   2.404   0.559  0.5655  0.9641  0.3333
11167TIP3    H254917   4.745   2.460   0.507  0.9534 -1.9556 -2.1058
11168TIP3   OH254918   3.933   2.170   3.489 -0.2990 -0.1963  0.4893
11168TIP3    H154919   3.930   2.148   3.396 -3.7024 -0.6573  0.6091
11168TIP3    H254920   3.857   2.226   3.503  0.2939  0.1041  2.9868
11169TIP3   OH254921   5.557   0.902   5.218 -0.0835  0.8105  0.0736
11169TIP3    H154922   5.506   0.877   5.295  0.5173 -1.2807 -0.1463
11169TIP3    H254923   5.572   0.996   5.229 -3.1649  1.3474  0.5927
11170TIP3   OH254924   6.160   1.254   5.177  0.5812 -0.7713 -0.0625
11170TIP3    H154925   6.181   1.172   5.223  1.6769 -0.6959 -0.3855
11170TIP3    H254926   6.187   1.323   5.237 -0.6384 -0.6310  0.3400
11171TIP3   OH254927   4.183   0.491  14.045  0.1876  0.3704 -0.4779
11171TIP3    H154928   4.169   0.406  14.087  1.9456 -0.5067 -1.5563
11171TIP3    H254929   4.245   0.536  14.102  2.1567 -0.6076 -1.7484
11172TIP3   OH254930   0.290   1.941  11.547 -0.1923  0.2006 -0.2237
11172TIP3    H154931   0.196   1.926  11.535 -0.4199  1.7356 -0.6315
11172TIP3    H254932   0.308   1.913  11.637 -1.1814  0.5021  0.0733
11173TIP3   OH254933   4.835   3.068  15.250 -0.1640 -0.1099 -0.2478
11173TIP3    H154934   4.756   3.014  15.253 -1.0642  1.0392 -1.7218
11173TIP3    H254935   4.907   3.005  15.237 -1.0696 -1.0380 -0.9489
11174TIP3   OH254936   6.402   5.814   5.765 -0.0526  0.5714 -0.4455
11174TIP3    H154937   6.481   5.844   5.719 -0.8522  0.3783 -1.9928
11174TIP3    H254938   6.346   5.779   5.696  0.2507 -3.3542  1.0782
11175TIP3   OH254939   6.362   0.723   3.631  0.5191  0.1553 -0.4456
11175TIP3    H154940   6.388   0.631   3.627 -0.5863 -0.2037  0.2599
11175TIP3    H254941   6.434   0.770   3.587  0.0987 -1.2274 -2.7875
11176TIP3   OH254942   4.578   5.571   3.638  0.1014  0.2464  0.2176
11176TIP3    H154943   4.600   5.484   3.605 -0.9937  0.3046 -0.7270
11176TIP3    H254944   4.483   5.579   3.625 -0.1437  0.8547  2.0723
11177TIP3   OH254945   5.778   0.996   1.844  0.1720  0.1981 -0.2649
11177TIP3    H154946   5.782   0.973   1.937  1.0221 -1.7919 -0.7395
11177TIP3    H254947   5.687   1.019   1.829 -0.1738 -0.3190  0.8899
11178TIP3   OH254948   6.688   6.574  11.556 -0.4227  0.4625 -0.1446
11178TIP3    H154949   6.604   6.531  11.567 -1.2782  1.8782 -0.8738
11178TIP3    H254950   6.667   6.658  11.515  1.2510  1.2283  0.4765
11179TIP3   OH254951   5.319   6.588  11.721  0.2015 -0.3713  0.1172
11179TIP3    H154952   5.382   6.654  11.750 -0.4673 -0.0209  0.8109
11179TIP3    H254953   5.373   6.514  11.692  0.9705  0.6884 -1.2564
11180TIP3   OH254954   2.830   4.828  11.837 -0.1791 -0.0599 -0.3473
11180TIP3    H154955   2.912   4.834  11.787  0.1246 -2.1140 -0.1824
11180TIP3    H254956   2.852   4.776  11.914 -1.4178  0.2532  0.2492
11181TIP3   OH254957   6.661   2.135   0.374  0.3394  0.0909 -0.0934
11181TIP3    H154958   6.622   2.174   0.296  1.4266  0.4094 -0.4907
11181TIP3    H254959   6.662   2.206   0.438 -0.8830 -0.2679  0.3494
11182TIP3   OH254960   4.318   2.032  13.942  0.1369 -0.5584 -0.6537
11182TIP3    H154961   4.244   2.059  13.996  0.0119 -0.9568 -0.6228
11182TIP3    H254962   4.353   2.114  13.906  1.1018 -0.1401  1.1526
11183TIP3   OH254963   1.509   1.841   0.315 -0.2233 -0.0984 -0.1221
11183TIP3    H154964   1.530   1.751   0.340  0.7866  0.1138 -0.1555
11183TIP3    H254965   1.586   1.870   0.266 -1.0542  0.3763 -1.1768
11184TIP3   OH254966   4.439   4.327   6.102 -0.6270 -0.1488  0.0738
11184TIP3    H154967   4.356   4.315   6.148 -0.7686  0.7524  0.0719
11184TIP3    H254968   4.507   4.307   6.167 -0.8357 -0.8245  0.0935
11185TIP3   OH254969   3.282   0.026   3.217  0.6160 -0.2859 -0.5439
11185TIP3    H154970   3.246   0.047   3.131  0.2962  0.2162 -0.2929
11185TIP3    H254971   3.339   0.100   3.237 -1.7180  1.1878  1.0369
11186TIP3   OH254972   1.815   4.106  12.798 -0.3429 -0.0691  0.1173
11186TIP3    H154973   1.837   4.088  12.890  0.9716 -0.4514 -0.2412
11186TIP3    H254974   1.758   4.034  12.772  0.6901 -0.9241  0.1587
11187TIP3   OH254975   1.854   0.814  13.189  0.1049 -0.1286 -0.6037
11187TIP3    H154976   1.794   0.886  13.210 -1.7590 -1.9694  0.8602
11187TIP3    H254977   1.930   0.856  13.150 -0.6861  2.6666  0.6365
11188TIP3   OH254978   2.853   5.910   2.284  0.2400 -0.2344  0.7009
11188TIP3    H154979   2.822   5.925   2.195 -1.1277 -1.2771  0.9767
11188TIP3    H254980   2.920   5.978   2.298 -0.6228  0.9174 -0.5557
11189TIP3   OH254981   3.100   1.844   5.492 -0.9517  0.2506 -0.0593
11189TIP3    H154982   3.083   1.834   5.398 -0.6358  0.9376 -0.1968
11189TIP3    H254983   3.044   1.779   5.534 -2.2884  1.0042 -0.6189
11190TIP3   OH254984   2.167   4.755   3.578 -0.3240  0.4681  0.2408
11190TIP3    H154985   2.262   4.756   3.578 -0.3025  0.2509 -1.4148
11190TIP3    H254986   2.141   4.818   3.511 -1.3958  1.6074  1.6651
11191TIP3   OH254987   0.038   5.051   4.326 -0.1163 -0.5304  0.4962
11191TIP3    H154988  -0.031   5.115   4.311  0.9365  0.5503  0.1482
11191TIP3    H254989   0.039   4.999   4.245  0.2621  0.2108  0.0155
11192TIP3   OH254990   3.290   2.200   6.413 -0.3155  0.1686 -0.3434
11192TIP3    H154991   3.229   2.149   6.466  0.1962  0.5414  0.6375
11192TIP3    H254992   3.369   2.145   6.407 -0.0763  0.4713 -0.0150
11193TIP3   OH254993   4.662   2.024   4.603 -0.2593 -0.0737 -0.2373
11193TIP3    H154994   4.680   1.954   4.666 -0.3105  0.6527  0.5899
11193TIP3    H254995   4.607   1.982   4.536 -0.9195 -0.6353  0.6406
11194TIP3   OH254996   3.130   4.033  16.255 -0.8081 -0.4787 -0.1887
11194TIP3    H154997   3.044   4.075  16.246 -0.0143  1.2274 -0.2041
11194TIP3    H254998   3.127   3.990  16.340 -2.4834 -2.5079 -1.1749
11195TIP3   OH254999   3.121   3.343   2.287  0.1749 -0.3673  0.4111
11195TIP3    H155000   3.172   3.266   2.262  0.8016 -0.0563  0.6956
11195TIP3    H255001   3.137   3.353   2.381 -0.5535 -0.3602  0.5345
11196TIP3   OH255002   1.972   5.666  12.944  0.1943 -0.2187 -0.7559
11196TIP3    H155003   1.916   5.721  12.999  0.2101 -0.5433 -0.4105
11196TIP3    H255004   1.944   5.577  12.964  1.2388 -0.4248 -0.1162
11197TIP3   OH255005   2.210   5.672   5.042 -0.2435  0.4511  0.1341
11197TIP3    H155006   2.138   5.715   4.995  1.1182  1.2893 -1.3014
11197TIP3    H255007   2.210   5.582   5.008 -0.8828  0.3062  0.4946
11198TIP3   OH255008   0.438   1.306  10.519  0.3297 -0.0430  0.2247
11198TIP3    H155009   0.388   1.249  10.578 -1.8499  0.7370 -0.8028
11198TIP3    H255010   0.431   1.264  10.434  1.7713 -0.0987  0.1118
11199TIP3   OH255011   0.228   6.405  13.835 -0.1814 -0.0029  0.2535
11199TIP3    H155012   0.245   6.314  13.860 -1.1766 -0.7905 -1.7342
11199TIP3    H255013   0.310   6.451  13.856 -0.0349 -1.0685  2.3221
11200TIP3   OH255014   1.602   5.855  12.554  0.5406  0.2031 -0.4539
11200TIP3    H155015   1.642   5.834  12.469  1.6192 -0.1744  0.1199
11200TIP3    H255016   1.644   5.937  12.580  0.0421  0.4395 -0.3781
11201TIP3   OH255017   5.545   1.981   5.884 -0.5277  0.0782  0.1648
11201TIP3    H155018   5.585   1.954   5.966  0.5044  0.5823 -0.1380
11201TIP3    H255019   5.568   2.074   5.876 -0.2255 -0.0639 -0.8865
11202TIP3   OH255020   1.714   6.583  13.604 -0.0869  0.0676  0.6597
11202TIP3    H155021   1.690   6.618  13.690  1.1109  1.4509  0.4594
11202TIP3    H255022   1.697   6.655  13.543  1.1896 -0.1153  0.0525
11203TIP3   OH255023   4.247   3.453   3.927  0.0457 -0.1645 -0.4617
11203TIP3    H155024   4.170   3.502   3.957 -0.5053 -1.4422  0.2804
11203TIP3    H255025   4.301   3.443   4.006  1.6746  1.8217 -1.1991
11204TIP3   OH255026   0.923   5.995  14.454  0.2101 -0.4654  0.1358
11204TIP3    H155027   0.967   6.063  14.506  0.0983  0.5452 -1.0420
11204TIP3    H255028   0.860   6.043  14.400  0.1632 -1.5084 -0.7713
11205TIP3   OH255029   1.364   5.537  15.125 -0.1834 -0.2952  0.3099
11205TIP3    H155030   1.349   5.567  15.036 -1.4358 -0.3477  0.4920
11205TIP3    H255031   1.364   5.616  15.178 -0.4859 -0.3575  0.4018
11206TIP3   OH255032   0.019   2.344   5.446  0.8176  0.3992  0.7443
11206TIP3    H155033  -0.038   2.336   5.523  1.8854 -0.0508  1.5105
11206TIP3    H255034  -0.035   2.389   5.381 -0.1544  0.6638  1.7024
11207TIP3   OH255035   6.549   2.507  15.720 -0.3915  0.3700  0.0856
11207TIP3    H155036   6.497   2.554  15.786 -0.1196  0.3368  0.3258
11207TIP3    H255037   6.602   2.446  15.771  0.1238  0.6288 -0.1294
11208TIP3   OH255038   5.008   4.019   0.671 -0.1417 -0.0435 -0.0577
11208TIP3    H155039   5.044   3.976   0.593 -0.0627  0.2571 -0.1873
11208TIP3    H255040   5.053   4.104   0.675 -0.1714 -0.0436  0.2952
11209TIP3   OH255041   4.310   3.800   1.412  0.9609 -0.2389 -0.3137
11209TIP3    H155042   4.277   3.885   1.383 -0.0454 -1.0670 -1.6861
11209TIP3    H255043   4.405   3.808   1.405  0.8565  0.5945 -0.9614
11210TIP3   OH255044   0.353   3.281   3.865  0.5015 -0.2643 -0.1232
11210TIP3    H155045   0.264   3.312   3.886  0.6047 -0.1330  0.1237
11210TIP3    H255046   0.398   3.359   3.833  0.1650 -0.5921 -1.4237
11211TIP3   OH255047   2.508   1.853   3.601 -0.0414  1.0255  0.7288
11211TIP3    H155048   2.566   1.885   3.532 -0.3658  0.5380  0.2228
11211TIP3    H255049   2.513   1.919   3.670  0.9872  1.0776  0.6196
11212TIP3   OH255050   2.423   1.323   6.372  0.0816 -0.4497  0.2522
11212TIP3    H155051   2.371   1.399   6.345  0.0190 -0.5054  0.2186
11212TIP3    H255052   2.379   1.248   6.334 -0.8180 -0.6650  1.6599
11213TIP3   OH255053   1.810   6.333  15.505  0.2281  0.2879  0.2385
11213TIP3    H155054   1.898   6.364  15.528  0.9321 -1.7751  0.4808
11213TIP3    H255055   1.771   6.406  15.457  1.9990  1.3215  0.2918
11214TIP3   OH255056   1.291   5.244   4.406 -0.7189  0.0793 -0.5476
11214TIP3    H155057   1.349   5.320   4.415 -0.1416 -0.2809 -1.1307
11214TIP3    H255058   1.294   5.201   4.492 -0.0930  0.0438 -0.5829
11215TIP3   OH255059   3.264   0.817  11.710  0.2064  0.5002 -0.6822
11215TIP3    H155060   3.337   0.817  11.647 -0.4314 -1.9925 -1.5202
11215TIP3    H255061   3.267   0.730  11.750 -1.8809  0.5938 -0.2157
11216TIP3   OH255062   6.283   3.183   6.479  0.0380 -0.0393  0.0089
11216TIP3    H155063   6.241   3.097   6.489  0.2024  0.0498  2.0025
11216TIP3    H255064   6.377   3.163   6.475  0.0534  0.0196  0.0735
11217TIP3   OH255065   1.867   3.653   0.038  0.1350 -0.5179  1.2275
11217TIP3    H155066   1.898   3.582  -0.018 -1.1286  0.2918 -0.6338
11217TIP3    H255067   1.803   3.612   0.096 -1.3981 -0.8145 -0.5571
11218TIP3   OH255068   0.948   4.676   5.239  0.0245  0.2867  0.4376
11218TIP3    H155069   0.863   4.638   5.217  0.4367 -0.8692  0.7943
11218TIP3    H255070   0.969   4.641   5.325  0.6003  1.0288  0.6117
11219TIP3   OH255071   6.721   0.625   3.730  0.2881  0.6247 -0.3707
11219TIP3    H155072   6.663   0.593   3.800 -0.7249  1.5561 -0.7593
11219TIP3    H255073   6.801   0.650   3.776  0.1956 -0.1680  0.2529
11220TIP3   OH255074   6.351   5.113  12.940 -0.2661  0.5982  0.7506
11220TIP3    H155075   6.381   5.163  13.016 -1.3296  1.0173  0.9033
11220TIP3    H255076   6.258   5.099  12.956 -0.3143 -0.0525 -0.0719
11221TIP3   OH255077   1.046   4.964   4.366 -0.2053 -0.0544  0.5906
11221TIP3    H155078   1.067   4.894   4.304  0.4209  1.4204 -0.9282
11221TIP3    H255079   1.011   4.918   4.442  0.5863 -2.0456 -0.1751
11222TIP3   OH255080   4.478   0.580   5.844  0.1313 -0.0761  0.5742
11222TIP3    H155081   4.556   0.528   5.826 -0.1259  0.0712 -1.1943
11222TIP3    H255082   4.509   0.653   5.898  1.1932 -0.1292  0.0603
11223TIP3   OH255083   0.789   4.861   4.772 -0.5768 -0.2749 -0.3323
11223TIP3    H155084   0.828   4.873   4.859  0.0261  2.3040 -0.8789
11223TIP3    H255085   0.734   4.783   4.782 -0.3648 -0.2054  2.2954
11224TIP3   OH255086   3.734   0.724  16.834  0.0600  0.2628  0.1341
11224TIP3    H155087   3.815   0.721  16.784 -1.1380  1.1229 -2.0082
11224TIP3    H255088   3.751   0.786  16.905  1.8105 -1.0019  0.8893
11225TIP3   OH255089   4.898   6.603   1.658 -0.5705 -0.3173  0.3606
11225TIP3    H155090   4.987   6.635   1.671 -0.1703 -0.7508 -1.1128
11225TIP3    H255091   4.909   6.519   1.613 -1.6889 -1.2470  1.7323
11226TIP3   OH255092   6.531   4.329   3.323 -0.4843  0.8095 -0.5309
11226TIP3    H155093   6.576   4.249   3.348  2.7904  2.6844  0.0983
11226TIP3    H255094   6.536   4.331   3.227  2.2325  1.6217 -0.4520
11227TIP3   OH255095   6.291   5.746   3.955 -0.0665 -0.4588 -0.0664
11227TIP3    H155096   6.250   5.660   3.966 -1.4090  0.3140  1.5850
11227TIP3    H255097   6.235   5.805   4.006  0.6608  1.4501 -1.3733
11228TIP3   OH255098   2.278   1.255  14.189 -0.4426 -0.4425 -0.4054
11228TIP3    H155099   2.269   1.164  14.218  3.3068 -0.8504 -0.0375
11228TIP3    H255100   2.318   1.300  14.263 -1.0108  1.2198 -1.0706
11229TIP3   OH255101   5.186   2.282  11.586 -0.4676  0.1466 -0.6315
11229TIP3    H155102   5.164   2.235  11.666  0.2529  1.2385  0.2263
11229TIP3    H255103   5.262   2.336  11.609  0.8993 -0.8246 -2.5094
11230TIP3   OH255104   5.310   0.253   0.587  0.3466  0.6334 -0.3204
11230TIP3    H155105   5.345   0.298   0.511  0.0730  0.9509 -0.2590
11230TIP3    H255106   5.221   0.227   0.561  0.3679  0.4575 -0.2225
11231TIP3   OH255107   2.150   0.558  13.968 -0.2559 -0.6784  0.0943
11231TIP3    H155108   2.121   0.470  13.945  1.5895 -1.2004 -0.3639
11231TIP3    H255109   2.239   0.547  14.002 -1.1079  0.6294  3.1047
11232TIP3   OH255110   2.517   6.134  12.288 -0.1265  0.0983  0.2956
11232TIP3    H155111   2.547   6.192  12.358  0.1153  1.0839 -0.5826
11232TIP3    H255112   2.580   6.062  12.287 -0.6481 -0.3999  1.6558
11233TIP3   OH255113   0.546   2.185  10.953 -0.9101  0.5248  0.1739
11233TIP3    H155114   0.631   2.154  10.922 -0.9091  1.5895 -0.9790
11233TIP3    H255115   0.521   2.252  10.890 -0.9237  2.8611  2.5093
11234TIP3   OH255116   1.130   2.119  12.073  0.4789  0.0131 -0.2314
11234TIP3    H155117   1.049   2.171  12.073 -0.8997 -2.0378  0.2588
11234TIP3    H255118   1.178   2.151  11.997 -0.8107  1.2445 -0.5826
11235TIP3   OH255119   3.339   4.369  14.684 -0.0444  0.5516  0.4241
11235TIP3    H155120   3.256   4.358  14.730 -0.0809 -0.5041  0.1443
11235TIP3    H255121   3.395   4.415  14.747  0.0387 -1.2253  1.7462
11236TIP3   OH255122   5.793   6.530   2.619  0.3127  0.5081  0.3271
11236TIP3    H155123   5.886   6.508   2.607  0.1206 -0.2630  0.2109
11236TIP3    H255124   5.767   6.569   2.536  0.0666 -0.9767 -0.3212
11237TIP3   OH255125   5.843   2.733  13.861 -0.5829 -0.3229 -0.3077
11237TIP3    H155126   5.773   2.785  13.901 -0.2277  0.3750 -0.5781
11237TIP3    H255127   5.890   2.795  13.806  0.0554 -0.8629 -0.3771
11238TIP3   OH255128   1.274   1.475  12.150 -0.1685  0.2539  0.1782
11238TIP3    H155129   1.274   1.473  12.246 -1.2370  3.4892  0.3998
11238TIP3    H255130   1.358   1.438  12.125 -0.7387 -2.7532  2.1767
11239TIP3   OH255131   0.382   0.373   4.098  0.2396  0.2214  0.0462
11239TIP3    H155132   0.347   0.374   4.009 -0.0850 -1.8396  0.1042
11239TIP3    H255133   0.476   0.362   4.087  0.0215 -2.0457 -0.1022
11240TIP3   OH255134   1.401   0.438  11.717 -0.3093  0.3383  0.1010
11240TIP3    H155135   1.492   0.469  11.715 -0.3197  0.3617  0.0222
11240TIP3    H255136   1.355   0.502  11.771 -0.4317  0.7147 -0.4503
11241TIP3   OH255137   6.754   5.534  14.511 -0.9168 -0.1765  0.0312
11241TIP3    H155138   6.777   5.499  14.425 -2.4136 -5.4759  1.3727
11241TIP3    H255139   6.828   5.590  14.535  0.2787  0.2861 -3.9408
11242TIP3   OH255140   3.674   5.191   6.064 -0.1527  0.1701  0.1369
11242TIP3    H155141   3.638   5.105   6.089 -0.3509  0.4279  0.7655
11242TIP3    H255142   3.641   5.250   6.132 -0.2116  0.7894 -0.4299
11243TIP3   OH255143   1.471   1.620   0.888 -0.0873 -0.4828 -0.1033
11243TIP3    H155144   1.498   1.701   0.931 -0.0187 -0.9117  0.6815
11243TIP3    H255145   1.496   1.632   0.797 -0.0840  0.3814 -0.0015
11244TIP3   OH255146   1.706   6.608   3.533  0.5683  0.1925  0.3764
11244TIP3    H155147   1.720   6.690   3.580  0.4607  0.7722 -0.5839
11244TIP3    H255148   1.760   6.615   3.454 -0.5230 -0.0559 -0.4124
11245TIP3   OH255149   1.832   5.582   3.121 -0.0447 -0.1482  0.9668
11245TIP3    H155150   1.837   5.659   3.064 -3.4400 -0.2427  0.3236
11245TIP3    H255151   1.843   5.617   3.210  0.8968  0.6747  0.5432
11246TIP3   OH255152   4.343   1.057  12.239  0.2548 -0.0807 -0.5008
11246TIP3    H155153   4.297   1.048  12.322  2.0291 -0.5191  0.4934
11246TIP3    H255154   4.294   1.124  12.192 -0.9123  0.0420  0.7985
11247TIP3   OH255155   3.114   3.934   0.921  0.4040 -0.2178  0.2349
11247TIP3    H155156   3.132   3.896   0.835  0.7213  1.8574 -0.6770
11247TIP3    H255157   3.200   3.965   0.951 -0.0347  0.9669  0.3131
11248TIP3   OH255158   0.107   2.080  13.714 -0.0553  0.6509 -0.8269
11248TIP3    H155159   0.199   2.087  13.689  0.0163  1.3461 -0.3802
11248TIP3    H255160   0.062   2.056  13.633  0.7165 -1.3948 -0.7242
11249TIP3   OH255161   3.081   5.874   2.812  0.3762 -0.9505 -0.7395
11249TIP3    H155162   3.085   5.781   2.789  1.4402 -1.1897  0.3414
11249TIP3    H255163   3.164   5.910   2.782  0.5273 -0.6362  0.0539
11250TIP3   OH255164   1.990   1.318  12.660 -0.2257 -0.2638 -0.1515
11250TIP3    H155165   2.009   1.243  12.603  2.6623  0.2420 -0.0184
11250TIP3    H255166   1.963   1.279  12.743  0.8934 -1.1824 -0.1928
11251TIP3   OH255167   0.302   1.722  14.481  0.1217  0.4311 -0.2287
11251TIP3    H155168   0.344   1.792  14.432  1.0772  0.0831  0.0667
11251TIP3    H255169   0.225   1.699  14.429  0.2793  1.0939 -0.7735
11252TIP3   OH255170   1.975   0.164   3.592  0.5953 -0.1278  0.4402
11252TIP3    H155171   1.939   0.220   3.661  0.1935  0.4037 -0.1768
11252TIP3    H255172   1.903   0.157   3.528  0.9207 -0.6953  0.1291
11253TIP3   OH255173   2.825   3.595   4.832 -0.1273  0.2308 -0.8089
11253TIP3    H155174   2.868   3.520   4.792 -0.8948  0.4836 -2.1651
11253TIP3    H255175   2.798   3.650   4.758 -0.4308  1.3668  0.1166
11254TIP3   OH255176   1.176   5.611   2.300  0.4870  0.0407  0.0105
11254TIP3    H155177   1.187   5.659   2.218  0.2674 -0.1100 -0.1110
11254TIP3    H255178   1.214   5.525   2.282  2.9360  0.8567  0.9376
11255TIP3   OH255179   5.207   0.193   2.747 -0.6593 -0.0619 -0.1400
11255TIP3    H155180   5.145   0.169   2.678 -1.2557  0.1983  0.2907
11255TIP3    H255181   5.210   0.288   2.745  1.1215 -0.1001 -1.3416
11256TIP3   OH255182   5.911   5.092  14.979 -0.3602 -0.4830 -0.0381
11256TIP3    H155183   5.868   5.153  14.919  0.1934 -1.7960 -1.8611
11256TIP3    H255184   5.975   5.046  14.925 -0.8449 -2.7804  1.2121
11257TIP3   OH255185   0.224   4.238   2.174  0.5650  0.0557  0.1741
11257TIP3    H155186   0.214   4.164   2.115 -2.3231  0.7281 -0.3289
11257TIP3    H255187   0.264   4.307   2.121 -0.0534 -0.0366 -0.4347
11258TIP3   OH255188   6.385   3.507   0.782  0.0818  0.1231 -0.2881
11258TIP3    H155189   6.436   3.490   0.861 -1.0751  0.7143  0.6202
11258TIP3    H255190   6.415   3.592   0.751 -1.6851  1.4318  1.3934
11259TIP3   OH255191   4.695   6.422   5.755  0.1717  0.0636  0.7210
11259TIP3    H155192   4.786   6.401   5.734 -0.5245 -0.9565 -1.5977
11259TIP3    H255193   4.683   6.388   5.844  1.6331 -1.2555  0.4697
11260TIP3   OH255194   5.659   0.290   5.442 -0.1508 -0.5117 -0.4120
11260TIP3    H155195   5.699   0.302   5.528 -0.6957 -0.9827 -0.0923
11260TIP3    H255196   5.714   0.342   5.383  0.5627 -0.6500  0.1238
11261TIP3   OH255197   6.623   0.750  13.695 -0.6657  0.3973  0.3111
11261TIP3    H155198   6.643   0.796  13.776 -1.7374  1.0198  0.2327
11261TIP3    H255199   6.566   0.809  13.646  2.0149  1.2029 -2.1081
11262TIP3   OH255200   2.369   2.492   3.076 -0.3682 -0.0723 -0.1702
11262TIP3    H155201   2.317   2.467   2.999 -0.5916 -0.3869  0.0797
11262TIP3    H255202   2.311   2.475   3.150 -0.4338  0.9740  0.0236
11263TIP3   OH255203   3.194   6.701   0.623  0.0621  0.5280  0.8962
11263TIP3    H155204   3.265   6.754   0.587 -0.2523 -1.1390 -2.5726
11263TIP3    H255205   3.237   6.645   0.688  1.6132  0.7436  0.1114
11264TIP3   OH255206   6.187   4.217  13.516 -0.1152  0.4883 -0.3707
11264TIP3    H155207   6.147   4.303  13.503 -2.8632 -0.7101 -0.6313
11264TIP3    H255208   6.184   4.204  13.611  1.7404  1.2493 -0.1692
11265TIP3   OH255209   6.363   2.350   4.508 -0.3193 -0.0318  0.1828
11265TIP3    H155210   6.448   2.308   4.501  0.0523  0.8264 -0.9065
11265TIP3    H255211   6.301   2.285   4.474  0.1148 -0.0660 -0.5581
11266TIP3   OH255212   1.564   3.186  15.940  0.0528 -0.5163 -0.1155
11266TIP3    H155213   1.554   3.250  15.869 -0.2303  0.9423  1.1936
11266TIP3    H255214   1.658   3.168  15.943  0.0263 -0.8817 -1.0877
11267TIP3   OH255215   4.312   4.455  13.094  0.2581 -0.0626 -1.0370
11267TIP3    H155216   4.315   4.447  13.190 -0.8349 -1.6634 -1.1126
11267TIP3    H255217   4.233   4.507  13.077  0.6315  0.5032 -1.0708
11268TIP3   OH255218   4.769   0.021   3.660  0.0732  0.4566 -0.6032
11268TIP3    H155219   4.699  -0.003   3.600 -0.4153 -0.0863  0.1534
11268TIP3    H255220   4.727   0.022   3.746  1.1654 -0.7448 -0.0204
11269TIP3   OH255221   0.556   0.038   3.430 -0.0656  0.0390 -0.0084
11269TIP3    H155222   0.545   0.131   3.450  2.8325  0.7315 -1.2205
11269TIP3    H255223   0.505   0.026   3.349  0.7911  1.0060 -0.7273
11270TIP3   OH255224   0.274   2.209  15.262 -0.1207  0.2947 -0.1252
11270TIP3    H155225   0.308   2.238  15.346 -0.0452  1.2124 -0.4658
11270TIP3    H255226   0.286   2.114  15.263  0.4899  0.3692  0.6281
11271TIP3   OH255227   2.070   3.198  12.216  0.5945  0.2633 -0.8207
11271TIP3    H155228   2.090   3.248  12.136  1.6858 -0.4135 -0.9970
11271TIP3    H255229   2.155   3.187  12.259 -0.0779  1.3095  0.8763
11272TIP3   OH255230   5.476   1.582   3.033 -0.2913  0.7606 -0.7904
11272TIP3    H155231   5.550   1.551   2.981 -0.4605  1.6531 -1.5974
11272TIP3    H255232   5.466   1.674   3.008 -0.1878  1.3184  1.0841
11273TIP3   OH255233   3.729   0.472  17.097 -0.2854 -0.3989 -0.1433
11273TIP3    H155234   3.634   0.464  17.087 -0.2597 -0.4057 -0.3949
11273TIP3    H255235   3.761   0.382  17.105 -0.0974 -0.5366 -2.0102
11274TIP3   OH255236   0.992   0.761   5.376 -0.6354 -0.1323  0.0720
11274TIP3    H155237   0.906   0.720   5.363 -1.0668  0.6269  0.4866
11274TIP3    H255238   1.054   0.688   5.374 -1.0510 -0.4854 -2.3863
11275TIP3   OH255239   3.648   3.247   4.223  0.5084 -0.1856 -1.1967
11275TIP3    H155240   3.732   3.261   4.266 -0.0168  0.2344 -0.2621
11275TIP3    H255241   3.583   3.280   4.286 -0.3388 -0.2834 -1.9919
11276TIP3   OH255242   4.127   2.360   1.121  0.6445  0.1568  0.0228
11276TIP3    H155243   4.102   2.372   1.029  0.9520 -0.1353 -0.1004
11276TIP3    H255244   4.212   2.404   1.128  0.2804  0.8212  0.3480
11277TIP3   OH255245   6.034   6.081  11.912  0.7856 -0.5884 -0.2965
11277TIP3    H155246   6.108   6.094  11.853  0.8039  0.5951 -0.0331
11277TIP3    H255247   6.033   6.158  11.968  0.8075 -1.7215  1.3277
11278TIP3   OH255248   5.310   1.508  15.174  0.1577  0.6187 -1.0818
11278TIP3    H155249   5.379   1.487  15.111  0.9120  0.4808 -0.2283
11278TIP3    H255250   5.351   1.495  15.259 -0.5902  1.6259 -0.5505
11279TIP3   OH255251   3.410   5.729  13.119  0.0616 -0.0743 -0.6720
11279TIP3    H155252   3.460   5.807  13.098  1.9891 -1.0218  0.0963
11279TIP3    H255253   3.432   5.710  13.210 -0.5795 -1.3447 -0.7558
11280TIP3   OH255254   0.071   3.047   6.056  0.2410  0.3120 -0.1904
11280TIP3    H155255   0.040   3.019   6.142 -1.0530 -0.2235 -0.7878
11280TIP3    H255256  -0.007   3.040   6.000  0.5841  2.4156 -1.0086
11281TIP3   OH255257   4.901   0.779  14.819  0.3856  0.2895 -0.0430
11281TIP3    H155258   4.970   0.805  14.759  1.4304 -1.2532  0.4452
11281TIP3    H255259   4.847   0.857  14.828  1.8572  1.4308 -0.7069
11282TIP3   OH255260   4.964   0.886   6.000  0.3914  0.4296 -0.6089
11282TIP3    H155261   4.954   0.794   5.976 -0.1445  0.2717  0.1655
11282TIP3    H255262   4.950   0.934   5.919 -1.4747 -0.0638 -0.6141
11283TIP3   OH255263   4.586   1.512  15.094  0.4957 -0.2892  0.5578
11283TIP3    H155264   4.646   1.573  15.136 -1.6118  0.7212  2.2563
11283TIP3    H255265   4.549   1.561  15.021  0.0743 -0.1267  0.8790
11284TIP3   OH255266   0.019   0.448   2.166 -0.0166  0.3015 -0.4022
11284TIP3    H155267  -0.050   0.498   2.210 -0.2911  0.0119 -0.4988
11284TIP3    H255268   0.047   0.383   2.231 -0.4151 -0.1196 -0.6490
11285TIP3   OH255269   5.226   1.437  12.008 -0.2045  0.4554  0.4494
11285TIP3    H155270   5.274   1.504  12.056 -1.1736  0.3873  1.5560
11285TIP3    H255271   5.144   1.427  12.056 -0.3068 -1.1487  0.0087
11286TIP3   OH255272   4.166   4.033   4.444 -0.2238  0.0341  0.0299
11286TIP3    H155273   4.145   3.959   4.387 -0.0280  0.6984 -0.9213
11286TIP3    H255274   4.235   4.000   4.502 -1.3329 -1.0468  0.7666
11287TIP3   OH255275   2.141   5.773   3.665 -0.3453  0.4261 -0.3377
11287TIP3    H155276   2.069   5.834   3.679 -0.6524  0.1166 -0.5488
11287TIP3    H255277   2.219   5.828   3.664 -0.6058  0.8021 -0.4075
11288TIP3   OH255278   1.306   2.861  15.285 -0.9550 -0.4663 -0.4964
11288TIP3    H155279   1.362   2.853  15.208 -0.5617  0.3516 -0.3003
11288TIP3    H255280   1.225   2.817  15.260  0.4784 -3.6368 -0.0490
11289TIP3   OH255281   4.885   3.453   2.864 -0.3962 -0.1231 -0.4987
11289TIP3    H155282   4.888   3.447   2.768  0.2448  1.0781 -0.5722
11289TIP3    H255283   4.858   3.365   2.892 -3.2122  0.1886 -1.8662
11290TIP3   OH255284   3.302   5.089  11.803 -0.4565  0.3135  0.3086
11290TIP3    H155285   3.259   5.098  11.888 -0.1172 -1.2280  0.6808
11290TIP3    H255286   3.230   5.078  11.741 -0.7214  1.8291  0.3137
11291TIP3   OH255287   0.840   3.697  13.563  0.1145 -0.2963  0.2996
11291TIP3    H155288   0.924   3.669  13.526  0.0232 -0.5289  0.2670
11291TIP3    H255289   0.864   3.748  13.640  0.4414  2.8131 -1.7104
11292TIP3   OH255290   4.093   0.374   4.724 -0.2673 -0.1914 -0.0247
11292TIP3    H155291   4.087   0.456   4.774  0.4875 -1.1498  1.7086
11292TIP3    H255292   4.010   0.330   4.740 -0.6417  0.1585 -0.8977
11293TIP3   OH255293   3.941   4.489  13.944  0.2433  0.3361 -0.0168
11293TIP3    H155294   3.926   4.573  13.988 -2.9610 -0.0311 -0.1239
11293TIP3    H255295   3.948   4.425  14.015  0.2868  0.4027  0.0383
11294TIP3   OH255296   2.149   3.876   2.833 -0.9712  0.3283  0.5443
11294TIP3    H155297   2.055   3.886   2.849 -1.1631 -1.4978  0.8336
11294TIP3    H255298   2.170   3.790   2.871  0.4223 -0.1306 -1.1661
11295TIP3   OH255299   4.799   2.719   0.548  0.2353 -0.2576 -0.3063
11295TIP3    H155300   4.893   2.719   0.529  0.6688 -2.2281  1.3837
11295TIP3    H255301   4.788   2.790   0.611  0.6826 -0.2564 -0.2220
11296TIP3   OH255302   5.722   6.766   4.036  0.0826  0.1395  0.3199
11296TIP3    H155303   5.793   6.702   4.038 -0.2973 -0.2735  1.7121
11296TIP3    H255304   5.672   6.744   3.957  0.8293 -0.2993 -0.0376
11297TIP3   OH255305   4.726   3.596   2.140  0.3043 -0.2153  0.5562
11297TIP3    H155306   4.810   3.623   2.176 -0.0906  0.0117  1.3121
11297TIP3    H255307   4.748   3.521   2.084  1.2092  0.7731 -0.4709
11298TIP3   OH255308   2.203   0.937   4.317 -0.2802 -0.2305 -0.0447
11298TIP3    H155309   2.253   0.865   4.278 -1.6007 -1.5173  0.5101
11298TIP3    H255310   2.240   0.947   4.405 -1.5089 -1.8261  0.7203
11299TIP3   OH255311   0.175   6.629   5.357  0.1983 -0.1117 -0.4076
11299TIP3    H155312   0.095   6.593   5.394  0.4522 -0.1965  0.0752
11299TIP3    H255313   0.244   6.601   5.417  0.3334  1.6569  0.3343
11300TIP3   OH255314   5.360   1.834  14.830 -0.1512 -0.2075  0.4103
11300TIP3    H155315   5.383   1.884  14.752 -0.0115 -0.4162  0.3150
11300TIP3    H255316   5.342   1.746  14.797 -1.8445  0.1193  0.3721
11301TIP3   OH255317   3.337   5.036  16.929  0.1055  0.1154 -0.5268
11301TIP3    H155318   3.297   5.050  16.843 -1.6240  1.5182  0.4449
11301TIP3    H255319   3.321   4.943  16.947 -2.2197  0.4461 -0.5033
11302TIP3   OH255320   5.835   4.802   3.185  0.4770  0.2989 -0.0048
11302TIP3    H155321   5.869   4.833   3.269  2.1252  0.6602 -0.7593
11302TIP3    H255322   5.913   4.787   3.132 -0.5471  0.9150 -1.7740
11303TIP3   OH255323   6.466   0.854  11.241  0.2701 -0.1516 -0.3552
11303TIP3    H155324   6.510   0.779  11.203  0.3915  0.1982 -0.9077
11303TIP3    H255325   6.510   0.930  11.204  0.0447  0.1993  0.0744
11304TIP3   OH255326   0.842   6.549  10.707 -0.3472 -0.5160  0.1411
11304TIP3    H155327   0.779   6.520  10.640  0.1379  0.2530 -0.6696
11304TIP3    H255328   0.902   6.475  10.715  0.2748 -0.1815 -1.1501
11305TIP3   OH255329   1.371   0.524  12.009 -0.2159  0.1230  0.2139
11305TIP3    H155330   1.276   0.521  12.025 -0.4242  2.6944  0.0204
11305TIP3    H255331   1.410   0.533  12.096 -0.0574 -1.5783  0.3465
11306TIP3   OH255332   3.417   1.494  14.747  0.1786  0.2476  0.0614
11306TIP3    H155333   3.379   1.519  14.663 -0.2204 -0.3352  0.0628
11306TIP3    H255334   3.356   1.430  14.783  1.1387 -0.6933  0.0806
11307TIP3   OH255335   3.730   5.012   2.636 -0.8837 -0.4012  0.3558
11307TIP3    H155336   3.822   4.993   2.617 -0.4491  0.7642  1.2033
11307TIP3    H255337   3.704   4.943   2.697 -0.8774 -1.3003 -0.6200
11308TIP3   OH255338   0.249   2.644  13.449  0.0832 -0.5145  0.3301
11308TIP3    H155339   0.217   2.559  13.420 -1.2755 -0.7150  2.2088
11308TIP3    H255340   0.337   2.650  13.413  0.2062 -2.7195  0.1310
11309TIP3   OH255341   5.059   5.853  16.156  0.2025 -0.0572  0.1431
11309TIP3    H155342   5.127   5.846  16.089 -0.6470 -0.3280 -0.7233
11309TIP3    H255343   5.073   5.778  16.214  0.0425 -0.6826 -0.6118
11310TIP3   OH255344   2.103   4.492   3.573  0.0322  0.6417 -0.1036
11310TIP3    H155345   2.156   4.566   3.545  0.4287 -0.2799 -1.9452
11310TIP3    H255346   2.021   4.501   3.524  0.8402 -1.1464 -1.9381
11311TIP3   OH255347   3.406   2.688   3.936 -0.0832 -0.2667  0.6093
11311TIP3    H155348   3.312   2.707   3.929  0.2043  0.7519 -0.7423
11311TIP3    H255349   3.443   2.765   3.978  0.4974  0.4538 -1.1619
11312TIP3   OH255350   2.423   2.698  16.085  0.1082 -0.5391  0.3815
11312TIP3    H155351   2.490   2.766  16.075  1.5744 -1.7041  1.7116
11312TIP3    H255352   2.433   2.644  16.006  0.4734 -0.4768  0.3829
11313TIP3   OH255353   5.880   1.259   1.225 -0.4961 -0.8878 -0.2256
11313TIP3    H155354   5.796   1.286   1.263 -0.2120  1.3773 -1.0634
11313TIP3    H255355   5.861   1.245   1.133 -0.2175 -1.7492 -0.1608
11314TIP3   OH255356   3.178   6.161   6.174  0.0614 -0.1094  0.1689
11314TIP3    H155357   3.128   6.226   6.125  0.6549  0.5989  0.4774
11314TIP3    H255358   3.117   6.127   6.240  0.0820  1.0240  0.7946
11315TIP3   OH255359   1.247   4.315   4.438  0.1353  0.0534  0.1403
11315TIP3    H155360   1.322   4.367   4.469  0.6621 -1.3443  1.2892
11315TIP3    H255361   1.213   4.273   4.517 -0.9477 -0.5050 -0.6100
11316TIP3   OH255362   6.708   0.853  16.887  0.4280  0.5248  0.1670
11316TIP3    H155363   6.684   0.887  16.801  0.5546  0.0258 -0.0717
11316TIP3    H255364   6.803   0.863  16.891  0.5469 -0.3746 -0.1683
11317TIP3   OH255365   4.243   2.630  13.048 -0.0973  0.0115 -0.7883
11317TIP3    H155366   4.162   2.595  13.085 -0.0243  0.8477  0.2222
11317TIP3    H255367   4.216   2.711  13.004 -0.2394 -1.1510 -2.9456
11318TIP3   OH255368   5.446   1.725   2.061 -0.3654  0.1673  0.1470
11318TIP3    H155369   5.522   1.670   2.044 -0.8031 -0.2936 -0.3485
11318TIP3    H255370   5.467   1.809   2.019 -0.5252 -0.2680 -0.8237
11319TIP3   OH255371   4.496   5.769   5.740 -0.2382  0.4120 -0.1524
11319TIP3    H155372   4.435   5.799   5.673 -0.4213 -0.1993 -0.2622
11319TIP3    H255373   4.440   5.745   5.814 -0.1818 -0.6697 -0.4489
11320TIP3   OH255374   5.131   3.715  14.378  0.0292  0.3932  0.2463
11320TIP3    H155375   5.196   3.665  14.329  0.6093  1.5890 -0.2266
11320TIP3    H255376   5.117   3.794  14.326 -0.0465  1.2519  1.5396
11321TIP3   OH255377   0.322   4.273   2.728 -0.6114 -0.0775  0.2233
11321TIP3    H155378   0.230   4.280   2.754 -0.3914 -1.0313  1.3615
11321TIP3    H255379   0.366   4.238   2.806  0.9401  1.5011  0.1023
11322TIP3   OH255380   0.380   3.628   4.084  0.6047  0.4191  0.2719
11322TIP3    H155381   0.333   3.565   4.138  0.8142  0.9757  1.1187
11322TIP3    H255382   0.444   3.668   4.143 -0.7064  2.7209  0.2709
11323TIP3   OH255383   4.698   2.103  11.570 -0.4933 -0.0890 -0.0603
11323TIP3    H155384   4.756   2.176  11.552 -0.4795 -0.1708 -0.3527
11323TIP3    H255385   4.684   2.106  11.665  1.0254 -0.8606  0.2067
11324TIP3   OH255386   5.654   3.950   2.241  0.3812  0.0034  0.4696
11324TIP3    H155387   5.725   3.955   2.178 -1.3158  4.9230 -1.4929
11324TIP3    H255388   5.664   4.029   2.294 -2.9120  0.2527  0.8766
11325TIP3   OH255389   1.227   4.816   6.097 -0.2572 -0.5937 -0.0954
11325TIP3    H155390   1.277   4.896   6.084 -0.6772 -0.4379 -0.8214
11325TIP3    H255391   1.223   4.805   6.192 -1.2685  0.9281  0.0723
11326TIP3   OH255392   5.844   5.458   2.469 -0.1471  0.1569  0.3931
11326TIP3    H155393   5.816   5.398   2.399  0.8654  0.4371 -0.2710
11326TIP3    H255394   5.833   5.407   2.549  0.7514 -0.9846 -0.1615
11327TIP3   OH255395   4.157   1.135  13.183 -0.6902 -0.9116  0.0430
11327TIP3    H155396   4.080   1.162  13.134 -1.3366  0.3424  1.6484
11327TIP3    H255397   4.124   1.112  13.270  0.8883  1.2614  1.3073
11328TIP3   OH255398   3.748   1.785  17.238  0.2599  0.3948 -0.3907
11328TIP3    H155399   3.695   1.853  17.198  2.1324  0.2882 -3.3960
11328TIP3    H255400   3.829   1.830  17.263  0.5198 -0.2632 -0.0213
11329TIP3   OH255401   3.784   6.373  14.055 -0.3676  0.2639 -0.2388
11329TIP3    H155402   3.754   6.351  14.143  3.3129 -0.1471  1.1081
11329TIP3    H255403   3.799   6.468  14.057  0.3558  0.1519 -0.1868
11330TIP3   OH255404   3.005   2.606  16.175  0.5182 -0.2160 -0.2939
11330TIP3    H155405   2.949   2.539  16.213 -0.8226  0.3908 -1.1327
11330TIP3    H255406   3.084   2.606  16.230 -0.0383 -1.5087  0.5334
11331TIP3   OH255407   5.209   6.310   2.904 -0.9453 -0.7024 -0.0039
11331TIP3    H155408   5.291   6.299   2.856 -0.5377 -2.5578  1.0398
11331TIP3    H255409   5.145   6.259   2.854 -1.3093  0.1216 -0.3969
11332TIP3   OH255410   5.425   5.129   0.587  0.2455 -0.0289  0.0154
11332TIP3    H155411   5.412   5.090   0.500  1.7955  0.3372 -0.4182
11332TIP3    H255412   5.420   5.055   0.647 -1.2789 -0.2271 -0.3134
11333TIP3   OH255413   5.008   5.432   1.918  0.0743  0.2291 -0.0597
11333TIP3    H155414   5.010   5.369   1.990 -0.4531 -1.3651 -1.3760
11333TIP3    H255415   4.941   5.495   1.943  0.2479 -0.0082  1.0596
11334TIP3   OH255416   0.039   5.148  13.803  0.1649 -0.5004  0.8439
11334TIP3    H155417   0.113   5.207  13.813 -0.7210  0.7495  0.3139
11334TIP3    H255418  -0.021   5.172  13.874 -1.6301  1.5305 -1.1866
11335TIP3   OH255419   1.580   0.965  13.695  0.7427 -0.6022  0.2337
11335TIP3    H155420   1.488   0.953  13.672  0.8174 -1.0219  0.1505
11335TIP3    H255421   1.628   0.942  13.616  0.8149  3.9611 -1.3930
11336TIP3   OH255422   3.796   3.510   6.247 -0.0104 -0.1455 -0.1465
11336TIP3    H155423   3.745   3.478   6.322  1.6740 -1.1865  0.6239
11336TIP3    H255424   3.761   3.597   6.230 -1.3133 -0.3910  1.0085
11337TIP3   OH255425   2.841   0.941   3.354 -0.0544  0.1068  0.4712
11337TIP3    H155426   2.856   0.930   3.448  0.8942  1.2054  0.4835
11337TIP3    H255427   2.798   0.861   3.326 -0.4919 -0.1698  1.8755
11338TIP3   OH255428   6.214   6.205  11.294 -0.3241  0.0057  0.3427
11338TIP3    H155429   6.142   6.260  11.261 -0.0999  0.0974  0.0026
11338TIP3    H255430   6.180   6.116  11.288  0.5674 -0.2512 -2.5227
11339TIP3   OH255431   4.582   1.150  12.169  0.4338  0.2351 -0.2288
11339TIP3    H155432   4.500   1.111  12.200 -0.6660  1.4491 -1.5062
11339TIP3    H255433   4.644   1.134  12.240 -1.4117  1.0575  1.6832
11340TIP3   OH255434   1.206   1.026  11.062 -0.2114  0.1221 -0.0528
11340TIP3    H155435   1.260   1.025  11.140 -0.0860  1.9420 -0.0772
11340TIP3    H255436   1.220   0.940  11.022  2.4431  0.4004  0.0860
11341TIP3   OH255437   3.889   3.688  16.988 -0.2267  0.0768  0.0797
11341TIP3    H155438   3.981   3.707  16.966 -0.3985 -0.0074 -0.7757
11341TIP3    H255439   3.891   3.600  17.024  0.1484  0.4346  0.9503
11342TIP3   OH255440   0.231   0.518  11.430  0.1232 -0.2560  0.2427
11342TIP3    H155441   0.300   0.495  11.369  1.7982 -1.0618  2.3052
11342TIP3    H255442   0.184   0.437  11.446  1.2877 -0.6663  1.8441
11343TIP3   OH255443   6.633   4.093   2.822 -0.2568 -0.1056 -0.4089
11343TIP3    H155444   6.700   4.072   2.756  1.7017  1.6198  0.9035
11343TIP3    H255445   6.560   4.127   2.771  0.3009 -0.9083 -1.8274
11344TIP3   OH255446   1.638   3.751   1.849  0.4652  0.8859 -0.1711
11344TIP3    H155447   1.733   3.747   1.838  0.5250 -1.3399  0.7294
11344TIP3    H255448   1.624   3.732   1.941 -0.9832 -3.7784 -1.1171
11345TIP3   OH255449   2.721   2.091   4.002 -0.3845  0.5959 -0.2948
11345TIP3    H155450   2.749   2.160   3.942  0.0506  0.6308 -0.0586
11345TIP3    H255451   2.646   2.127   4.048  0.5418  1.3669  0.6635
11346TIP3   OH255452   3.123   4.607   5.785 -0.7570 -0.8801  0.1189
11346TIP3    H155453   3.070   4.676   5.747 -0.6433 -0.9453 -0.1601
11346TIP3    H255454   3.150   4.641   5.870  1.5758  0.5852 -1.0952
11347TIP3   OH255455   4.375   6.353  16.138 -0.9070  0.1035  0.8266
11347TIP3    H155456   4.302   6.306  16.179  0.3893 -1.6187  1.2489
11347TIP3    H255457   4.451   6.298  16.154  0.4840  1.7716  0.2443
11348TIP3   OH255458   3.019   4.057   5.688 -0.0953 -0.4340 -0.2083
11348TIP3    H155459   3.000   4.038   5.780 -0.1938 -1.4828 -0.4323
11348TIP3    H255460   3.074   4.136   5.690 -1.6658  0.6915  0.6389
11349TIP3   OH255461   1.401   4.840   0.960 -0.2815  0.0220  0.1839
11349TIP3    H155462   1.468   4.873   0.900 -0.0658  0.7933  0.8418
11349TIP3    H255463   1.332   4.806   0.902  0.2175  0.1554 -0.4961
11350TIP3   OH255464   0.513   2.505   2.576  0.3071 -0.3909  0.5383
11350TIP3    H155465   0.572   2.460   2.636  0.4719 -0.3479  0.4098
11350TIP3    H255466   0.438   2.529   2.630  0.1829 -0.8909  0.5835
11351TIP3   OH255467   2.865   5.556  16.637 -0.5111 -0.3188 -0.3338
11351TIP3    H155468   2.924   5.496  16.683  0.3650  1.1465  0.5327
11351TIP3    H255469   2.890   5.549  16.545  1.6467  0.8684  0.0989
11352TIP3   OH255470   5.592   0.801  12.165  0.2177  0.4852 -0.3663
11352TIP3    H155471   5.556   0.885  12.136 -0.0922  1.2735  2.0215
11352TIP3    H255472   5.687   0.816  12.167  0.1144  1.1199  0.8681
11353TIP3   OH255473   6.556   4.155  16.954 -0.3404 -0.0576 -0.1942
11353TIP3    H155474   6.646   4.132  16.934 -0.3109 -0.2130  0.1096
11353TIP3    H255475   6.553   4.250  16.945 -0.3377 -0.1279 -0.9501
11354TIP3   OH255476   6.202   6.134  16.153  0.3368  0.5429 -0.8647
11354TIP3    H155477   6.184   6.172  16.067  0.3578  0.8454 -0.7369
11354TIP3    H255478   6.158   6.049  16.151  0.5389  0.4465 -1.2589
11355TIP3   OH255479   2.126   0.816   5.218 -0.2260 -0.6433 -0.3754
11355TIP3    H155480   2.139   0.721   5.219  0.8600 -0.5408 -1.9070
11355TIP3    H255481   2.206   0.851   5.179 -1.2689  0.7936 -1.3184
11356TIP3   OH255482   5.838   6.351   1.856  0.3891  0.2482 -0.0082
11356TIP3    H155483   5.893   6.400   1.795 -0.7593  1.2506 -0.2924
11356TIP3    H255484   5.859   6.259   1.839  0.5763  0.5269 -1.4629
11357TIP3   OH255485   4.719   0.432  12.688 -0.4204 -0.1507  0.7330
11357TIP3    H155486   4.813   0.443  12.672 -0.1257 -1.1348  1.6219
11357TIP3    H255487   4.690   0.371  12.621 -0.1121 -0.9232  1.2851
11358TIP3   OH255488   4.659   2.266   5.171  0.6943 -0.0220 -0.7290
11358TIP3    H155489   4.603   2.235   5.100  1.3190 -1.3778 -0.6542
11358TIP3    H255490   4.696   2.348   5.138 -0.3177  0.2329 -1.2815
11359TIP3   OH255491   3.693   3.396   3.952 -0.1106 -0.0891  0.0662
11359TIP3    H155492   3.678   3.304   3.974 -1.0052  0.4162  1.7414
11359TIP3    H255493   3.607   3.437   3.959 -0.2681  0.4324 -3.2935
11360TIP3   OH255494   1.227   6.251  12.402  0.3498 -0.9186 -0.3992
11360TIP3    H155495   1.261   6.318  12.461  0.5481 -0.3848 -1.1147
11360TIP3    H255496   1.255   6.168  12.441  0.9628 -0.5506 -0.0505
11361TIP3   OH255497   4.378   0.803   1.629  0.0198 -0.4285 -0.4562
11361TIP3    H155498   4.421   0.721   1.606 -0.0279 -0.3088 -0.9824
11361TIP3    H255499   4.449   0.861   1.656  0.0101 -0.7913  0.4066
11362TIP3   OH255500   2.334   5.333  15.914  0.6479 -0.3251  0.7744
11362TIP3    H155501   2.284   5.332  15.832  1.6838  1.5577  0.0477
11362TIP3    H255502   2.269   5.322  15.982 -0.3769 -0.8753 -0.2643
11363TIP3   OH255503   0.824   5.357  16.194  0.0617  0.1470 -0.0602
11363TIP3    H155504   0.746   5.367  16.139  0.8792 -1.1014 -1.5530
11363TIP3    H255505   0.868   5.442  16.188 -0.4880  0.4152 -0.3690
11364TIP3   OH255506   2.572   6.789   5.160  0.0456 -0.5239  0.1852
11364TIP3    H155507   2.623   6.752   5.231 -0.2535 -1.1378  0.0835
11364TIP3    H255508   2.635   6.804   5.090  0.5706  1.1700  0.9534
11365TIP3   OH255509   5.104   1.914   0.620 -0.6332 -0.1940  0.3463
11365TIP3    H155510   5.184   1.893   0.572  0.1306  1.9106  0.6011
11365TIP3    H255511   5.104   1.854   0.694 -2.4785 -4.4273 -2.6879
11366TIP3   OH255512   1.141   4.629  13.514 -0.0315 -0.1601 -0.5005
11366TIP3    H155513   1.104   4.634  13.602 -1.8774  0.2022 -1.2511
11366TIP3    H255514   1.105   4.548  13.477  1.0956 -0.5508 -0.7805
11367TIP3   OH255515   4.405   4.549   3.678  0.3015  0.1588  0.1090
11367TIP3    H155516   4.407   4.471   3.733 -1.5132  0.8510  1.2486
11367TIP3    H255517   4.380   4.517   3.591  0.5777 -0.6296  0.3179
11368TIP3   OH255518   5.419   4.460  15.138  0.7326 -0.4860  0.1714
11368TIP3    H155519   5.430   4.478  15.045  0.8861 -0.4830  0.1901
11368TIP3    H255520   5.475   4.385  15.155 -0.1442 -1.1969  0.0218
11369TIP3   OH255521   6.559   0.799   1.525  0.1640  0.1341 -0.0490
11369TIP3    H155522   6.524   0.753   1.448 -1.2061 -0.1085  0.6882
11369TIP3    H255523   6.543   0.892   1.506 -0.0994  0.0794 -0.1082
11370TIP3   OH255524   2.796   4.228   2.740  0.3054  0.0046 -0.4285
11370TIP3    H155525   2.711   4.230   2.695 -0.2023  0.1212  0.5002
11370TIP3    H255526   2.811   4.135   2.758 -1.4118  0.1731  2.5810
11371TIP3   OH255527   5.180   1.544  14.061 -0.3279 -0.4703 -0.2160
11371TIP3    H155528   5.183   1.633  14.026 -5.7809  0.4091  0.6769
11371TIP3    H255529   5.136   1.493  13.993 -0.9667 -1.4126  0.8641
11372TIP3   OH255530   0.174   2.937   3.144  0.4331 -0.4239  0.6462
11372TIP3    H155531   0.247   2.989   3.112  0.5161 -0.1223  1.3190
11372TIP3    H255532   0.191   2.926   3.237 -0.1360 -0.7571  0.7159
11373TIP3   OH255533   6.377   3.774  11.136  0.3210 -0.3356 -0.5266
11373TIP3    H155534   6.341   3.686  11.124 -0.7193 -0.1047  0.6911
11373TIP3    H255535   6.313   3.832  11.097  0.2907 -0.0360 -0.0414
11374TIP3   OH255536   1.512   6.575  12.035 -0.0048 -0.7517 -0.0934
11374TIP3    H155537   1.530   6.615  12.120  0.6866  1.9261 -1.3954
11374TIP3    H255538   1.417   6.582  12.025  0.1926  2.8876 -1.1584
11375TIP3   OH255539   1.773   0.743   2.506  0.3670 -0.4153 -0.7106
11375TIP3    H155540   1.867   0.761   2.513  0.6376 -1.6778 -0.8280
11375TIP3    H255541   1.736   0.823   2.468  1.6422 -0.5010 -2.2107
11376TIP3   OH255542   6.543   0.204  14.621 -0.0814  0.0911 -0.1442
11376TIP3    H155543   6.629   0.163  14.635 -0.5931 -0.5684  1.1521
11376TIP3    H255544   6.560   0.298  14.630  0.4158 -0.0616  0.5972
11377TIP3   OH255545   4.376   4.217   4.059  0.1481  0.9661 -0.0292
11377TIP3    H155546   4.451   4.159   4.045  0.7427  1.6778  0.1553
11377TIP3    H255547   4.382   4.243   4.151 -2.5868 -2.0880  1.2194
11378TIP3   OH255548   0.492   0.896  12.369 -0.4974 -0.3737 -0.0230
11378TIP3    H155549   0.415   0.856  12.408  0.0080 -0.5282  0.8413
11378TIP3    H255550   0.476   0.990  12.375 -0.8993 -0.4131 -0.4368
11379TIP3   OH255551   3.303   1.603   1.269 -0.0635  0.1053  0.3532
11379TIP3    H155552   3.339   1.621   1.356 -0.5511  2.6372  0.1059
11379TIP3    H255553   3.369   1.637   1.209 -0.7818  0.5674 -0.1887
11380TIP3   OH255554   0.140   2.819   0.453 -0.0185 -0.9455 -0.2194
11380TIP3    H155555   0.187   2.898   0.431  0.5546 -1.3642 -0.5219
11380TIP3    H255556   0.206   2.759   0.487 -0.0916 -1.9634 -1.7433
11381TIP3   OH255557   5.931   3.111  16.131  0.2381  0.6532  0.2908
11381TIP3    H155558   5.988   3.173  16.176 -0.0325  2.4090 -1.6218
11381TIP3    H255559   5.989   3.064  16.071 -0.0877  1.7406 -0.9358
11382TIP3   OH255560   1.368   4.969  11.330  0.2732  0.4364 -0.0052
11382TIP3    H155561   1.348   4.915  11.406  0.0086  1.3352  0.5871
11382TIP3    H255562   1.381   4.907  11.259  0.3427 -0.4144  0.7318
11383TIP3   OH255563   3.347   3.863  16.695  0.0315 -0.0411 -0.0861
11383TIP3    H155564   3.416   3.913  16.740 -0.2958  0.8569 -0.5466
11383TIP3    H255565   3.395   3.796  16.646  0.5352  0.1723  0.1031
11384TIP3   OH255566   1.531   1.174   5.652 -0.0223  0.0158 -0.2274
11384TIP3    H155567   1.599   1.239   5.671 -0.8106  0.3893  1.4457
11384TIP3    H255568   1.555   1.098   5.706 -1.1411  0.2997  0.6842
11385TIP3   OH255569   6.240   3.910   4.427 -0.7180 -0.4042  0.2838
11385TIP3    H155570   6.260   3.817   4.429 -0.9241 -0.4756 -0.4474
11385TIP3    H255571   6.171   3.922   4.492  0.5663 -0.4283  1.7102
11386TIP3   OH255572   2.868   4.024   2.110 -0.2903  0.4883  0.0542
11386TIP3    H155573   2.864   3.948   2.168  1.4261  1.3555  1.4190
11386TIP3    H255574   2.860   4.100   2.169  0.3011  1.3755 -0.9632
11387TIP3   OH255575   5.589   2.765   3.665 -0.0097  0.1216 -0.2553
11387TIP3    H155576   5.625   2.803   3.585 -0.4583  0.8557 -0.1134
11387TIP3    H255577   5.648   2.693   3.686  0.2560  0.0831 -1.1053
11388TIP3   OH255578   6.026   0.168  15.774 -0.2518  0.4180  0.0022
11388TIP3    H155579   6.076   0.250  15.774  1.6995 -0.7267 -0.1931
11388TIP3    H255580   6.020   0.144  15.681 -1.4855  0.6963 -0.0092
11389TIP3   OH255581   2.437   5.732   4.138 -0.4692 -0.2638 -0.2076
11389TIP3    H155582   2.349   5.695   4.143 -0.5438  0.0477  0.9991
11389TIP3    H255583   2.485   5.691   4.209 -0.2901  1.2048  0.5647
11390TIP3   OH255584   6.241   4.919   1.616 -0.1589 -0.1517  0.3730
11390TIP3    H155585   6.246   4.826   1.595 -1.8624 -0.6255  1.7586
11390TIP3    H255586   6.154   4.930   1.655 -0.0688  2.0666  0.0873
11391TIP3   OH255587   6.501   5.664  16.544 -0.3861  1.0160  0.2407
11391TIP3    H155588   6.472   5.603  16.612  0.4321  0.1639 -0.1383
11391TIP3    H255589   6.445   5.645  16.468  0.4353  0.0954 -0.1588
11392TIP3   OH255590   4.558   1.439   5.115  0.3200  0.4958 -0.1665
11392TIP3    H155591   4.642   1.434   5.069  0.4498 -0.4106  0.1410
11392TIP3    H255592   4.553   1.357   5.164  0.0227  1.2715  1.1505
11393TIP3   OH255593   4.195   0.497  16.788  0.5673 -0.2908 -0.2191
11393TIP3    H155594   4.142   0.514  16.865  2.5778 -0.3266  1.2555
11393TIP3    H255595   4.139   0.444  16.731 -2.1881  2.4789 -0.3703
11394TIP3   OH255596   6.101   3.388   5.398 -0.0022  0.2677 -0.8047
11394TIP3    H155597   6.005   3.383   5.404 -0.0245 -2.9362 -1.8203
11394TIP3    H255598   6.120   3.377   5.305  1.3639  0.0417 -0.5183
11395TIP3   OH255599   1.153   2.899  13.338 -0.0637 -0.0694 -0.2586
11395TIP3    H155600   1.237   2.859  13.317  0.2097  0.9926 -1.3492
11395TIP3    H255601   1.094   2.869  13.268 -0.1853  0.3622 -0.3500
11396TIP3   OH255602   2.006   2.015   0.120 -0.0990 -0.1410 -0.4130
11396TIP3    H155603   1.987   2.061   0.039  0.7243 -2.1282 -1.8104
11396TIP3    H255604   2.094   1.980   0.108 -0.0572 -0.6954  1.2462
11397TIP3   OH255605   1.142   6.522   6.529 -0.0175  1.1644  0.6890
11397TIP3    H155606   1.107   6.436   6.505 -0.1198  1.4315 -0.1646
11397TIP3    H255607   1.065   6.579   6.536  0.0934  1.3209  0.6496
11398TIP3   OH255608   3.888   5.286   4.452 -0.0724  0.2486 -0.0779
11398TIP3    H155609   3.813   5.284   4.513 -0.6427  1.4740 -0.7023
11398TIP3    H255610   3.904   5.379   4.437  0.5764 -0.0248 -1.1841
11399TIP3   OH255611   2.227   6.524   2.319  0.6570  0.2564 -0.6272
11399TIP3    H155612   2.263   6.586   2.381  0.1291 -1.7640  1.8877
11399TIP3    H255613   2.303   6.486   2.274  0.9327  4.0879 -3.9241
11400TIP3   OH255614   0.310   2.948   6.036 -0.4797  0.0917 -0.0324
11400TIP3    H155615   0.217   2.967   6.051 -0.5470 -0.8481  0.7560
11400TIP3    H255616   0.352   2.959   6.121 -0.2253 -1.5060  0.0821
11401TIP3   OH255617   4.546   1.737  17.109 -0.2063  0.4645  0.4725
11401TIP3    H155618   4.525   1.654  17.066 -2.3238  1.1081  0.1212
11401TIP3    H255619   4.471   1.754  17.166  0.9762  1.3258  1.8471
11402TIP3   OH255620   1.704   4.882   6.538 -0.0322 -0.0747 -0.1687
11402TIP3    H155621   1.698   4.888   6.442  0.4893  0.9040 -0.1526
11402TIP3    H255622   1.618   4.907   6.569  0.2074  1.0373 -0.3509
11403TIP3   OH255623   1.157   2.848   3.401 -0.1659  0.3842 -0.4019
11403TIP3    H155624   1.242   2.892   3.404  0.1278 -0.2174  0.2931
11403TIP3    H255625   1.170   2.773   3.343  0.2217 -0.5968  0.9157
11404TIP3   OH255626   1.913   2.545   1.961 -0.3971  0.1919  0.6754
11404TIP3    H155627   1.966   2.549   1.881  0.1347  0.4354  1.0328
11404TIP3    H255628   1.880   2.634   1.973 -2.3336 -0.3103 -0.4821
11405TIP3   OH255629   1.305   5.303  15.921 -0.7475 -0.2415  0.8164
11405TIP3    H155630   1.368   5.340  15.858  0.2676 -0.6597  1.5525
11405TIP3    H255631   1.226   5.355  15.909  0.1613  1.2012  0.7729
11406TIP3   OH255632   5.120   3.957  14.248 -0.3457  0.1734 -0.7764
11406TIP3    H155633   5.131   3.968  14.154 -1.4568  0.5819 -0.8802
11406TIP3    H255634   5.189   4.010  14.287 -0.2244  0.4522 -1.3622
11407TIP3   OH255635   1.890   3.459   4.424  0.1385 -0.3703  0.3886
11407TIP3    H155636   1.918   3.468   4.515  0.6138 -0.9435  0.3056
11407TIP3    H255637   1.880   3.364   4.412  1.2569 -0.3904 -0.5027
11408TIP3   OH255638   1.968   4.546   5.716 -0.4089 -0.1540  0.0144
11408TIP3    H155639   2.035   4.487   5.683 -1.8013 -1.8787  0.1260
11408TIP3    H255640   1.945   4.601   5.641  1.0983  0.4951 -0.0144
11409TIP3   OH255641   4.385   0.829   3.829  0.0398  0.0789 -0.1242
11409TIP3    H155642   4.374   0.854   3.921  0.9587  0.5741 -0.1338
11409TIP3    H255643   4.383   0.912   3.781 -0.1464 -0.1517 -0.5181
11410TIP3   OH255644   6.787   2.325   3.212 -0.3668  0.0098  0.3991
11410TIP3    H155645   6.866   2.348   3.163 -0.4875  0.5805  0.4652
11410TIP3    H255646   6.801   2.362   3.299 -0.5571 -0.1903  0.5160
11411TIP3   OH255647   5.296   1.674   5.268  0.0534 -0.1401  0.1922
11411TIP3    H155648   5.208   1.704   5.292  0.8322  0.8551  1.9805
11411TIP3    H255649   5.334   1.747   5.219  0.8847  0.6813  1.9688
11412TIP3   OH255650   1.646   0.689   0.981  0.1370  0.2044  0.8651
11412TIP3    H155651   1.552   0.706   0.977  0.4968  2.1958 -0.9544
11412TIP3    H255652   1.678   0.747   1.050  0.1154 -0.1652  1.1930
11413TIP3   OH255653   3.798   6.737   1.961 -0.4270  0.2082 -0.0073
11413TIP3    H155654   3.749   6.734   2.044 -1.3300 -0.6472 -0.5518
11413TIP3    H255655   3.818   6.646   1.942 -2.7403  0.0202 -2.1442
11414TIP3   OH255656   6.539   5.539   5.649  0.3056  0.4676  0.3529
11414TIP3    H155657   6.557   5.616   5.596  2.3802 -0.5334 -0.4979
11414TIP3    H255658   6.625   5.511   5.680 -0.1858 -2.3501 -0.5866
11415TIP3   OH255659   0.186   1.312  12.865 -0.3882 -0.5035  0.1285
11415TIP3    H155660   0.225   1.291  12.780 -1.6975  0.1380 -0.6631
11415TIP3    H255661   0.217   1.243  12.924 -0.6521 -1.8221 -1.2344
11416TIP3   OH255662   0.449   2.561   3.402  0.5676 -0.2838 -0.2152
11416TIP3    H155663   0.423   2.553   3.494  0.4683 -2.0474 -0.3514
11416TIP3    H255664   0.543   2.577   3.405  0.8434 -1.8179  0.2127
11417TIP3   OH255665   6.445   3.785  10.834 -0.1649  0.0086 -0.1469
11417TIP3    H155666   6.391   3.853  10.876 -0.5097 -1.3273  1.6833
11417TIP3    H255667   6.479   3.733  10.906 -1.0846 -2.6596 -1.5053
11418TIP3   OH255668   1.187   2.197  14.907  0.0031  0.3791 -0.1501
11418TIP3    H155669   1.172   2.287  14.879  1.4245  0.4631 -0.7227
11418TIP3    H255670   1.245   2.204  14.982 -0.9680 -0.0201  0.6584
11419TIP3   OH255671   1.440   0.834  14.447 -0.8394 -0.1705  0.7004
11419TIP3    H155672   1.455   0.770  14.378  3.1195 -0.5895  1.7058
11419TIP3    H255673   1.351   0.816  14.478 -0.6340 -3.8683 -0.3914
11420TIP3   OH255674   2.845   1.725  13.766 -0.8678  0.2007 -0.0956
11420TIP3    H155675   2.900   1.708  13.842 -0.6577  0.1194 -0.2632
11420TIP3    H255676   2.813   1.814  13.779 -1.9112 -0.2744  0.7485
11421TIP3   OH255677   4.244   3.672  16.117 -0.6168 -0.4933 -0.2953
11421TIP3    H155678   4.209   3.595  16.161 -1.9276 -0.5409 -1.3510
11421TIP3    H255679   4.299   3.637  16.047  1.3926 -0.4175  1.1538
11422TIP3   OH255680   5.566   3.501  13.720  0.5451 -0.2861  0.3596
11422TIP3    H155681   5.584   3.536  13.807 -0.2606 -0.4858  0.6062
11422TIP3    H255682   5.494   3.555  13.686  0.2254 -0.8154  0.1909
11423TIP3   OH255683   3.122   3.692   0.765  0.3023  0.1004 -0.1446
11423TIP3    H155684   3.135   3.597   0.766 -3.0669 -0.5252 -1.2592
11423TIP3    H255685   3.144   3.718   0.676  0.8046  0.2766  0.0330
11424TIP3   OH255686   2.150   2.741  16.122 -0.5255 -0.2873 -0.1042
11424TIP3    H155687   2.238   2.725  16.086 -0.0153 -0.2533  1.0641
11424TIP3    H255688   2.093   2.681  16.074 -0.1489  0.7721 -1.9719
11425TIP3   OH255689   0.489   5.607   3.915 -0.1958  0.3413  0.5966
11425TIP3    H155690   0.494   5.680   3.976  3.6338  0.5004  0.2994
11425TIP3    H255691   0.525   5.641   3.833  0.2344 -1.4291 -0.0018
11426TIP3   OH255692   5.466   1.349   0.498  0.1904 -0.4687 -0.8315
11426TIP3    H155693   5.503   1.264   0.473  0.8973 -0.2518 -0.5626
11426TIP3    H255694   5.537   1.393   0.545 -1.0726 -0.8662  1.5800
11427TIP3   OH255695   3.896   6.406   0.328  0.2502 -0.3744 -0.4365
11427TIP3    H155696   3.937   6.443   0.250  1.1882  0.6003  0.4800
11427TIP3    H255697   3.817   6.459   0.340  0.6163  0.1216 -0.1833
11428TIP3   OH255698   5.465   5.996   3.382  0.3262 -0.0075  0.5372
11428TIP3    H155699   5.429   5.921   3.428 -1.8407  1.2063  0.9514
11428TIP3    H255700   5.439   5.983   3.291  0.9937 -0.3256  0.3830
11429TIP3   OH255701   6.511   6.788   2.029  0.1002 -0.2216  0.3270
11429TIP3    H155702   6.437   6.810   1.972 -1.0424  0.3059  1.9270
11429TIP3    H255703   6.578   6.852   2.008 -0.7381  0.6886  0.3535
11430TIP3   OH255704   6.324   2.302   2.149  0.6911  0.9933  0.5517
11430TIP3    H155705   6.419   2.297   2.136  0.4989 -0.8644 -0.5581
11430TIP3    H255706   6.288   2.237   2.089 -1.3924  2.4223  0.1348
11431TIP3   OH255707   0.843   0.429   1.853  0.5150  0.7293 -0.0368
11431TIP3    H155708   0.863   0.392   1.767 -1.0730 -1.2621  0.3876
11431TIP3    H255709   0.782   0.500   1.835 -1.4806 -1.0059 -0.4959
11432TIP3   OH255710   1.816   1.117   0.679 -0.2765 -0.5655 -0.3720
11432TIP3    H155711   1.773   1.037   0.710 -0.6560 -1.0017 -1.8976
11432TIP3    H255712   1.763   1.188   0.714 -0.1385 -0.9862  0.7285
11433TIP3   OH255713   6.576   5.023  16.808  0.0213  0.3870  0.8312
11433TIP3    H155714   6.640   5.065  16.751 -0.1020 -0.3168  0.1509
11433TIP3    H255715   6.519   4.975  16.749 -1.4369  1.3680  1.3883
11434TIP3   OH255716   2.170   1.556   5.466 -0.4387 -0.1848  0.4106
11434TIP3    H155717   2.087   1.517   5.438 -0.2647  0.6543 -1.4658
11434TIP3    H255718   2.145   1.625   5.527 -1.0037 -0.8179  0.9068
11435TIP3   OH255719   2.331   4.782  12.547  0.1290  0.3299  0.5124
11435TIP3    H155720   2.254   4.831  12.575 -0.1698 -0.7240  1.6245
11435TIP3    H255721   2.347   4.811  12.457 -1.3417  0.8307  0.3927
11436TIP3   OH255722   2.568   5.347   1.113 -0.0319 -0.0404 -0.4685
11436TIP3    H155723   2.589   5.420   1.054  1.7086 -1.3211 -1.5216
11436TIP3    H255724   2.648   5.334   1.164 -1.0748  0.1732  1.2997
11437TIP3   OH255725   5.602   4.247  14.694  0.1204 -0.1501 -0.5348
11437TIP3    H155726   5.587   4.315  14.628 -0.1210  0.5168  0.2021
11437TIP3    H255727   5.584   4.289  14.778 -2.3251 -1.7363 -0.1641
11438TIP3   OH255728   0.073   2.571  16.431 -0.2238  0.4691  0.3936
11438TIP3    H155729  -0.002   2.629  16.442  0.9107  1.8815  1.1304
11438TIP3    H255730   0.106   2.559  16.520  0.7533  0.3554  0.0259
11439TIP3   OH255731   0.504   6.686   4.587 -0.3531  0.0402 -0.4222
11439TIP3    H155732   0.439   6.719   4.649  0.7281 -0.3878  1.0093
11439TIP3    H255733   0.478   6.596   4.569 -0.9438  0.3213 -0.9766
11440TIP3   OH255734   4.573   0.128   6.458  0.1773 -0.4386 -0.2019
11440TIP3    H155735   4.519   0.173   6.393  1.6475 -0.1285 -1.2700
11440TIP3    H255736   4.605   0.199   6.514 -2.3794 -0.8470  1.9914
11441TIP3   OH255737   0.340   2.611   0.599 -0.2247  0.1929  0.5789
11441TIP3    H155738   0.396   2.686   0.577 -0.0802 -0.0915 -0.0355
11441TIP3    H255739   0.297   2.637   0.680 -1.3831  1.6207 -0.4375
11442TIP3   OH255740   3.762   2.139   2.442 -0.1269  0.1774  0.5583
11442TIP3    H155741   3.815   2.175   2.513 -0.0358  0.1967  0.4809
11442TIP3    H255742   3.823   2.129   2.369 -0.2529  0.3059  0.4344
11443TIP3   OH255743   0.494   2.033   5.750  0.6171 -0.2835  0.0252
11443TIP3    H155744   0.579   2.018   5.792  0.1480 -1.7458  0.5079
11443TIP3    H255745   0.475   1.952   5.704 -0.9381 -0.3388  0.7025
11444TIP3   OH255746   6.367   2.230   5.589  0.6701  0.4880  0.5043
11444TIP3    H155747   6.285   2.224   5.637  1.1722  0.2559  1.3539
11444TIP3    H255748   6.350   2.294   5.520 -0.7004 -0.6926 -0.3215
11445TIP3   OH255749   6.108   2.362   3.788 -0.1302 -0.0194 -0.4249
11445TIP3    H155750   6.180   2.369   3.850  1.0643 -1.3659 -1.5945
11445TIP3    H255751   6.114   2.442   3.735 -1.0708  1.0645  1.0508
11446TIP3   OH255752   1.607   4.113  13.108 -0.2488 -0.5164 -0.1938
11446TIP3    H155753   1.530   4.064  13.079 -0.2419 -0.4051 -0.4064
11446TIP3    H255754   1.578   4.205  13.106  0.3009 -0.3388 -1.6258
11447TIP3   OH255755   4.934   6.292  12.077 -0.0241 -0.2629  0.3516
11447TIP3    H155756   4.994   6.218  12.072  0.9555  0.5778 -1.2188
11447TIP3    H255757   4.989   6.366  12.102 -1.0196 -0.0563  2.0745
11448TIP3   OH255758   1.149   5.411  12.977  0.1929  0.9540  0.0662
11448TIP3    H155759   1.073   5.469  12.983  0.2641  1.0793 -0.2313
11448TIP3    H255760   1.166   5.384  13.067 -0.2226  0.9057  0.1304
11449TIP3   OH255761   5.280   1.040  13.703  0.0061 -0.0735  0.2460
11449TIP3    H155762   5.191   1.072  13.687  0.0636  1.0728  2.0041
11449TIP3    H255763   5.313   1.018  13.616 -1.3876  1.0989 -0.6314
11450TIP3   OH255764   0.172   1.645   3.913  0.1117  0.3593 -0.0369
11450TIP3    H155765   0.211   1.681   3.993  1.0406 -1.4017  0.3535
11450TIP3    H255766   0.245   1.637   3.852  0.3859 -2.4351  0.5078
11451TIP3   OH255767   2.688   2.188   1.674  0.3668 -0.4259 -0.5142
11451TIP3    H155768   2.733   2.109   1.642  0.3823 -0.6634  0.0848
11451TIP3    H255769   2.635   2.216   1.600  2.6436  0.7617 -1.8001
11452TIP3   OH255770   6.107   5.899  12.954  0.4941 -0.4232  0.2836
11452TIP3    H155771   6.081   5.896  13.046 -0.7575  2.0034  0.0925
11452TIP3    H255772   6.036   5.854  12.908  0.0764  0.1677  0.3443
11453TIP3   OH255773   1.412   6.252   0.317  0.0792 -0.1229  0.2337
11453TIP3    H155774   1.482   6.318   0.311 -1.1863  1.0936 -2.8449
11453TIP3    H255775   1.350   6.289   0.380  1.4285 -0.5028  1.8428
11454TIP3   OH255776   4.639   3.285   0.892  0.4184 -0.0792  0.3439
11454TIP3    H155777   4.684   3.201   0.899  0.6376  0.1127  1.2538
11454TIP3    H255778   4.546   3.262   0.897  0.3622 -0.4908 -1.7003
11455TIP3   OH255779   1.672   3.055  11.626 -0.1422 -0.0571  0.0562
11455TIP3    H155780   1.647   3.093  11.711 -1.9800  0.2931 -0.5880
11455TIP3    H255781   1.670   2.961  11.640  0.7208  0.0005  0.6800
11456TIP3   OH255782   0.301   6.365   5.385 -0.0387 -0.3050  0.6139
11456TIP3    H155783   0.305   6.418   5.465 -2.4429 -2.3628  2.2471
11456TIP3    H255784   0.208   6.363   5.363  0.5322  0.0609 -2.2460
11457TIP3   OH255785   4.462   1.665  14.867  0.1452 -0.0413 -0.1887
11457TIP3    H155786   4.403   1.703  14.932  2.8313  0.9796  1.8212
11457TIP3    H255787   4.487   1.738  14.811  0.3702 -0.2252 -0.3344
11458TIP3   OH255788   2.906   5.269  16.452  0.3912  0.2986  0.0984
11458TIP3    H155789   2.838   5.257  16.386 -0.0824 -1.4085  0.8401
11458TIP3    H255790   2.869   5.230  16.532  2.1064 -0.3976  0.5930
11459TIP3   OH255791   2.973   4.186  12.578 -0.3373  0.4475  0.0163
11459TIP3    H155792   2.967   4.091  12.569 -1.1364  0.2537  1.9223
11459TIP3    H255793   3.006   4.217  12.494 -0.2907 -1.4888 -0.7254
11460TIP3   OH255794   3.147   0.604  13.499  0.1570 -0.3530  0.4298
11460TIP3    H155795   3.227   0.606  13.552 -0.5175  0.7129  1.4517
11460TIP3    H255796   3.140   0.692  13.462  0.3328 -0.9316 -1.0410
11461TIP3   OH255797   4.704   0.120   5.487  0.5570  0.5635  0.2568
11461TIP3    H155798   4.688   0.034   5.525 -0.8153  1.0959  0.9431
11461TIP3    H255799   4.787   0.148   5.526  0.8951 -0.3505  0.1994
11462TIP3   OH255800   5.455   1.061   3.200  0.0456 -0.3497  0.2938
11462TIP3    H155801   5.466   1.155   3.188 -1.4908 -0.2156 -0.3157
11462TIP3    H255802   5.391   1.036   3.133  1.0190 -1.9861 -0.1011
11463TIP3   OH255803   5.590   2.356  10.676  0.0722  0.2157 -0.7100
11463TIP3    H155804   5.645   2.431  10.654  2.4070 -1.3093 -0.4658
11463TIP3    H255805   5.643   2.280  10.654 -2.1437 -1.4067 -0.8170
11464TIP3   OH255806   4.170   1.681  12.562  0.1617 -0.3167 -0.6231
11464TIP3    H155807   4.079   1.690  12.534 -0.1202  0.9128  0.6103
11464TIP3    H255808   4.172   1.717  12.651  1.5032 -1.9261  0.0443
11465TIP3   OH255809   2.857   5.627  12.626  0.0247 -0.3537 -0.1842
11465TIP3    H155810   2.946   5.613  12.596 -0.2139  0.0384 -1.1016
11465TIP3    H255811   2.841   5.556  12.688  1.4138  0.3065  0.9969
11466TIP3   OH255812   1.353   4.865   5.156 -0.6603  0.4637 -0.2304
11466TIP3    H155813   1.297   4.921   5.209  1.0591  0.0440  2.1794
11466TIP3    H255814   1.301   4.786   5.140 -1.3803  0.7998  0.4212
11467TIP3   OH255815   2.092   6.717   3.725 -0.2447  0.5766 -0.2260
11467TIP3    H155816   2.091   6.802   3.681 -0.9235  0.8792  0.3709
11467TIP3    H255817   2.004   6.707   3.761  0.3195  0.3767  1.1431
11468TIP3   OH255818   4.192   1.543   2.506  0.1219  0.2637 -0.3923
11468TIP3    H155819   4.273   1.499   2.532  0.3995  1.4357  0.8752
11468TIP3    H255820   4.137   1.474   2.471  0.3992 -1.1853  1.8462
11469TIP3   OH255821   2.222   6.760  12.429  0.0718 -0.8076 -0.3582
11469TIP3    H155822   2.198   6.668  12.437 -0.0538 -0.8744 -1.3427
11469TIP3    H255823   2.160   6.795  12.365 -0.0552  0.0315  0.2166
11470TIP3   OH255824   4.238   3.576   6.099  0.0351  0.2961 -0.1259
11470TIP3    H155825   4.159   3.533   6.132  0.4305 -1.3463 -1.1939
11470TIP3    H255826   4.271   3.626   6.174 -1.8117  0.7568  0.4405
11471TIP3   OH255827   2.170   1.390   1.285  0.1941 -0.3122  0.1330
11471TIP3    H155828   2.179   1.311   1.232  0.9579  1.6414 -2.9112
11471TIP3    H255829   2.107   1.445   1.237 -0.7450  0.7737  2.4252
11472TIP3   OH255830   1.800   3.741   5.312 -0.4534  0.1040  0.1939
11472TIP3    H155831   1.813   3.648   5.290 -0.1012  0.2022 -0.0184
11472TIP3    H255832   1.775   3.740   5.404 -0.3995 -0.1995  0.2078
11473TIP3   OH255833   0.754   6.665   2.058  0.1579 -0.2921 -0.3373
11473TIP3    H155834   0.760   6.688   2.151 -0.7552 -0.5159 -0.2125
11473TIP3    H255835   0.840   6.685   2.023  0.5741 -0.3819  0.6004
11474TIP3   OH255836   0.707   3.084   3.453  0.6050 -0.2032 -0.2868
11474TIP3    H155837   0.653   3.009   3.430  1.6723 -0.8871 -0.6490
11474TIP3    H255838   0.705   3.086   3.549 -0.7985  0.3547 -0.3092
11475TIP3   OH255839   5.488   4.952   4.463 -0.0895 -0.7402  0.4331
11475TIP3    H155840   5.407   4.986   4.426  0.9916  0.4742 -0.9235
11475TIP3    H255841   5.530   4.906   4.390  1.2576  0.1807  0.5984
11476TIP3   OH255842   4.701   0.951   0.224 -0.7414  0.0106 -0.0955
11476TIP3    H155843   4.746   0.882   0.273 -1.9799  0.4446  1.7905
11476TIP3    H255844   4.721   0.934   0.133  0.4854 -1.7487  0.4640
11477TIP3   OH255845   0.697   4.437  12.482  0.7598 -0.4607 -0.0658
11477TIP3    H155846   0.792   4.437  12.470  1.0010  1.4054  1.3719
11477TIP3    H255847   0.677   4.352  12.520  1.7876 -1.0331 -0.7566
11478TIP3   OH255848   0.086   1.095  13.263 -0.2544 -0.1287 -0.3227
11478TIP3    H155849   0.134   1.013  13.277  0.6661  0.5796  0.7523
11478TIP3    H255850   0.003   1.081  13.309  0.3182 -0.0817  0.7465
11479TIP3   OH255851   2.183   4.634  11.759 -0.3701  0.1989 -0.5832
11479TIP3    H155852   2.244   4.560  11.758  1.9614  2.0369 -0.4761
11479TIP3    H255853   2.105   4.600  11.715  0.9405 -2.0506 -1.3422
11480TIP3   OH255854   1.837   4.331   3.595 -0.2635  0.4739  0.0859
11480TIP3    H155855   1.823   4.410   3.543  0.9631  0.8619  0.3178
11480TIP3    H255856   1.764   4.274   3.571  0.0464  0.7815 -1.8046
11481TIP3   OH255857   4.937   3.903  11.660  0.0540 -0.4749  0.5738
11481TIP3    H155858   4.950   3.809  11.644  2.9435 -0.1743  0.7250
11481TIP3    H255859   4.949   3.913  11.755  1.7380  0.2559  0.3229
11482TIP3   OH255860   3.502   6.267  16.528 -0.3796  0.2888  0.5584
11482TIP3    H155861   3.589   6.238  16.499 -0.5439 -1.2221  1.4886
11482TIP3    H255862   3.519   6.348  16.577  0.4421  0.2641  0.3275
11483TIP3   OH255863   4.165   3.631   2.600  0.1563  0.3098  0.1236
11483TIP3    H155864   4.193   3.620   2.509 -0.1961  0.3620  0.0048
11483TIP3    H255865   4.185   3.722   2.620  1.1308  0.0392  0.4189
11484TIP3   OH255866   5.197   1.391   0.871  0.0497  0.4343  0.5405
11484TIP3    H155867   5.228   1.449   0.801 -0.3979 -0.2615 -0.2538
11484TIP3    H255868   5.193   1.447   0.948  0.2301  1.3058 -0.0623
11485TIP3   OH255869   1.047   6.233  12.651 -0.1213 -0.1332  0.2269
11485TIP3    H155870   0.977   6.233  12.716 -1.3126  0.4725 -1.0117
11485TIP3    H255871   1.011   6.282  12.577  1.5964  0.1398 -0.4732
11486TIP3   OH255872   1.784   4.578   1.812 -0.6359  0.0521  0.3636
11486TIP3    H155873   1.700   4.595   1.768 -0.6799 -0.7949  0.1096
11486TIP3    H255874   1.780   4.486   1.837  0.4391 -0.1448 -0.1365
11487TIP3   OH255875   1.287   0.770   3.541  0.3140  0.4176  0.1600
11487TIP3    H155876   1.285   0.807   3.629  1.5092 -0.5611  0.6235
11487TIP3    H255877   1.213   0.811   3.496 -2.1597 -1.2506  2.4797
11488TIP3   OH255878   2.287   1.786   3.873 -0.1991  0.5706  0.5435
11488TIP3    H155879   2.345   1.862   3.878  1.3047 -0.5530  0.7220
11488TIP3    H255880   2.221   1.802   3.941  0.0877  1.6995  0.5809
11489TIP3   OH255881   3.937   0.614   5.371 -0.2620  0.3994  0.0377
11489TIP3    H155882   3.841   0.611   5.375 -0.2601 -0.1765 -0.1808
11489TIP3    H255883   3.956   0.636   5.280 -0.1811 -0.6380 -0.2046
11490TIP3   OH255884   3.258   0.569  11.394  0.2236  0.3386 -0.1169
11490TIP3    H155885   3.174   0.546  11.435  0.1547 -0.6396 -0.7657
11490TIP3    H255886   3.307   0.487  11.394  1.3199  0.9755  0.5393
11491TIP3   OH255887   1.042   1.090  12.767 -0.5008 -0.6606 -0.6141
11491TIP3    H155888   1.084   1.172  12.742  0.4850 -0.9523  0.0615
11491TIP3    H255889   0.966   1.117  12.818  0.0145 -0.1774 -0.1011
11492TIP3   OH255890   1.509   3.491   3.668 -0.5849  0.0065 -0.5155
11492TIP3    H155891   1.476   3.509   3.580  0.4172 -1.9334 -1.3517
11492TIP3    H255892   1.557   3.570   3.692  0.2518  0.0955 -2.2987
11493TIP3   OH255893   0.188   6.578  10.561  0.7364 -0.3584 -0.3900
11493TIP3    H155894   0.202   6.660  10.609  1.1789 -1.5771  1.6772
11493TIP3    H255895   0.097   6.582  10.533  0.8194  0.9384 -0.5335
11494TIP3   OH255896   3.448   1.014  12.505 -0.1732  0.2135  0.4314
11494TIP3    H155897   3.420   1.103  12.482 -1.0536 -0.6940 -2.4795
11494TIP3    H255898   3.367   0.965  12.515  0.3218 -0.5641  0.7208
11495TIP3   OH255899   2.544   1.351  15.906  0.1168  0.4537 -0.6554
11495TIP3    H155900   2.611   1.406  15.864  2.1422 -1.8416 -0.7074
11495TIP3    H255901   2.559   1.264  15.869  0.2050 -1.1460  2.7226
11496TIP3   OH255902   1.405   2.028  17.164 -0.6614 -0.0849 -0.0216
11496TIP3    H155903   1.487   1.979  17.163 -0.4184  0.3129  0.1268
11496TIP3    H255904   1.432   2.120  17.158 -1.0714  0.0716  0.4872
11497TIP3   OH255905   0.036   3.486   3.432 -0.3322  0.5846 -0.3844
11497TIP3    H155906   0.077   3.454   3.512  0.6419  0.5857 -0.8720
11497TIP3    H255907   0.066   3.426   3.364 -0.1048  1.3334 -0.9605
11498TIP3   OH255908   4.618   5.488  12.312 -0.0876  0.0801  0.2576
11498TIP3    H155909   4.656   5.474  12.398 -0.2716 -0.8395  0.1989
11498TIP3    H255910   4.602   5.582  12.307  1.0446  0.3114  0.7533
11499TIP3   OH255911   5.445   0.948  11.580 -0.3372 -0.1622  0.6844
11499TIP3    H155912   5.393   1.019  11.543  0.9014 -0.1067 -1.0569
11499TIP3    H255913   5.496   0.989  11.650  0.0796  0.6025 -0.0542
11500TIP3   OH255914   6.150   3.842  13.934  0.8825 -0.5210  0.3871
11500TIP3    H155915   6.067   3.834  13.981 -0.0121  1.7391 -0.7110
11500TIP3    H255916   6.198   3.910  13.982  1.3421 -0.5271 -0.0576
11501TIP3   OH255917   5.261   3.372   5.961  0.9406 -0.2045 -0.1455
11501TIP3    H155918   5.229   3.353   5.873 -1.4940 -2.6685  1.1197
11501TIP3    H255919   5.284   3.287   5.997 -1.6575  0.1607  2.8042
11502TIP3   OH255920   0.648   0.928   6.581  0.5291 -0.3868  0.3542
11502TIP3    H155921   0.652   0.891   6.669 -0.4484 -1.4475 -0.0179
11502TIP3    H255922   0.730   0.976   6.570  0.2127  0.6439  2.2172
11503TIP3   OH255923   1.361   5.727  15.327 -0.1345  0.4806 -0.1285
11503TIP3    H155924   1.338   5.816  15.304  0.5393  0.9686  1.0021
11503TIP3    H255925   1.355   5.724  15.422 -0.3106 -0.7287 -0.1629
11504TIP3   OH255926   4.994   1.548  16.690  0.3576 -0.1958  0.7162
11504TIP3    H155927   5.053   1.536  16.764  0.3018 -1.2704  0.5963
11504TIP3    H255928   5.041   1.513  16.615  0.2715  0.5694  0.2881
11505TIP3   OH255929   2.995   6.298   3.498 -0.1684 -0.3370  0.2800
11505TIP3    H155930   3.043   6.334   3.423  2.3750 -0.5865  1.6683
11505TIP3    H255931   2.965   6.212   3.469  2.1467 -1.1095 -0.0587
11506TIP3   OH255932   4.961   3.745   1.033  0.3423  0.7793  0.4654
11506TIP3    H155933   5.038   3.730   1.087 -0.5946  0.4621  1.7658
11506TIP3    H255934   4.918   3.660   1.027  0.3250  0.8468 -0.6509
11507TIP3   OH255935   2.122   6.711   0.180  0.0908 -0.2899  0.2077
11507TIP3    H155936   2.078   6.717   0.265  0.3236  1.4208  0.2277
11507TIP3    H255937   2.073   6.769   0.123  0.9570 -0.0990 -0.3692
11508TIP3   OH255938   1.378   0.550   3.864 -0.8107 -0.4652  0.4420
11508TIP3    H155939   1.429   0.530   3.943 -1.1354 -0.5129  0.6442
11508TIP3    H255940   1.392   0.643   3.849 -1.0771 -0.3607  0.8045
11509TIP3   OH255941   1.244   2.907  15.867  1.1947 -0.2367 -0.1488
11509TIP3    H155942   1.200   2.835  15.912  2.7920 -0.6570  0.8278
11509TIP3    H255943   1.301   2.945  15.934  1.3799  1.0989 -1.0175
11510TIP3   OH255944   2.488   1.079   1.216 -0.5389 -0.5028  0.1745
11510TIP3    H155945   2.484   1.011   1.283 -1.8256  0.0761  0.7103
11510TIP3    H255946   2.574   1.067   1.176 -0.1716 -1.5386  1.2020
11511TIP3   OH255947   1.950   3.236  13.406  0.4049 -0.7422  0.6640
11511TIP3    H155948   1.923   3.156  13.452  0.8818 -1.3859 -0.1470
11511TIP3    H255949   1.869   3.276  13.377  0.1823 -1.2056  0.6412
11512TIP3   OH255950   1.396   6.072  13.910 -0.4566 -0.2526 -0.0560
11512TIP3    H155951   1.400   6.107  13.821  2.0080 -0.8519 -0.2667
11512TIP3    H255952   1.386   6.149  13.965 -1.2455  0.2018 -0.8091
11513TIP3   OH255953   3.212   3.721   6.085  0.7045  0.2893 -0.2788
11513TIP3    H155954   3.207   3.627   6.101 -0.7660  0.7545  2.7483
11513TIP3    H255955   3.304   3.743   6.100  1.1751 -0.7045 -1.5749
11514TIP3   OH255956   2.411   3.165  11.279  0.2294  0.0096 -0.1787
11514TIP3    H155957   2.416   3.128  11.191 -1.4695  0.1775 -0.3800
11514TIP3    H255958   2.397   3.259  11.265 -0.3041 -0.0010  0.2575
11515TIP3   OH255959   6.220   1.773   6.568 -0.7486 -0.1413  0.3168
11515TIP3    H155960   6.303   1.740   6.535 -1.3101 -1.2641 -0.0141
11515TIP3    H255961   6.244   1.844   6.627  0.4035  0.1049 -0.4150
11516TIP3   OH255962   5.414   4.151  14.919  0.2031 -1.2913  0.1211
11516TIP3    H155963   5.319   4.138  14.923  0.0065 -0.3590 -0.8762
11516TIP3    H255964   5.438   4.125  14.830  0.9067 -1.6471  0.4121
11517TIP3   OH255965   2.557   1.091  15.822  0.2804 -0.1674 -0.6336
11517TIP3    H155966   2.500   1.017  15.799 -2.0792  1.3511 -0.0131
11517TIP3    H255967   2.596   1.065  15.906 -0.7950 -0.6168 -0.2432
11518TIP3   OH255968   3.282   3.220  16.029 -0.8727 -0.1467  0.4092
11518TIP3    H155969   3.246   3.283  16.091 -1.7111  0.0107 -0.2183
11518TIP3    H255970   3.333   3.273  15.967 -0.3928 -0.2532  0.7114
11519TIP3   OH255971   0.558   2.430   3.197  0.0213  0.0842  0.3104
11519TIP3    H155972   0.516   2.490   3.259 -0.7112  1.5728 -1.5059
11519TIP3    H255973   0.490   2.366   3.175 -0.7611  1.3315 -1.1363
11520TIP3   OH255974   0.954   3.678   0.868  0.2345 -0.5213 -0.3588
11520TIP3    H155975   0.954   3.626   0.948 -4.0265 -0.9895 -0.4385
11520TIP3    H255976   0.912   3.761   0.893  2.1160  0.8420 -1.4097
11521TIP3   OH255977   0.574   5.362  16.119  0.0120 -0.0568 -0.1767
11521TIP3    H155978   0.496   5.418  16.129 -0.2792 -0.8034  2.5552
11521TIP3    H255979   0.540   5.281  16.082 -0.4405 -0.1942  0.5183
11522TIP3   OH255980   3.384   1.784  12.935  0.4460  0.4070 -0.1181
11522TIP3    H155981   3.364   1.706  12.885 -0.9324  0.5862  0.1089
11522TIP3    H255982   3.350   1.766  13.023 -0.0210  1.3060 -0.1027
11523TIP3   OH255983   0.360   4.872   0.362  0.5040 -0.1776 -0.1181
11523TIP3    H155984   0.364   4.943   0.297  0.5681 -1.1471 -1.2124
11523TIP3    H255985   0.442   4.878   0.410  0.2578  0.8460  0.1914
11524TIP3   OH255986   2.041   2.896   4.375  0.1524 -0.8310 -0.0220
11524TIP3    H155987   2.132   2.918   4.394  0.3240 -2.4501  1.2248
11524TIP3    H255988   2.044   2.806   4.343 -0.9254 -0.5840 -0.8762
11525TIP3   OH255989   1.794   3.546   2.254  0.4265  0.0683 -0.0931
11525TIP3    H155990   1.743   3.481   2.301  0.9056  0.3040  0.7646
11525TIP3    H255991   1.730   3.591   2.199 -0.0756 -0.4513  0.0601
11526TIP3   OH255992   3.580   5.894   5.454  0.4678  0.2479  0.8299
11526TIP3    H155993   3.642   5.917   5.523 -0.3544  1.6638  1.1430
11526TIP3    H255994   3.563   5.977   5.409 -1.1975 -0.1012  0.7578
11527TIP3   OH255995   1.638   2.573  15.119  0.3709 -0.1494 -1.2155
11527TIP3    H155996   1.606   2.653  15.159 -1.1335 -0.4675 -1.7398
11527TIP3    H255997   1.734   2.581  15.124  0.2592  0.4187  1.1881
11528TIP3   OH255998   0.686   0.405   2.070  0.4016 -0.5171 -0.1726
11528TIP3    H155999   0.657   0.315   2.054 -0.0826 -0.3476 -0.2523
11528TIP3    H256000   0.734   0.429   1.990 -1.7395  0.2152 -1.3382
11529TIP3   OH256001   2.892   4.474  10.801 -0.2583  0.5061  0.2599
11529TIP3    H156002   2.814   4.497  10.751 -0.6486 -0.8585  0.2005
11529TIP3    H256003   2.859   4.448  10.887 -0.0826 -1.5668 -0.2345
11530TIP3   OH256004   3.366   1.527  13.919  0.0946  0.8946 -0.3108
11530TIP3    H156005   3.415   1.444  13.915  0.5693  1.1250  0.5401
11530TIP3    H256006   3.310   1.525  13.842  0.4277 -0.0212 -0.5429
11531TIP3   OH256007   1.099   0.591  10.943  0.4347  0.5757  0.6361
11531TIP3    H156008   1.037   0.654  10.980  0.3393 -0.3270  2.0995
11531TIP3    H256009   1.166   0.645  10.901 -0.4622  1.6083  0.4830
11532TIP3   OH256010   2.932   6.640   4.839  0.1773 -0.5660 -0.3022
11532TIP3    H156011   2.905   6.639   4.747 -2.0038  1.7971  0.1729
11532TIP3    H256012   2.929   6.549   4.866  0.1302 -1.2298 -2.3769
11533TIP3   OH256013   5.538   6.074   1.271  0.5279 -0.6039 -0.8622
11533TIP3    H156014   5.487   6.150   1.300 -2.5278 -2.5900 -0.5408
11533TIP3    H256015   5.618   6.077   1.324 -0.8240  0.8125  1.2396
11534TIP3   OH256016   1.627   0.088   5.657 -0.7969 -0.7845  0.0531
11534TIP3    H156017   1.562   0.100   5.725 -0.9739 -1.8563  0.0912
11534TIP3    H256018   1.706   0.130   5.692 -0.9802 -1.0197  0.7615
11535TIP3   OH256019   0.036   2.701  12.213 -0.0244  0.3260 -0.3998
11535TIP3    H156020  -0.007   2.616  12.202  1.9251 -1.0659  1.8433
11535TIP3    H256021  -0.027   2.755  12.260 -0.4289 -0.6532  0.1940
11536TIP3   OH256022   3.977   5.859   4.276  0.5399  0.2204  0.2453
11536TIP3    H156023   3.900   5.917   4.279  0.1868 -0.2257 -0.0369
11536TIP3    H256024   4.022   5.884   4.195 -1.3934 -2.0780 -1.7205
11537TIP3   OH256025   5.347   6.158  14.735 -0.3253  0.1518  0.4361
11537TIP3    H156026   5.418   6.093  14.739 -0.8753 -0.5045 -0.2397
11537TIP3    H256027   5.388   6.236  14.698 -0.0245 -0.3245 -0.2559
11538TIP3   OH256028   1.702   1.223   0.908  0.4246  0.5597 -0.4629
11538TIP3    H156029   1.793   1.235   0.937  1.6092 -2.7907 -2.2643
11538TIP3    H256030   1.659   1.180   0.982  0.9721  0.0221 -0.4524
11539TIP3   OH256031   3.112   4.525   1.738 -0.6087  0.7194  0.1994
11539TIP3    H156032   3.167   4.592   1.698  0.3588  0.2509  0.7001
11539TIP3    H256033   3.059   4.492   1.666  0.4163  0.5629 -0.5101
11540TIP3   OH256034   3.574   5.983  13.571  0.4238  0.1053 -0.2161
11540TIP3    H156035   3.651   5.956  13.521 -0.0641  1.4667 -1.7635
11540TIP3    H256036   3.597   5.962  13.662  2.3348 -0.1835 -0.7119
11541TIP3   OH256037   1.694   0.849  16.764  0.3482 -0.6440  0.0533
11541TIP3    H156038   1.719   0.791  16.692 -0.2913 -1.7292  0.6797
11541TIP3    H256039   1.640   0.917  16.723  1.2189 -0.3981 -0.7090
11542TIP3   OH256040   5.661   3.131  11.048 -0.2202  0.3894  0.3049
11542TIP3    H156041   5.608   3.062  11.088 -1.6309  1.7419  0.8831
11542TIP3    H256042   5.619   3.213  11.076  1.7667  1.5174  0.1675
11543TIP3   OH256043   1.911   4.812   2.379  0.2882  0.0415  0.5454
11543TIP3    H156044   1.977   4.799   2.447 -0.8987 -0.0414  1.7386
11543TIP3    H256045   1.828   4.792   2.422 -0.7085  1.9839 -0.3244
11544TIP3   OH256046   1.189   5.794  11.596 -0.3084  0.2182  0.4239
11544TIP3    H156047   1.195   5.755  11.510 -0.4478 -0.6981  0.8172
11544TIP3    H256048   1.104   5.839  11.596 -0.0095  0.8022 -0.1332
11545TIP3   OH256049   1.634   2.827  15.337  0.3432  0.1501  0.3376
11545TIP3    H156050   1.540   2.831  15.356  0.2905 -1.4952  0.5454
11545TIP3    H256051   1.654   2.913  15.299 -1.6200 -0.0466 -1.3572
11546TIP3   OH256052   4.179   4.403  14.170 -0.6400 -0.2700  0.1033
11546TIP3    H156053   4.092   4.382  14.206 -0.6696  0.4444  0.4604
11546TIP3    H256054   4.203   4.325  14.120 -1.0381 -0.8940  0.8474
11547TIP3   OH256055   3.981   4.870   2.618  0.0893  0.5185 -0.6951
11547TIP3    H156056   3.929   4.814   2.675  0.8035  0.3498 -0.1812
11547TIP3    H256057   4.071   4.841   2.632  0.4070  1.3600 -0.9102
11548TIP3   OH256058   3.846   3.601  15.467  0.0620  0.2773 -0.6360
11548TIP3    H156059   3.831   3.627  15.376 -2.2454 -0.3394 -0.5074
11548TIP3    H256060   3.826   3.678  15.519  1.2492  0.5897 -0.6126
11549TIP3   OH256061   6.298   4.086   1.919  0.4626  0.0913 -0.8315
11549TIP3    H156062   6.304   4.160   1.859  0.1213  1.5890  0.8892
11549TIP3    H256063   6.364   4.104   1.986 -0.8081 -0.2430  0.5576
11550TIP3   OH256064   3.982   0.755   3.448 -0.1559 -0.4135 -0.3563
11550TIP3    H156065   4.001   0.824   3.386 -1.0319  1.3605  1.2314
11550TIP3    H256066   4.051   0.761   3.514 -0.5349 -0.6816  0.0816
11551TIP3   OH256067   5.979   1.775  15.146  0.4525  0.2212 -0.2283
11551TIP3    H156068   6.014   1.719  15.215 -1.0375  0.0856  0.4623
11551TIP3    H256069   5.945   1.852  15.192 -0.9087 -0.0461 -0.7480
11552TIP3   OH256070   1.696   6.165  14.733 -0.4427 -0.3624  0.4611
11552TIP3    H156071   1.667   6.084  14.689 -0.6976  0.3551 -0.7328
11552TIP3    H256072   1.718   6.224  14.661 -0.6825  0.7914  1.3146
11553TIP3   OH256073   4.306   1.224   5.341  0.0071 -0.3501 -1.0911
11553TIP3    H156074   4.370   1.218   5.269 -0.9237 -1.1399 -1.8889
11553TIP3    H256075   4.355   1.197   5.419  1.3298  1.5355 -1.1978
11554TIP3   OH256076   6.241   1.764  14.725  0.4113 -0.2269  0.7843
11554TIP3    H156077   6.290   1.812  14.659 -2.0078  2.4996  0.7569
11554TIP3    H256078   6.188   1.701  14.676  1.2513 -0.7451  0.5186
11555TIP3   OH256079   5.625   1.045   2.070 -0.0399 -0.1479  0.2370
11555TIP3    H156080   5.558   1.110   2.048  0.8750  0.4387 -0.9213
11555TIP3    H256081   5.679   1.087   2.136  0.4714  0.2468 -0.4155
11556TIP3   OH256082   6.392   6.471   0.902 -0.5529  0.0175  0.3649
11556TIP3    H156083   6.311   6.423   0.887 -0.8553  1.0405 -1.7676
11556TIP3    H256084   6.439   6.465   0.818  0.7487  0.9319  0.9857
11557TIP3   OH256085   0.029   3.102   0.910 -0.5795  0.1574  0.5579
11557TIP3    H156086   0.087   3.085   0.835 -0.8893 -0.7192  0.5041
11557TIP3    H256087   0.034   3.022   0.962 -0.4761  0.7056  1.4128
11558TIP3   OH256088   5.669   3.109   5.207 -0.3573 -1.0007 -0.2055
11558TIP3    H156089   5.577   3.083   5.214 -0.2280 -1.3595  0.1445
11558TIP3    H256090   5.670   3.201   5.231 -0.4996 -1.2185  0.6557
11559TIP3   OH256091   5.398   0.925   3.528 -0.7068  0.3236  0.6723
11559TIP3    H156092   5.472   0.986   3.518 -2.0983  1.7968 -1.4695
11559TIP3    H256093   5.324   0.971   3.489 -1.6895 -3.0742 -1.9289
11560TIP3   OH256094   5.577   0.619   5.121  0.2291 -0.0161 -0.0369
11560TIP3    H156095   5.632   0.583   5.191 -0.4459 -1.3784 -0.1757
11560TIP3    H256096   5.505   0.661   5.168  0.2064 -0.2073  0.1036
11561TIP3   OH256097   5.833   0.200  15.154  0.1840 -0.7003  0.1013
11561TIP3    H156098   5.893   0.203  15.228  0.6597 -0.4123 -0.2904
11561TIP3    H256099   5.747   0.217  15.192  0.6635  1.5637  0.3288
11562TIP3   OH256100   0.800   4.989  16.706 -0.0022  0.5315  0.7365
11562TIP3    H156101   0.813   5.056  16.639  1.3466  0.5116  0.9384
11562TIP3    H256102   0.855   5.017  16.779  0.9104 -0.9682  0.6844
11563TIP3   OH256103   0.365   3.252  16.898 -0.4656 -0.0602 -0.5873
11563TIP3    H156104   0.323   3.320  16.950  1.8283  1.7502 -0.9395
11563TIP3    H256105   0.428   3.211  16.958 -1.2579 -1.3809 -0.6129
11564TIP3   OH256106   4.815   3.294   2.322  0.0738  0.2195 -0.0305
11564TIP3    H156107   4.818   3.284   2.227  0.7478 -0.1168  0.0205
11564TIP3    H256108   4.875   3.366   2.341 -0.0113  0.2451  0.1473
11565TIP3   OH256109   5.444   0.522   4.133  0.3572  0.3399  0.1035
11565TIP3    H156110   5.368   0.571   4.165 -0.0788 -0.2477 -0.0121
11565TIP3    H256111   5.512   0.588   4.120 -0.2860  0.9376 -0.2578
11566TIP3   OH256112   2.670   4.402  15.058 -0.2336  0.1752  0.2090
11566TIP3    H156113   2.668   4.496  15.080  1.1189 -0.1426  1.9639
11566TIP3    H256114   2.677   4.400  14.963 -0.1432  1.8729  0.1429
11567TIP3   OH256115   4.243   6.290   1.375  0.0639 -0.1546  0.0779
11567TIP3    H156116   4.335   6.286   1.402 -0.3435  1.1241  1.8311
11567TIP3    H256117   4.194   6.295   1.457 -1.4489  1.2389 -0.8444
11568TIP3   OH256118   2.481   1.329  16.375  0.8682  0.2788  0.3863
11568TIP3    H156119   2.475   1.353  16.282  0.3871  0.0659  0.3581
11568TIP3    H256120   2.499   1.234  16.374  1.5204  0.3935  0.5066
11569TIP3   OH256121   3.569   4.474   4.638  0.1130  0.4707  0.2438
11569TIP3    H156122   3.658   4.503   4.655  0.6229 -0.6790 -0.3674
11569TIP3    H256123   3.525   4.481   4.723  1.2151 -0.4371  0.9061
11570TIP3   OH256124   5.731   0.984  15.048  0.6620  0.4490  0.0678
11570TIP3    H156125   5.823   1.007  15.064  0.8425 -0.4127  0.3168
11570TIP3    H256126   5.725   0.971  14.953  0.7579  0.6559  0.0332
11571TIP3   OH256127   1.806   2.167  14.103 -1.0162 -0.6559  0.5081
11571TIP3    H156128   1.779   2.096  14.044  0.3337 -1.1117  0.4045
11571TIP3    H256129   1.872   2.127  14.159  1.2996  0.9606 -0.8770
11572TIP3   OH256130   5.346   3.257  15.659  1.0424 -0.2356  0.7349
11572TIP3    H156131   5.421   3.206  15.632  1.7617  0.8883  0.5303
11572TIP3    H256132   5.341   3.328  15.595 -1.0591 -1.0559 -0.1097
11573TIP3   OH256133   0.911   3.762  15.891  0.2781 -0.4558 -0.5104
11573TIP3    H156134   0.971   3.691  15.913 -0.8088 -1.7741 -1.6059
11573TIP3    H256135   0.968   3.836  15.871  1.4080 -0.4367  2.2961
11574TIP3   OH256136   0.489   2.128  17.097 -0.3241 -0.2905 -0.1013
11574TIP3    H156137   0.484   2.069  17.022 -1.4172  0.8528 -0.9544
11574TIP3    H256138   0.582   2.146  17.107 -0.2196  0.2221 -1.7384
11575TIP3   OH256139   1.022   5.315  14.365 -0.0652  0.1730 -0.3769
11575TIP3    H156140   1.073   5.327  14.445 -0.1744  0.8533 -0.4052
11575TIP3    H256141   0.931   5.320  14.394 -0.1067  0.0860 -0.4942
11576TIP3   OH256142   0.022   0.528   1.722  0.5098 -0.7424 -0.7928
11576TIP3    H156143   0.024   0.574   1.806  0.4698 -0.2766 -1.0420
11576TIP3    H256144   0.088   0.460   1.730  1.5682  0.2372 -0.9046
11577TIP3   OH256145   0.922   2.369  14.743 -0.2613 -0.7305 -0.0402
11577TIP3    H156146   1.004   2.418  14.740 -0.8651  0.2305 -1.4914
11577TIP3    H256147   0.920   2.321  14.661 -0.4147 -2.0403  0.6940
11578TIP3   OH256148   3.217   1.773  16.496 -0.4734  0.1636 -0.3483
11578TIP3    H156149   3.262   1.849  16.531  0.0859 -0.9098  1.3672
11578TIP3    H256150   3.230   1.779  16.401  0.6188  1.5212 -0.1385
11579TIP3   OH256151   4.172   5.132  15.611 -0.0534 -0.3202 -0.3816
11579TIP3    H156152   4.143   5.197  15.548 -1.7153 -1.5004 -0.9134
11579TIP3    H256153   4.159   5.174  15.696  0.7022  0.7000 -0.7486
11580TIP3   OH256154   1.923   6.022  13.466  0.5006  0.1092 -0.2036
11580TIP3    H156155   1.864   5.956  13.501  0.6632  0.2484  0.3432
11580TIP3    H256156   1.972   5.977  13.397  2.0956 -0.9685  1.5430
11581TIP3   OH256157   1.852   4.862  17.209  0.2575 -0.0206 -0.2985
11581TIP3    H156158   1.795   4.787  17.221  0.9449 -0.5030 -0.0101
11581TIP3    H256159   1.810   4.933  17.258 -1.0865  0.1670 -1.6354
11582TIP3   OH256160   5.854   6.041  11.583  0.2841 -0.0086 -0.0927
11582TIP3    H156161   5.904   5.971  11.541  0.2668 -0.2512  0.2850
11582TIP3    H256162   5.914   6.116  11.584  1.1309 -0.6676  1.5404
11583TIP3   OH256163   0.072   4.642   3.427  0.1793 -0.2076 -0.0202
11583TIP3    H156164   0.164   4.623   3.407  0.7262  1.5172  0.6540
11583TIP3    H256165   0.064   4.736   3.411 -1.9850 -0.6310 -1.9194
11584TIP3   OH256166   6.214   2.586  16.385 -0.8377 -0.0368  0.3784
11584TIP3    H156167   6.196   2.680  16.378 -0.6283 -0.0615 -0.6732
11584TIP3    H256168   6.288   2.572  16.325 -0.7534 -0.8408  0.6627
11585TIP3   OH256169   3.469   0.704  14.777  0.3192 -0.1244  0.2667
11585TIP3    H156170   3.430   0.791  14.780 -0.2574 -0.4115  1.3326
11585TIP3    H256171   3.550   0.711  14.828  1.3296  0.2649 -1.2866
11586TIP3   OH256172   4.119   0.052   5.564 -0.0764 -0.5380 -0.2839
11586TIP3    H156173   4.159   0.025   5.481  0.2253 -1.8308  0.2594
11586TIP3    H256174   4.193   0.079   5.619 -0.0399 -1.6309  0.2454
11587TIP3   OH256175   2.095   5.703  12.381  0.5502  0.1624 -0.3746
11587TIP3    H156176   2.145   5.785  12.379  0.2451  0.3698  0.3399
11587TIP3    H256177   2.100   5.673  12.471 -2.9391  1.6735  0.5013
11588TIP3   OH256178   4.534   5.602  13.516  0.5735  0.3652  0.2703
11588TIP3    H156179   4.497   5.690  13.513  1.0567  0.8872  4.0257
11588TIP3    H256180   4.591   5.603  13.593 -0.3058 -3.5214  1.2187
11589TIP3   OH256181   4.014   2.261  16.725  0.6637 -0.4371  0.8552
11589TIP3    H156182   3.979   2.333  16.672  0.0964 -1.7747 -0.6951
11589TIP3    H256183   4.101   2.245  16.689  0.7462 -0.5778  1.1205
11590TIP3   OH256184   5.434   3.099   2.043  0.1321 -0.4194  0.5104
11590TIP3    H156185   5.406   3.168   2.103  1.1471  0.3562  0.1220
11590TIP3    H256186   5.376   3.025   2.061 -1.2680  0.6856  0.6217
11591TIP3   OH256187   5.358   1.125  10.227 -1.0047  0.0852 -0.0761
11591TIP3    H156188   5.407   1.054  10.185 -1.2289 -0.6498  0.8799
11591TIP3    H256189   5.376   1.114  10.320 -1.1319  1.2253  0.0900
11592TIP3   OH256190   0.774   1.217   5.899  0.2055  0.4004  0.2157
11592TIP3    H156191   0.831   1.151   5.861 -0.6783 -0.7639  0.8480
11592TIP3    H256192   0.830   1.267   5.958  0.9576  0.4224 -0.5132
11593TIP3   OH256193   6.600   0.812  12.579  0.0604  0.0175  0.0206
11593TIP3    H156194   6.629   0.858  12.658 -1.2765  3.7755 -1.4242
11593TIP3    H256195   6.527   0.864  12.547 -0.5994 -2.3609 -2.7754
11594TIP3   OH256196   0.753   2.974   2.502  0.0917  0.0433  0.4347
11594TIP3    H156197   0.818   2.951   2.435 -0.7167 -0.2984 -0.2407
11594TIP3    H256198   0.681   3.014   2.453 -0.2773  0.2781  1.1600
11595TIP3   OH256199   5.208   5.210   1.401 -0.2001 -0.1102  0.6038
11595TIP3    H156200   5.137   5.272   1.383  0.7932  0.3150 -2.4878
11595TIP3    H256201   5.271   5.225   1.330  0.4448 -4.1595  0.0886
11596TIP3   OH256202   5.359   6.427  12.363 -0.2742  0.1789  0.0373
11596TIP3    H156203   5.343   6.354  12.422 -0.5010  0.4307  0.2893
11596TIP3    H256204   5.353   6.389  12.275  1.2510 -0.4518  0.1741
11597TIP3   OH256205   1.489   1.982  16.239 -0.0076 -0.1817 -0.1380
11597TIP3    H156206   1.421   1.995  16.306 -0.5763 -1.1058 -0.5118
11597TIP3    H256207   1.458   2.030  16.163  0.5492  0.7148  0.1842
11598TIP3   OH256208   5.268   6.751   6.696  0.3355  0.1470  0.0210
11598TIP3    H156209   5.286   6.842   6.721  0.1419  0.1499  0.1521
11598TIP3    H256210   5.278   6.750   6.601  0.2997  0.3147  0.0142
11599TIP3   OH256211   1.786   0.643  10.421 -0.3129 -0.4102  0.2683
11599TIP3    H156212   1.695   0.611  10.427 -0.4616  0.0958  0.8986
11599TIP3    H256213   1.816   0.643  10.512 -0.4944  1.7055  0.3767
11600TIP3   OH256214   0.670   1.794  15.282  0.0318  0.0112  0.2755
11600TIP3    H156215   0.652   1.754  15.197  0.1245 -1.7965  1.0643
11600TIP3    H256216   0.601   1.859  15.294 -1.3851 -1.3583 -0.1636
11601TIP3   OH256217   6.208   5.221   4.546 -0.5268  0.5327  0.0698
11601TIP3    H156218   6.277   5.273   4.505  1.1290 -1.0933  0.6536
11601TIP3    H256219   6.143   5.286   4.574  0.5327  2.0903 -0.8848
11602TIP3   OH256220   3.617   5.031   3.077  0.3790  0.1086  0.5947
11602TIP3    H156221   3.606   5.001   2.986  2.0185 -0.1089  0.4452
11602TIP3    H256222   3.532   5.015   3.118  0.1972 -1.6155 -0.3785
11603TIP3   OH256223   0.266   6.032   4.590 -0.2756 -0.6958  0.4905
11603TIP3    H156224   0.219   6.100   4.638 -2.3436 -1.4732 -0.3356
11603TIP3    H256225   0.357   6.041   4.619 -0.8402  1.1034  1.8864
11604TIP3   OH256226   6.169   5.868  10.789  0.1110  0.5665  0.2159
11604TIP3    H156227   6.074   5.863  10.794  0.0043  1.0547 -1.0587
11604TIP3    H256228   6.200   5.790  10.835 -0.8981  0.3656  0.5691
11605TIP3   OH256229   3.818   5.524  12.801  0.2504 -0.3514  0.2365
11605TIP3    H156230   3.847   5.434  12.813  0.0449 -0.5753 -0.8825
11605TIP3    H256231   3.891   5.567  12.757 -0.2261 -0.3483 -0.5602
11606TIP3   OH256232   3.173   4.756  14.774  0.3963  0.3245  0.3488
11606TIP3    H156233   3.237   4.810  14.820 -1.1894  2.9206 -0.2647
11606TIP3    H256234   3.089   4.784  14.810 -0.5466 -1.2055 -0.5902
11607TIP3   OH256235   0.033   4.843   2.405 -0.6262 -0.2501 -0.3256
11607TIP3    H156236  -0.021   4.773   2.441 -0.7030 -0.1108 -0.1672
11607TIP3    H256237  -0.015   4.873   2.327 -0.3154 -0.7483 -0.7182
11608TIP3   OH256238   1.272   0.126  16.672 -0.2872 -0.7205  0.0754
11608TIP3    H156239   1.278   0.216  16.640 -1.0823 -0.0135  1.8259
11608TIP3    H256240   1.358   0.088  16.653  0.9089  1.1571  1.4470
11609TIP3   OH256241   0.317   6.666  17.045 -0.1937  0.3325  0.0905
11609TIP3    H156242   0.394   6.674  16.988 -0.5339  3.3351 -0.0976
11609TIP3    H256243   0.250   6.719  17.002 -1.4040  0.2566  1.8007
11610TIP3   OH256244   2.054   3.561  13.559 -0.5669  0.1862 -0.3235
11610TIP3    H156245   2.109   3.499  13.511 -1.6892  0.2987 -1.8222
11610TIP3    H256246   1.987   3.506  13.601 -0.7114  0.2493 -0.4695
11611TIP3   OH256247   2.444   1.347   3.783 -0.2537  0.1532  0.0442
11611TIP3    H156248   2.443   1.439   3.756  0.9824 -0.3192 -1.8835
11611TIP3    H256249   2.513   1.308   3.728  0.1988 -1.6391  1.7986
11612TIP3   OH256250   0.310   4.036   0.265  0.1035 -0.3131 -0.5540
11612TIP3    H156251   0.360   4.028   0.347 -0.8762 -0.4532  0.0454
11612TIP3    H256252   0.335   4.121   0.230 -1.1636  0.8098  1.0864
11613TIP3   OH256253   1.643   4.394  15.411  0.0852 -0.3789 -0.2894
11613TIP3    H156254   1.558   4.358  15.386 -0.0765  0.3469 -0.8085
11613TIP3    H256255   1.703   4.362  15.343  0.4804 -1.8261  0.6779
11614TIP3   OH256256   0.267   6.415  11.821 -0.0090 -0.1839  0.8844
11614TIP3    H156257   0.186   6.451  11.856  0.0921 -0.4787  1.4391
11614TIP3    H256258   0.247   6.322  11.806 -0.0909 -0.0317  0.0253
11615TIP3   OH256259   6.357   5.862  17.077 -0.0123 -0.0649 -0.4198
11615TIP3    H156260   6.336   5.866  16.984  0.4358 -0.3798 -0.5385
11615TIP3    H256261   6.450   5.886  17.082  0.2123 -0.9447 -0.1610
11616TIP3   OH256262   0.799   2.990   5.744  0.4511  0.2343  0.3912
11616TIP3    H156263   0.751   2.950   5.816  0.7918 -0.0580  0.4595
11616TIP3    H256264   0.878   2.937   5.735 -0.2737 -0.6384 -1.1648
11617TIP3   OH256265   0.435   3.993   0.506 -0.1530 -0.5982 -0.2464
11617TIP3    H156266   0.526   3.981   0.479  0.0452 -2.0767  0.9312
11617TIP3    H256267   0.440   4.012   0.599 -1.0623 -0.9042 -0.1257
11618TIP3   OH256268   1.177   2.584  11.026 -0.1002 -0.2448 -0.4240
11618TIP3    H156269   1.123   2.592  10.947 -1.5828  1.8311  0.6783
11618TIP3    H256270   1.149   2.501  11.066 -0.4509 -0.5510 -1.2835
11619TIP3   OH256271   5.844   3.314   3.514 -0.4946 -0.6330  0.1376
11619TIP3    H156272   5.752   3.295   3.531 -0.6606  0.3535  0.3674
11619TIP3    H256273   5.852   3.311   3.419 -0.9114 -0.0650  0.0837
11620TIP3   OH256274   3.588   5.977   5.063  0.5673 -0.6334 -0.3314
11620TIP3    H156275   3.591   5.937   4.977  0.0214 -3.2406  0.7540
11620TIP3    H256276   3.679   5.975   5.094  0.3635 -2.4136  0.2445
11621TIP3   OH256277   4.735   0.071   4.359  0.4113 -0.2414 -0.9314
11621TIP3    H156278   4.674   0.072   4.285  0.4775  0.6559 -0.9941
11621TIP3    H256279   4.710  -0.005   4.411  2.3701 -2.8484 -3.4872
11622TIP3   OH256280   3.348   2.537   0.844 -0.3273 -0.2887 -0.1970
11622TIP3    H156281   3.381   2.472   0.906 -0.6835 -1.3955 -1.1345
11622TIP3    H256282   3.253   2.532   0.853 -0.3337  1.5746  1.1742
11623TIP3   OH256283   4.013   6.155  14.770  0.5294 -0.3870  0.1145
11623TIP3    H156284   3.927   6.124  14.796  0.3040  0.0951 -0.0384
11623TIP3    H256285   4.005   6.251  14.770  0.5756 -0.3597 -1.5139
11624TIP3   OH256286   5.532   5.264  10.637  0.0052 -0.1125  0.8581
11624TIP3    H156287   5.570   5.200  10.577 -0.0787 -0.4611  1.1732
11624TIP3    H256288   5.563   5.237  10.724 -1.0699 -0.4892  1.1373
11625TIP3   OH256289   6.466   2.737   3.920  0.0918  0.2496  1.0788
11625TIP3    H156290   6.448   2.727   3.826  0.8076  1.9454  0.7344
11625TIP3    H256291   6.422   2.662   3.960 -1.2252  0.1179 -0.4903
11626TIP3   OH256292   6.357   6.767  12.265 -0.1871  0.3295 -0.2025
11626TIP3    H156293   6.449   6.744  12.252 -0.3247 -0.7257  0.5226
11626TIP3    H256294   6.348   6.776  12.360 -1.0805 -0.8188 -0.1535
11627TIP3   OH256295   4.998   0.162   2.950  0.2571 -0.3812 -0.4828
11627TIP3    H156296   4.959   0.250   2.948 -0.7615 -0.8198 -1.5112
11627TIP3    H256297   5.084   0.174   2.911  0.7980  0.4304  0.8794
11628TIP3   OH256298   3.193   0.870  10.359 -0.6073 -0.1752 -0.3971
11628TIP3    H156299   3.188   0.790  10.411  0.1379 -2.0582 -2.9843
11628TIP3    H256300   3.260   0.923  10.402 -1.2749 -0.7887  1.5074
11629TIP3   OH256301   6.413   0.536   1.591 -0.1941  0.2404  0.0146
11629TIP3    H156302   6.465   0.563   1.515  0.6717  0.4908  0.6796
11629TIP3    H256303   6.333   0.500   1.553  0.7055 -0.7078 -1.0830
11630TIP3   OH256304   1.225   6.569   3.126 -0.1186  0.4222 -0.5899
11630TIP3    H156305   1.131   6.582   3.113 -0.0287  2.5362  0.5851
11630TIP3    H256306   1.260   6.657   3.138  1.9598 -0.3729 -0.5281
11631TIP3   OH256307   0.939   0.405   2.591  0.2505  0.0898  0.0074
11631TIP3    H156308   1.007   0.434   2.653  0.3818  2.3432 -1.0954
11631TIP3    H256309   0.858   0.407   2.642  0.6741 -0.3561  0.7155
11632TIP3   OH256310   4.569   3.463  15.398 -0.2832  0.1574  0.3655
11632TIP3    H156311   4.645   3.506  15.438  1.4182 -0.8253 -1.6030
11632TIP3    H256312   4.510   3.445  15.471 -0.1566  3.8632  1.5663
11633TIP3   OH256313   3.515   5.798  12.794  0.0697  0.1139  0.0800
11633TIP3    H156314   3.499   5.891  12.781 -0.7004 -0.2139 -1.6420
11633TIP3    H256315   3.568   5.771  12.719 -1.0962 -1.1347 -0.3516
11634TIP3   OH256316   3.873   5.776   3.423 -0.1226 -0.2390 -0.3636
11634TIP3    H156317   3.858   5.852   3.479  0.5403  1.0371 -1.8285
11634TIP3    H256318   3.800   5.717   3.441 -0.7178  0.7989  0.7269
11635TIP3   OH256319   5.768   2.599  17.205 -0.0684 -0.7394 -0.4613
11635TIP3    H156320   5.826   2.531  17.169 -1.6715 -2.7115  0.4727
11635TIP3    H256321   5.680   2.569  17.185 -0.9237 -0.2419  2.1249
11636TIP3   OH256322   5.224   6.785  10.815 -0.2737  0.0260  0.0380
11636TIP3    H156323   5.307   6.741  10.799 -0.2610 -0.0618  0.3321
11636TIP3    H256324   5.194   6.812  10.729 -0.5341 -1.0095 -0.2004
11637TIP3   OH256325   5.527   1.132  10.993  0.3446 -0.5079 -0.8475
11637TIP3    H156326   5.567   1.096  11.073 -0.7733 -2.4839 -1.1170
11637TIP3    H256327   5.601   1.143  10.933  1.4231  2.2873  0.8070
11638TIP3   OH256328   2.653   5.882  14.849  0.3768  0.1810 -0.5299
11638TIP3    H156329   2.695   5.888  14.935 -0.7464 -0.1471  0.0695
11638TIP3    H256330   2.581   5.820  14.862  0.9610 -0.8678 -2.0429
11639TIP3   OH256331   1.294   4.655  11.721  0.1528 -0.7217  0.2019
11639TIP3    H156332   1.242   4.609  11.787  2.3188 -1.1662  1.7230
11639TIP3    H256333   1.302   4.744  11.755 -0.4400 -0.3739 -0.5463
11640TIP3   OH256334   5.629   1.006  12.482 -0.0679 -0.6196  0.3165
11640TIP3    H156335   5.587   1.035  12.402 -0.2728 -1.7607 -0.0031
11640TIP3    H256336   5.722   1.024  12.469 -0.0681 -1.0679 -0.2903
11641TIP3   OH256337   4.035   3.759  14.444 -0.1177  0.4991  0.5342
11641TIP3    H156338   4.117   3.807  14.441 -0.3062  0.7928 -1.8241
11641TIP3    H256339   4.004   3.758  14.353 -2.5297  0.0803  1.2796
11642TIP3   OH256340   2.511   3.789  16.003  0.2447 -0.2348  0.6781
11642TIP3    H156341   2.584   3.727  16.008 -1.4896 -2.3823  0.6659
11642TIP3    H256342   2.477   3.794  16.092 -0.6206 -0.5506  0.3708
11643TIP3   OH256343   4.978   0.133  15.260  0.0865  0.6264  0.3185
11643TIP3    H156344   5.071   0.153  15.275 -0.1410  0.4646  2.1478
11643TIP3    H256345   4.967   0.143  15.166  2.2853 -0.6705 -0.1615
11644TIP3   OH256346   0.171   1.987  14.032 -0.5907  0.0408  0.6193
11644TIP3    H156347   0.205   2.076  14.026 -1.0994  0.1604 -0.6092
11644TIP3    H256348   0.081   1.993  14.002 -0.5614 -0.9310  0.3167
11645TIP3   OH256349   5.653   0.292   2.847  0.1877  0.7543 -0.1578
11645TIP3    H156350   5.597   0.361   2.881  0.1389  0.9718 -0.6630
11645TIP3    H256351   5.602   0.212   2.860  0.0071  0.8805 -0.0825
11646TIP3   OH256352   5.062   0.628   1.202 -0.4303 -0.7916  0.1227
11646TIP3    H156353   5.110   0.630   1.118  1.7302  0.1281  1.2983
11646TIP3    H256354   5.012   0.709   1.203 -0.3399 -0.7275 -0.2141
11647TIP3   OH256355   5.488   6.066  12.176 -0.0165 -0.8078  0.3425
11647TIP3    H156356   5.553   6.001  12.201 -1.7697 -3.2506 -1.0130
11647TIP3    H256357   5.518   6.099  12.091  0.3550 -0.5590  0.5660
11648TIP3   OH256358   0.834   3.909   2.179 -0.1463  0.0006  0.7118
11648TIP3    H156359   0.789   3.918   2.094 -1.8829 -1.3957  1.4106
11648TIP3    H256360   0.816   3.991   2.224 -0.8183  0.0184  0.4274
11649TIP3   OH256361   3.681   0.671  12.087  0.1250  0.2068 -0.3915
11649TIP3    H156362   3.655   0.648  11.998 -0.6039 -0.3197 -0.0487
11649TIP3    H256363   3.600   0.696  12.131  0.5513  0.9583 -0.0135
11650TIP3   OH256364   1.129   5.543   6.297  0.0297  0.8822  0.0432
11650TIP3    H156365   1.035   5.525   6.293  0.0008  0.8827  0.6426
11650TIP3    H256366   1.169   5.460   6.321  0.0832  1.1276  0.8205
11651TIP3   OH256367   4.728   1.734  16.854  0.6150  0.0079 -0.1355
11651TIP3    H156368   4.748   1.823  16.881 -0.2575  0.8379 -2.0698
11651TIP3    H256369   4.652   1.710  16.908  1.7139 -0.1477  1.4117
11652TIP3   OH256370   6.487   1.549  13.345  0.4342  0.2798 -0.0628
11652TIP3    H156371   6.554   1.597  13.297  0.0024  1.3528  0.3558
11652TIP3    H256372   6.491   1.585  13.434 -0.0725 -0.2967  0.2056
11653TIP3   OH256373   2.493   2.395   4.431  0.0075 -0.5214  0.4428
11653TIP3    H156374   2.420   2.414   4.489 -1.1033 -0.1513 -1.0383
11653TIP3    H256375   2.553   2.468   4.444 -0.7945  0.1848  0.2333
11654TIP3   OH256376   2.024   1.892  15.323  0.3270  0.5357 -0.0610
11654TIP3    H156377   1.958   1.945  15.279 -1.2556 -0.7122  0.6920
11654TIP3    H256378   2.106   1.918  15.283 -0.4766  2.8210 -0.4034
11655TIP3   OH256379   0.559   6.680  14.507  0.0458 -0.5115  0.1622
11655TIP3    H156380   0.581   6.774  14.512  2.1786 -0.9840  0.7602
11655TIP3    H256381   0.463   6.678  14.502 -0.0700  1.6843  0.4258
11656TIP3   OH256382   1.642   0.076   2.885  0.4798  0.2488  0.1281
11656TIP3    H156383   1.658   0.042   2.973 -2.3118  0.3903  0.7674
11656TIP3    H256384   1.659   0.170   2.893 -0.4011  0.3649  0.7009
11657TIP3   OH256385   5.264   4.574   1.583  0.1627 -0.4092  0.5069
11657TIP3    H156386   5.174   4.543   1.585 -0.2849  0.8646  1.7847
11657TIP3    H256387   5.317   4.497   1.605 -0.7098 -0.8475  1.1152
11658TIP3   OH256388   5.150   3.695   1.971 -0.0989 -0.0975 -0.1255
11658TIP3    H156389   5.130   3.664   1.882 -1.0676 -0.9954  0.3932
11658TIP3    H256390   5.244   3.717   1.967  0.0893 -0.9823 -1.1311
11659TIP3   OH256391   0.662   4.884  13.814  0.0152  0.3787  0.2118
11659TIP3    H156392   0.753   4.862  13.830 -0.5085 -1.3097  1.1679
11659TIP3    H256393   0.656   4.898  13.720  1.2397  0.4315  0.1342
11660TIP3   OH256394   5.947   2.211   1.788  0.0425 -0.2089 -0.2746
11660TIP3    H156395   5.910   2.126   1.767 -0.2031 -0.5251  1.3122
11660TIP3    H256396   5.970   2.206   1.880  0.0472  1.4368 -0.1449
11661TIP3   OH256397   2.520   5.255  12.218 -0.0939 -0.1095  0.2655
11661TIP3    H156398   2.458   5.205  12.165 -0.9045 -0.7116  1.7285
11661TIP3    H256399   2.586   5.286  12.155 -0.7606 -1.1705 -1.0068
11662TIP3   OH256400   1.161   2.166  13.777 -0.1683  0.0576 -0.3538
11662TIP3    H156401   1.193   2.081  13.808  1.0922  1.3838  2.2443
11662TIP3    H256402   1.219   2.188  13.704 -0.4918 -1.2531 -1.0431
11663TIP3   OH256403   0.215   5.587   1.830 -0.8146 -0.2639  0.1883
11663TIP3    H156404   0.211   5.682   1.836 -1.2250 -0.1614 -1.3217
11663TIP3    H256405   0.308   5.566   1.840 -0.7989  0.2333  1.1477
11664TIP3   OH256406   0.774   0.331  14.884 -0.2585 -0.0367 -0.1123
11664TIP3    H156407   0.801   0.266  14.819  1.8486  0.6953 -0.0478
11664TIP3    H256408   0.828   0.314  14.960  0.8987  2.1812 -0.3415
11665TIP3   OH256409   0.776   1.187  15.162  0.6445  0.0433 -0.2450
11665TIP3    H156410   0.714   1.261  15.163  0.5233 -0.0565  1.1334
11665TIP3    H256411   0.798   1.173  15.254  1.5906 -0.8814 -0.5967
11666TIP3   OH256412   1.422   1.127  11.541  0.0023  0.2791  0.2167
11666TIP3    H156413   1.381   1.107  11.457 -1.4820  0.0282  0.9640
11666TIP3    H256414   1.491   1.191  11.520  1.9238 -2.1787 -1.6377
11667TIP3   OH256415   4.346   2.085   4.483 -0.1696 -0.1199  0.5209
11667TIP3    H156416   4.259   2.086   4.523  0.1751  0.2126  1.2999
11667TIP3    H256417   4.358   2.175   4.451 -0.5986 -0.4841 -0.7030
11668TIP3   OH256418   5.530   4.058   5.701  0.4199 -0.5641  0.4409
11668TIP3    H156419   5.515   3.980   5.647  0.7532 -0.2309 -0.1423
11668TIP3    H256420   5.510   4.029   5.790  1.7333 -1.6723  0.4132
11669TIP3   OH256421   3.904   5.312  14.089 -0.1508  0.1568 -0.4567
11669TIP3    H156422   3.900   5.396  14.136  1.1992 -0.5007  0.9388
11669TIP3    H256423   3.813   5.294  14.065 -1.1950 -0.0597  3.0812
11670TIP3   OH256424   6.532   5.588   2.643 -0.5384  0.1276 -0.1409
11670TIP3    H156425   6.452   5.590   2.591 -1.1940 -0.4342  0.8180
11670TIP3    H256426   6.572   5.504   2.623 -0.5997  0.0679 -0.0109
11671TIP3   OH256427   1.790   2.873   1.686  0.8784  0.1292 -0.1377
11671TIP3    H156428   1.873   2.911   1.714  0.8337  0.7432 -0.8157
11671TIP3    H256429   1.804   2.779   1.690  1.4007  0.2230  0.3434
11672TIP3   OH256430   4.913   0.906   3.238 -0.5566 -0.2983 -0.2048
11672TIP3    H156431   4.969   0.875   3.309  0.4516 -1.4213 -1.4271
11672TIP3    H256432   4.827   0.918   3.279 -0.1379 -1.4316  1.0940
11673TIP3   OH256433   0.920   2.591   6.089  0.1228  0.1520 -0.4725
11673TIP3    H156434   0.922   2.584   6.184 -1.6109  1.4895 -0.2953
11673TIP3    H256435   1.007   2.625   6.065  0.2092  0.8259  0.7289
11674TIP3   OH256436   1.096   2.282   3.258 -0.5964  0.0485  0.2801
11674TIP3    H156437   1.092   2.287   3.353  0.8061 -0.6542  0.3938
11674TIP3    H256438   1.023   2.337   3.228 -1.5750 -0.3860  1.7555
11675TIP3   OH256439   3.799   4.015  11.752 -0.5486  0.5125  0.2351
11675TIP3    H156440   3.774   3.923  11.764  0.2529  0.0080 -1.6582
11675TIP3    H256441   3.859   4.014  11.678  2.0597  2.1671  2.1677
11676TIP3   OH256442   0.459   4.679   6.648  1.1526 -0.6685 -0.1153
11676TIP3    H156443   0.469   4.632   6.731 -0.4331  1.6862  1.5350
11676TIP3    H256444   0.533   4.741   6.647  1.7095 -1.3249 -0.9689
11677TIP3   OH256445   0.824   0.453  15.804 -0.5728 -0.2029  0.2695
11677TIP3    H156446   0.807   0.446  15.898 -1.2823  0.7637  0.2351
11677TIP3    H256447   0.746   0.496  15.769 -0.3974 -0.7293 -0.7959
11678TIP3   OH256448   5.869   5.544   6.255 -0.6572  1.0329  0.0432
11678TIP3    H156449   5.844   5.577   6.341  0.9337  0.3505  0.8211
11678TIP3    H256450   5.930   5.472   6.274 -1.4602 -0.1576 -1.6373
11679TIP3   OH256451   4.722   1.728  14.749  0.2784 -0.3844  0.7343
11679TIP3    H156452   4.675   1.645  14.741  0.0894 -0.1778 -0.6990
11679TIP3    H256453   4.652   1.794  14.751  0.3870 -0.2909  2.9540
11680TIP3   OH256454   2.757   1.999   2.153 -0.4200  0.1883 -0.3673
11680TIP3    H156455   2.778   2.010   2.246  0.3044 -1.0861 -0.3595
11680TIP3    H256456   2.715   2.082   2.128 -1.3319  0.2622  1.2690
11681TIP3   OH256457   6.792   5.859   0.597  0.9376 -0.2566  0.1647
11681TIP3    H156458   6.864   5.799   0.578  2.2081  1.0768  0.5285
11681TIP3    H256459   6.784   5.856   0.693  0.7171 -0.1824  0.1476
11682TIP3   OH256460   4.432   0.365  11.705 -0.1309 -0.6930 -0.4006
11682TIP3    H156461   4.467   0.391  11.790 -2.0549  0.3808  0.1360
11682TIP3    H256462   4.365   0.299  11.725 -1.4224  0.3998 -0.9140
11683TIP3   OH256463   4.095   4.598  10.987  0.2065  0.3904 -0.3952
11683TIP3    H156464   4.020   4.620  10.931 -0.6567 -0.5424  0.3496
11683TIP3    H256465   4.144   4.532  10.937  0.1896  0.5450 -0.6177
11684TIP3   OH256466   1.387   0.732   0.961  0.2724  0.4347 -0.0183
11684TIP3    H156467   1.349   0.792   1.024 -0.1047  2.1225 -1.7415
11684TIP3    H256468   1.314   0.678   0.932  0.0382  0.9249 -0.3563
11685TIP3   OH256469   6.631   3.013  13.868 -0.3560  0.3875 -0.0982
11685TIP3    H156470   6.631   2.946  13.937 -2.2632  0.3177 -0.0984
11685TIP3    H256471   6.561   3.073  13.893 -1.9437 -0.2887 -2.5257
11686TIP3   OH256472   1.070   4.120   2.523 -0.0494 -0.2293 -0.1344
11686TIP3    H156473   1.013   4.051   2.556 -0.6889  0.0309 -0.6774
11686TIP3    H256474   1.127   4.077   2.461  2.3100 -1.0884  2.4126
11687TIP3   OH256475   5.194   0.995  11.031  0.2737  0.5416 -0.3325
11687TIP3    H156476   5.234   0.927  10.977  0.4991  0.2103  0.2362
11687TIP3    H256477   5.110   1.013  10.989 -0.0939 -0.5808 -0.1154
11688TIP3   OH256478   4.758   1.888   1.710  0.3012 -0.6303 -0.1804
11688TIP3    H156479   4.699   1.926   1.645 -0.5568  0.6938  1.3062
11688TIP3    H256480   4.705   1.820   1.753  0.0253  0.1428  0.7392
11689TIP3   OH256481   6.732   2.096  16.595  0.2407 -0.0288  0.2823
11689TIP3    H156482   6.689   2.089  16.681 -1.0016  0.6154 -0.2470
11689TIP3    H256483   6.805   2.155  16.610  1.8470 -2.1880  1.5084
11690TIP3   OH256484   4.829   3.637   5.074 -0.5402 -0.2342 -0.1790
11690TIP3    H156485   4.793   3.726   5.080 -0.3313 -0.1081 -0.7228
11690TIP3    H256486   4.880   3.637   4.993 -0.0953 -0.6938  0.0938
11691TIP3   OH256487   2.786   3.237   0.388 -0.5033  0.0789  0.1028
11691TIP3    H156488   2.839   3.223   0.309 -1.0689  1.3386 -0.5303
11691TIP3    H256489   2.850   3.234   0.460  0.1108 -0.4808 -0.4512
11692TIP3   OH256490   4.415   5.035  11.987 -0.5048 -0.4427  0.1055
11692TIP3    H156491   4.501   5.037  12.028 -0.0321 -0.9265 -0.8413
11692TIP3    H256492   4.366   5.103  12.033  1.0670  1.4012 -0.8249
11693TIP3   OH256493   4.192   4.030   3.695 -0.3852 -0.0739 -0.0052
11693TIP3    H156494   4.266   4.039   3.635 -1.1539 -1.0137 -1.1303
11693TIP3    H256495   4.214   3.955   3.750  0.5214  1.0522  1.2562
11694TIP3   OH256496   1.204   5.298   1.569  0.1725  0.4755 -0.1320
11694TIP3    H156497   1.111   5.284   1.555  0.1007 -0.3947  1.0720
11694TIP3    H256498   1.239   5.211   1.589  0.8500  1.1015  1.5369
11695TIP3   OH256499   6.572   3.958   1.847  0.2628  0.3071 -1.2647
11695TIP3    H156500   6.617   3.987   1.926 -1.4053  1.8934 -0.8533
11695TIP3    H256501   6.504   3.898   1.878  2.2699 -2.5454 -1.9311
11696TIP3   OH256502   6.596   0.031  11.463  0.0797  0.5054  0.4691
11696TIP3    H156503   6.626   0.066  11.547 -0.7230 -1.4458  1.6260
11696TIP3    H256504   6.502   0.021  11.473  0.0094 -0.0038 -0.5756
11697TIP3   OH256505   2.640   5.397   6.285  0.2384  1.1277  0.1178
11697TIP3    H156506   2.709   5.414   6.349  0.4379  0.6003  0.0484
11697TIP3    H256507   2.684   5.352   6.213  0.4765  3.6048 -1.4202
11698TIP3   OH256508   5.700   5.220  14.387 -0.1417 -0.0262 -0.1261
11698TIP3    H156509   5.791   5.230  14.415  0.0563  2.2836 -1.3528
11698TIP3    H256510   5.697   5.258  14.299 -2.7580  2.3646  0.8230
11699TIP3   OH256511   3.143   3.856   0.228 -0.0934  0.4538  0.6874
11699TIP3    H156512   3.162   3.763   0.245 -1.2798 -0.0737 -0.6492
11699TIP3    H256513   3.093   3.884   0.305 -1.0917 -0.4835  0.4162
11700TIP3   OH256514   4.931   0.781  12.247 -0.6548  0.1940  0.1288
11700TIP3    H156515   4.869   0.802  12.317  2.5552  1.2080  2.9075
11700TIP3    H256516   5.017   0.782  12.289  1.3283 -1.3567 -3.4229
11701TIP3   OH256517   0.357   0.870  13.286  0.1340 -0.2775  0.4156
11701TIP3    H156518   0.267   0.858  13.254  0.7025 -1.1278 -0.9544
11701TIP3    H256519   0.372   0.794  13.343 -0.4132  0.5175  1.6569
11702TIP3   OH256520   0.188   2.377   4.558 -0.7409  0.4780 -0.1486
11702TIP3    H156521   0.268   2.396   4.606 -0.1743 -0.4562 -0.6910
11702TIP3    H256522   0.208   2.298   4.508 -2.0455  0.1431 -0.1874
11703TIP3   OH256523   3.556   2.457   5.051  0.3698  0.4679 -0.0974
11703TIP3    H156524   3.573   2.443   4.958 -0.5588  1.6621 -0.4745
11703TIP3    H256525   3.525   2.548   5.057 -1.4796 -0.1771  1.1068
11704TIP3   OH256526   0.973   6.665  16.017  0.1671 -0.1619 -0.3521
11704TIP3    H156527   0.971   6.633  16.107  0.1267  1.0398  0.0997
11704TIP3    H256528   1.065   6.661  15.991  0.0426 -1.4860 -0.6398
11705TIP3   OH256529   0.542   4.011   3.591 -0.0643  0.1033 -0.1006
11705TIP3    H156530   0.489   4.013   3.671 -1.0985  1.7939 -0.7544
11705TIP3    H256531   0.570   4.102   3.579  0.7270 -0.2643 -1.2419
11706TIP3   OH256532   3.353   2.388  11.211  0.0064 -0.0190  0.3324
11706TIP3    H156533   3.363   2.395  11.306  3.5569 -0.7666  0.1494
11706TIP3    H256534   3.394   2.467  11.176 -1.0955  0.1608 -0.6170
11707TIP3   OH256535   2.415   4.466  11.715  0.1322 -0.6319  0.0102
11707TIP3    H156536   2.494   4.424  11.750  0.8842  0.8863  0.2064
11707TIP3    H256537   2.435   4.482  11.623  0.8307  1.4280  0.4760
11708TIP3   OH256538   3.570   6.664   5.259  0.1852  0.5665 -0.1618
11708TIP3    H156539   3.644   6.724   5.270 -0.1175  1.0989 -0.9563
11708TIP3    H256540   3.611   6.580   5.240  0.6062  0.5704  0.6635
11709TIP3   OH256541   0.662   5.898  16.708  0.3945 -0.4932  0.1573
11709TIP3    H156542   0.723   5.839  16.752  0.2397  0.7311  2.1354
11709TIP3    H256543   0.658   5.866  16.618  1.2456 -2.7172  0.8504
11710TIP3   OH256544   3.464   3.059   2.950  0.4666  0.0559 -0.1273
11710TIP3    H156545   3.381   3.043   2.907  1.2353 -0.1243 -1.6052
11710TIP3    H256546   3.448   3.038   3.042 -1.9726  3.0956  0.2773
11711TIP3   OH256547   3.334   6.476   3.620 -0.5145 -0.0289 -0.7181
11711TIP3    H156548   3.249   6.478   3.664 -0.5922 -0.9098 -0.8081
11711TIP3    H256549   3.313   6.470   3.527 -0.3600 -0.5010 -0.7257
11712TIP3   OH256550   0.522   0.987   5.125  0.7886 -0.2044  0.5333
11712TIP3    H156551   0.610   0.952   5.134  1.0715  0.5982  0.9422
11712TIP3    H256552   0.467   0.926   5.173  1.4562  0.6097  2.4376
11713TIP3   OH256553   5.587   1.032  15.270  0.3281  0.1751  0.5136
11713TIP3    H156554   5.540   1.111  15.243  0.4283  0.1513  0.2627
11713TIP3    H256555   5.628   1.000  15.189  0.9830  0.3385  0.7752
11714TIP3   OH256556   1.520   0.701  11.729 -0.3964  0.1850  0.3258
11714TIP3    H156557   1.443   0.729  11.680 -1.3364 -1.1612  0.9656
11714TIP3    H256558   1.576   0.779  11.734 -1.7013  1.1795 -0.1605
11715TIP3   OH256559   4.619   3.844   0.262  0.1629  0.4341  0.0173
11715TIP3    H156560   4.655   3.924   0.223  1.3428 -0.0903 -0.0420
11715TIP3    H256561   4.589   3.792   0.187  2.4238 -0.5702 -0.2789
11716TIP3   OH256562   0.461   1.454   4.126 -0.2831 -0.1054  0.3228
11716TIP3    H156563   0.413   1.410   4.055  1.6542 -0.5423 -0.8025
11716TIP3    H256564   0.395   1.471   4.193 -2.1896  0.1738 -1.4985
11717TIP3   OH256565   1.592   3.138   2.184  0.5803 -0.0902  0.8008
11717TIP3    H156566   1.552   3.054   2.206 -0.1366  0.6347  2.4000
11717TIP3    H256567   1.600   3.183   2.268  1.3008  1.3030  0.0141
11718TIP3   OH256568   5.235   5.920  14.856  0.1823  0.0547  0.2707
11718TIP3    H156569   5.312   5.864  14.853  0.8630  0.9627  0.5250
11718TIP3    H256570   5.265   6.005  14.822 -1.0342  0.0467 -0.8911
11719TIP3   OH256571   1.213   0.796   4.218  0.1092  0.6771 -0.4257
11719TIP3    H156572   1.200   0.784   4.312  0.5308 -1.3690 -0.5816
11719TIP3    H256573   1.274   0.870   4.212  2.3715 -0.9132  1.1174
11720TIP3   OH256574   5.195   3.029   3.613  0.5883 -0.0161  0.0190
11720TIP3    H156575   5.191   3.030   3.709  3.4750 -1.4600  0.2426
11720TIP3    H256576   5.240   3.111   3.590 -1.0303  0.8472 -0.2483
11721TIP3   OH256577   2.895   5.260   1.993 -0.4399  0.1644 -0.2002
11721TIP3    H156578   2.864   5.171   2.012 -1.0490  0.3133 -0.4762
11721TIP3    H256579   2.877   5.309   2.073  0.0251  0.0083  0.0023
11722TIP3   OH256580   1.400   2.102   1.562  0.0674 -0.2971 -0.4912
11722TIP3    H156581   1.348   2.139   1.491  0.0596  1.0495  0.1963
11722TIP3    H256582   1.482   2.076   1.520 -0.8318 -1.7842 -1.4448
11723TIP3   OH256583   2.376   0.111  13.534  0.3181 -0.0836 -0.1116
11723TIP3    H156584   2.395   0.199  13.568 -1.2243  0.5108 -0.7045
11723TIP3    H256585   2.422   0.052  13.594 -2.0205  0.9291  2.9460
11724TIP3   OH256586   4.756   2.957   4.304  0.0890 -0.1773 -0.5874
11724TIP3    H156587   4.788   2.902   4.376 -1.8748 -0.2802  0.2528
11724TIP3    H256588   4.664   2.934   4.295 -0.0940  1.0054 -2.0905
11725TIP3   OH256589   6.532   3.366   5.369 -0.0858 -0.2342  0.2734
11725TIP3    H156590   6.568   3.298   5.425  1.3617  0.8260  0.6809
11725TIP3    H256591   6.522   3.442   5.427  0.4878  0.5777 -0.6590
11726TIP3   OH256592   2.821   4.279  13.056 -0.1690 -0.1694  0.3348
11726TIP3    H156593   2.737   4.233  13.056 -1.9998  2.8795 -0.0769
11726TIP3    H256594   2.833   4.308  12.966  0.4792  0.8493  0.7285
11727TIP3   OH256595   1.283   0.520  15.694  0.0423 -0.0055  0.9706
11727TIP3    H156596   1.243   0.518  15.781 -2.4302 -2.0536 -0.0661
11727TIP3    H256597   1.223   0.572  15.641  0.5852 -0.2539  0.0870
11728TIP3   OH256598   6.777   3.128  12.517  0.4290 -0.3107  0.2218
11728TIP3    H156599   6.780   3.201  12.579 -2.5365 -0.0651  0.2547
11728TIP3    H256600   6.855   3.139  12.463  1.4233  1.3396  1.8659
11729TIP3   OH256601   1.949   1.263  11.514  0.3268  0.1008 -0.4693
11729TIP3    H156602   1.913   1.351  11.527  1.5291  0.4285  0.9460
11729TIP3    H256603   1.898   1.227  11.442 -0.7444  1.6528 -0.5487
11730TIP3   OH256604   5.891   4.862  11.101  0.1425  0.2845  0.5805
11730TIP3    H156605   5.941   4.796  11.150 -0.2244 -0.6186 -0.2164
11730TIP3    H256606   5.924   4.856  11.011 -0.2804  0.7956  0.3833
11731TIP3   OH256607   1.629   3.492   1.437  0.1210  0.1591 -0.2114
11731TIP3    H156608   1.702   3.551   1.415 -0.7763  1.5048  0.3282
11731TIP3    H256609   1.632   3.485   1.532 -1.3553  1.4501 -0.0462
11732TIP3   OH256610   4.043   3.622   5.442 -1.0856 -0.6995 -0.2629
11732TIP3    H156611   3.950   3.620   5.421 -1.2298  1.5718 -0.0638
11732TIP3    H256612   4.055   3.702   5.493  1.1865 -0.2089 -1.4242
11733TIP3   OH256613   6.575   1.335  11.823 -0.9922 -0.1818 -0.1292
11733TIP3    H156614   6.543   1.290  11.902 -2.1698 -0.2870 -0.6533
11733TIP3    H256615   6.640   1.275  11.787  0.2951  0.2954  1.2655
11734TIP3   OH256616   4.492   0.671   5.208  0.3409 -0.4610 -0.0400
11734TIP3    H156617   4.492   0.631   5.295  0.1363  0.1476  0.2392
11734TIP3    H256618   4.583   0.662   5.178  1.2391  2.2139  1.5854
11735TIP3   OH256619   0.458   0.464  14.851  0.5034  0.9415 -0.2586
11735TIP3    H156620   0.515   0.451  14.775  0.1844  0.4943 -0.4240
11735TIP3    H256621   0.396   0.531  14.823  0.8031  1.2638 -0.1575
11736TIP3   OH256622   6.328   3.855  14.576 -0.4711 -0.2609 -0.0855
11736TIP3    H156623   6.369   3.807  14.648 -0.3325 -0.1293 -0.0766
11736TIP3    H256624   6.337   3.797  14.501  1.0798  0.3884 -0.4353
11737TIP3   OH256625   4.132   1.205  12.497  0.1544  0.1128  0.0957
11737TIP3    H156626   4.057   1.231  12.552 -0.9431  1.6571 -1.9515
11737TIP3    H256627   4.093   1.151  12.428  0.3181  3.0267 -2.4935
11738TIP3   OH256628   4.559   0.865  17.013  0.0816 -0.3601  0.0453
11738TIP3    H156629   4.495   0.825  16.955  0.3020 -0.9064  0.1788
11738TIP3    H256630   4.508   0.894  17.089  0.0075 -0.8783  0.1921
11739TIP3   OH256631   4.032   2.264   0.727  0.0504  0.3461  0.4402
11739TIP3    H156632   4.097   2.263   0.657 -0.4410 -0.6214 -0.0255
11739TIP3    H256633   3.948   2.262   0.681 -0.3165 -2.8627  0.9957
11740TIP3   OH256634   1.536   2.804   4.169  0.1079 -0.1247 -0.5171
11740TIP3    H156635   1.552   2.896   4.193 -0.3317 -0.2212  0.1752
11740TIP3    H256636   1.622   2.763   4.175  0.3723  0.3031 -1.1608
11741TIP3   OH256637   4.401   1.801   6.595 -0.0461 -0.2047  0.3534
11741TIP3    H156638   4.424   1.854   6.519  0.9942 -2.4086 -0.9560
11741TIP3    H256639   4.432   1.852   6.670  0.2819  1.3181 -0.7735
11742TIP3   OH256640   2.092   2.361  13.265 -0.1355  0.2284 -0.0787
11742TIP3    H156641   2.067   2.270  13.276 -0.9676  0.3839 -0.6310
11742TIP3    H256642   2.027   2.397  13.205  0.1925  1.1834  0.1232
11743TIP3   OH256643   0.931   0.540  17.140  0.2279 -0.4030  0.0783
11743TIP3    H156644   0.992   0.489  17.088 -0.0924 -1.3543  0.6187
11743TIP3    H256645   0.978   0.622  17.158  1.6473 -1.3818  1.0677
11744TIP3   OH256646   1.665   0.670   0.336 -0.4114  0.3770  0.4755
11744TIP3    H156647   1.693   0.659   0.427 -1.4513  1.2753  0.9280
11744TIP3    H256648   1.577   0.632   0.334 -0.0989 -0.3237 -0.3514
11745TIP3   OH256649   0.227   1.318   1.307  0.4074 -0.1185  0.9730
11745TIP3    H156650   0.177   1.241   1.336  0.5774  0.3924  2.7285
11745TIP3    H256651   0.259   1.294   1.220 -0.4330 -1.6096  1.0366
11746TIP3   OH256652   1.688   2.332  16.782  0.3600 -0.5829  0.1481
11746TIP3    H156653   1.775   2.372  16.785 -0.2483  0.7292  1.6921
11746TIP3    H256654   1.683   2.279  16.861 -0.5059 -0.0126  0.4927
11747TIP3   OH256655   4.729   4.085   0.159 -0.0301  0.1963 -0.9273
11747TIP3    H156656   4.705   4.177   0.145  2.0639  1.0956  0.8310
11747TIP3    H256657   4.747   4.051   0.072 -0.2591  1.6284 -1.5611
11748TIP3   OH256658   5.437   3.584   5.783 -0.1922 -0.5173 -0.0729
11748TIP3    H156659   5.370   3.519   5.763  1.5532 -2.2482 -0.6584
11748TIP3    H256660   5.427   3.603   5.876 -1.5617 -0.6242 -0.1867
11749TIP3   OH256661   0.777   0.647  10.361 -0.6058 -0.4053 -0.1922
11749TIP3    H156662   0.769   0.631  10.267 -1.9984  0.6637 -0.2901
11749TIP3    H256663   0.855   0.598  10.388 -0.7245 -1.4897 -1.7213
11750TIP3   OH256664   3.433   2.964   3.934 -0.1436  0.2088  0.3151
11750TIP3    H156665   3.353   3.006   3.967  0.2947  0.3121  1.2593
11750TIP3    H256666   3.440   2.994   3.843 -0.4118  1.3314  0.6519
11751TIP3   OH256667   3.117   2.237   1.085 -0.4335 -0.5055 -0.4836
11751TIP3    H156668   3.168   2.229   1.005 -2.7235  1.2360 -2.2485
11751TIP3    H256669   3.067   2.155   1.090  0.4692 -1.0573 -0.2200
11752TIP3   OH256670   4.407   1.098  16.742  0.5094  0.1121 -0.5807
11752TIP3    H156671   4.450   1.016  16.716  2.0217  0.0151  1.9125
11752TIP3    H256672   4.334   1.070  16.797  1.1513  0.4217  0.4416
11753TIP3   OH256673   2.277   0.567  11.279  0.9932 -0.9527  0.3743
11753TIP3    H156674   2.280   0.661  11.297  2.4066 -0.9594  0.2958
11753TIP3    H256675   2.294   0.559  11.185  2.1120 -1.3181  0.5825
11754TIP3   OH256676   6.780   5.296  16.081 -0.2631  0.1002 -0.0005
11754TIP3    H156677   6.846   5.261  16.140 -0.9552 -0.7507  0.2870
11754TIP3    H256678   6.768   5.387  16.109  0.4682  0.1376  0.2095
11755TIP3   OH256679   2.358   0.919   3.492  0.2467  0.6071 -0.1694
11755TIP3    H156680   2.392   0.839   3.453 -0.3187  0.1897  0.1694
11755TIP3    H256681   2.435   0.961   3.532  0.0302 -1.9608  3.5092
11756TIP3   OH256682   1.647   2.961   4.689 -0.9256 -0.1866  0.3866
11756TIP3    H156683   1.658   2.915   4.606  0.4827  2.1989 -0.8513
11756TIP3    H256684   1.731   2.948   4.734 -0.6505  0.8167  0.1803
11757TIP3   OH256685   5.017   6.691  16.907  0.2757 -0.0859 -0.1701
11757TIP3    H156686   5.030   6.658  16.818  1.0140  0.5560 -0.3189
11757TIP3    H256687   5.009   6.613  16.961 -1.3366 -0.4899 -0.9362
11758TIP3   OH256688   3.448   2.979  15.880 -0.3814 -0.1470 -0.0190
11758TIP3    H156689   3.435   3.047  15.815 -0.3091 -1.4855 -1.5055
11758TIP3    H256690   3.542   2.961  15.879 -0.1579  0.7999  1.5229
11759TIP3   OH256691   4.254   5.714  15.598  0.1916  0.4134 -0.4794
11759TIP3    H156692   4.262   5.806  15.625 -2.7140  0.3412  0.9833
11759TIP3    H256693   4.160   5.700  15.591  0.5067 -2.7979  0.5207
11760TIP3   OH256694   6.301   1.117   0.931  0.1031 -0.1235 -0.3644
11760TIP3    H156695   6.279   1.158   1.015  1.1185  0.7698 -0.5071
11760TIP3    H256696   6.217   1.103   0.888 -0.5428 -1.7946  1.3324
11761TIP3   OH256697   4.657   1.333   2.024 -0.3538 -0.0541 -0.4264
11761TIP3    H156698   4.572   1.309   2.063 -0.9900 -0.3012 -1.9130
11761TIP3    H256699   4.693   1.398   2.085 -2.0703  0.8134 -0.2747
11762TIP3   OH256700   1.410   3.717   1.356 -0.2909 -0.1480 -0.0410
11762TIP3    H156701   1.328   3.754   1.326  0.0704  0.5603 -0.1691
11762TIP3    H256702   1.385   3.638   1.404 -1.1230  0.6426  0.8647
11763TIP3   OH256703   0.601   5.048  15.431  0.5968 -0.4524  0.6517
11763TIP3    H156704   0.557   4.966  15.454 -0.8971  0.3031  0.6336
11763TIP3    H256705   0.650   5.027  15.351  1.0987 -1.5816  1.2292
11764TIP3   OH256706   5.434   4.585   3.604 -0.0311  0.3156 -0.2903
11764TIP3    H156707   5.392   4.574   3.689 -0.0211  2.7713  0.1034
11764TIP3    H256708   5.516   4.537   3.612 -0.8627 -1.0835  0.3718
11765TIP3   OH256709   1.512   4.059   6.127 -0.2500  0.1369 -0.1039
11765TIP3    H156710   1.579   4.011   6.177 -1.0619  0.4085  1.2810
11765TIP3    H256711   1.449   4.088   6.193 -0.7426  1.5303 -1.1568
11766TIP3   OH256712   5.512   6.308  14.231  0.3436  0.1722  0.0729
11766TIP3    H156713   5.452   6.244  14.193  0.0166  0.3710  0.2503
11766TIP3    H256714   5.526   6.278  14.321  0.6689  0.0155 -0.0289
11767TIP3   OH256715   0.683   2.147  13.317 -0.3413  0.2938 -0.6340
11767TIP3    H156716   0.729   2.152  13.401 -0.9215  0.7633 -0.3310
11767TIP3    H256717   0.710   2.063  13.280  0.6089  0.4812 -0.3921
11768TIP3   OH256718   0.779   4.047  15.962  0.1750 -0.3139 -0.3211
11768TIP3    H156719   0.787   4.124  15.906 -0.0057 -0.7946 -1.0119
11768TIP3    H256720   0.716   3.991  15.917  0.4820 -0.9748  0.0583
11769TIP3   OH256721   4.918   0.237   3.511  0.0457  0.1422 -0.2171
11769TIP3    H156722   4.914   0.332   3.519  1.5358  0.3886 -1.7786
11769TIP3    H256723   4.931   0.221   3.417  0.5040 -1.5576  0.0940
11770TIP3   OH256724   2.884   1.991   5.069  0.0931  0.2702 -0.4102
11770TIP3    H156725   2.825   2.013   4.997  0.2824  1.4297 -0.2286
11770TIP3    H256726   2.826   1.976   5.144 -0.0864 -0.6629 -0.7252
11771TIP3   OH256727   0.221   2.301   6.265  0.3074 -0.0739 -0.4416
11771TIP3    H156728   0.296   2.272   6.212  1.1934 -1.2259  1.3419
11771TIP3    H256729   0.233   2.395   6.273  0.6175  0.0019 -1.5700
11772TIP3   OH256730   6.601   3.657   2.786 -0.1398 -0.1600  0.1333
11772TIP3    H156731   6.579   3.744   2.754  1.9853  0.8559  1.1847
11772TIP3    H256732   6.579   3.598   2.714 -2.6567  1.0674 -0.1873
11773TIP3   OH256733   2.114   0.142   3.159 -0.0043  0.4519 -0.3598
11773TIP3    H156734   2.147   0.067   3.109  2.2582  0.9242  0.3070
11773TIP3    H256735   2.123   0.217   3.100 -3.8144  0.1044 -1.6443
11774TIP3   OH256736   3.614   1.434  12.564 -0.3996  0.7084  0.0239
11774TIP3    H156737   3.626   1.389  12.648 -2.0636 -1.1172 -0.6398
11774TIP3    H256738   3.702   1.433  12.525  0.1325  0.3804  1.1704
11775TIP3   OH256739   0.834   4.550  16.125  0.9909  0.0746 -0.1252
11775TIP3    H156740   0.868   4.486  16.062 -1.2936  0.0654 -1.4592
11775TIP3    H256741   0.863   4.635  16.091  1.0886 -0.0326 -0.3112
11776TIP3   OH256742   4.116   3.376   1.354  0.3918  0.1166 -0.4683
11776TIP3    H156743   4.154   3.292   1.328 -0.1631 -0.0004 -0.8998
11776TIP3    H256744   4.030   3.378   1.314 -0.7152 -0.2899  1.7395
11777TIP3   OH256745   2.994   4.169   0.850  0.4582 -0.4955  0.7458
11777TIP3    H156746   3.031   4.081   0.853 -0.1667 -0.8556 -0.9043
11777TIP3    H256747   2.966   4.180   0.759 -0.0325  1.1807  1.0663
11778TIP3   OH256748   5.143   5.966   1.306  0.7095 -0.5929 -0.7723
11778TIP3    H156749   5.076   6.003   1.248 -0.2170 -0.1673  0.5369
11778TIP3    H256750   5.200   5.917   1.247 -1.0085 -1.3809 -1.8822
11779TIP3   OH256751   3.155   0.411  14.571 -0.0565  0.1915 -0.1707
11779TIP3    H156752   3.090   0.470  14.610 -0.7976  0.2561 -1.4523
11779TIP3    H256753   3.238   0.457  14.581 -0.2833  0.3977  0.9158
11780TIP3   OH256754   2.578   5.378   1.824  0.0098  0.0274  0.1183
11780TIP3    H156755   2.615   5.292   1.843 -1.0166 -0.1465  1.4102
11780TIP3    H256756   2.556   5.374   1.731  0.9723 -0.7172 -0.0912
11781TIP3   OH256757   5.660   1.355  15.679  0.2657  0.1950 -0.3387
11781TIP3    H156758   5.704   1.301  15.614  0.3620 -0.6897  0.4290
11781TIP3    H256759   5.718   1.352  15.755  1.9468  4.0255 -1.2324
11782TIP3   OH256760   4.124   2.593   5.846 -0.5541  0.0440 -0.1734
11782TIP3    H156761   4.121   2.558   5.935 -0.1790 -0.6852 -0.4422
11782TIP3    H256762   4.040   2.637   5.835  0.6600  3.1751  1.7380
11783TIP3   OH256763   6.280   1.748   1.692  0.6877 -0.0128  0.3916
11783TIP3    H156764   6.205   1.699   1.726  0.3821  0.2417  0.0924
11783TIP3    H256765   6.277   1.832   1.739  1.4352 -0.4072  1.1883
11784TIP3   OH256766   0.667   6.010  14.619  0.3312 -0.1880 -0.3195
11784TIP3    H156767   0.733   5.974  14.678  0.3126 -2.9826 -1.8631
11784TIP3    H256768   0.715   6.071  14.564  0.7355  0.9298  1.2045
11785TIP3   OH256769   6.707   4.492  16.606 -0.1064 -0.4058  0.1337
11785TIP3    H156770   6.694   4.439  16.528  0.2844 -1.0657  0.5013
11785TIP3    H256771   6.636   4.555  16.605  0.4471  0.2430 -1.2703
11786TIP3   OH256772   6.647   0.769  13.077  0.1992 -0.3801  0.0325
11786TIP3    H156773   6.620   0.678  13.084  0.2000 -0.4028 -0.2516
11786TIP3    H256774   6.581   0.818  13.127 -0.1184 -0.4794 -0.2873
11787TIP3   OH256775   3.135   5.306   6.543  0.3125 -0.6540  0.1267
11787TIP3    H156776   3.134   5.375   6.476 -0.9560 -1.1966 -0.4617
11787TIP3    H256777   3.170   5.348   6.621  0.6751  0.3293 -0.5465
11788TIP3   OH256778   6.355   5.280  16.147  0.4835  0.0700  0.3698
11788TIP3    H156779   6.424   5.344  16.164  1.0577 -0.5740  0.4941
11788TIP3    H256780   6.330   5.247  16.233  1.2546 -0.9636  0.2164
11789TIP3   OH256781   2.606   0.848  15.680  0.1310 -0.3534 -0.1845
11789TIP3    H156782   2.688   0.799  15.682  0.7247  0.4662 -2.0687
11789TIP3    H256783   2.633   0.938  15.661 -1.2220 -0.1440 -1.2381
11790TIP3   OH256784   0.388   5.756   5.418  0.7146  0.2466  0.2005
11790TIP3    H156785   0.384   5.661   5.407  0.9514  0.1873  0.6152
11790TIP3    H256786   0.481   5.775   5.429  0.6713  0.5323  0.0774
11791TIP3   OH256787   1.711   5.900   3.574 -0.3954 -0.7409 -0.3608
11791TIP3    H156788   1.705   5.995   3.569  2.3588 -0.5379 -1.0074
11791TIP3    H256789   1.646   5.875   3.640 -1.6907  1.4781 -0.7063
11792TIP3   OH256790   1.795   3.944   0.461  0.8071  0.3791  0.4775
11792TIP3    H156791   1.838   3.862   0.435  0.6299  0.7612 -1.1302
11792TIP3    H256792   1.728   3.917   0.523  0.4691 -0.7728 -0.3500
11793TIP3   OH256793   6.777   3.599   4.402  0.7388 -0.0009 -0.1527
11793TIP3    H156794   6.697   3.554   4.372  1.2871 -1.5114  0.5523
11793TIP3    H256795   6.747   3.687   4.426 -0.9434 -0.8254  1.0312
11794TIP3   OH256796   3.605   1.746   4.383  0.0294 -0.3288 -0.1230
11794TIP3    H156797   3.572   1.672   4.435 -0.4971 -0.8402 -1.1314
11794TIP3    H256798   3.699   1.747   4.399  0.0218 -1.1312  0.0361
11795TIP3   OH256799   5.769   1.634   0.957 -0.2910 -0.6807  0.0616
11795TIP3    H156800   5.835   1.686   1.001 -0.2197 -0.2457 -0.5476
11795TIP3    H256801   5.755   1.678   0.873 -2.6811  0.3198  0.9103
11796TIP3   OH256802   3.919   6.218   5.608 -0.0850  0.3845 -0.1869
11796TIP3    H156803   3.973   6.297   5.616  2.8451 -1.4384 -0.4922
11796TIP3    H256804   3.870   6.231   5.527  0.5954  1.7531 -0.4070
11797TIP3   OH256805   3.244   0.448   5.404  0.2304  0.1827  0.6456
11797TIP3    H156806   3.199   0.513   5.458 -0.1814  0.9312 -0.5666
11797TIP3    H256807   3.318   0.494   5.365  0.0764 -0.1261 -0.0385
11798TIP3   OH256808   2.881   6.094  15.923 -0.7762 -0.0260 -0.5923
11798TIP3    H156809   2.890   6.109  16.017  0.8930  0.4646 -0.7868
11798TIP3    H256810   2.924   6.009  15.908 -1.4716 -0.3380 -0.8515
11799TIP3   OH256811   1.621   4.759   5.128  0.1404 -0.4989  0.3146
11799TIP3    H156812   1.565   4.836   5.119 -1.3493 -1.2623  2.3104
11799TIP3    H256813   1.561   4.685   5.120  0.9040 -1.3518  2.0389
11800TIP3   OH256814   4.229   6.678  17.181  0.6037 -0.4280  0.1504
11800TIP3    H156815   4.257   6.768  17.198  0.7434 -0.4538  0.0645
11800TIP3    H256816   4.310   6.626  17.188  0.3356 -0.7083  1.3231
11801TIP3   OH256817   3.331   2.960  11.007  0.4566  0.3617  0.0605
11801TIP3    H156818   3.279   3.039  10.999  1.1118  0.8327  0.3229
11801TIP3    H256819   3.422   2.991  11.008  0.7099 -0.3574  0.5049
11802TIP3   OH256820   0.243   0.862   5.014  0.1188 -0.2387  0.3809
11802TIP3    H156821   0.201   0.910   5.086  0.7241 -0.5364  0.9527
11802TIP3    H256822   0.228   0.770   5.035 -1.7517 -0.3344 -1.1470
11803TIP3   OH256823   1.721   0.653  13.633  0.2662  0.5316 -0.0598
11803TIP3    H156824   1.769   0.690  13.559 -0.9410 -0.1652 -1.2370
11803TIP3    H256825   1.651   0.601  13.593  1.2895 -2.3070  1.4889
11804TIP3   OH256826   4.010   1.393   6.002  0.4922  0.0790 -0.3843
11804TIP3    H156827   4.056   1.456   5.945 -0.4066 -0.1803 -1.4302
11804TIP3    H256828   3.943   1.446   6.045  3.5331  1.1819  3.5544
11805TIP3   OH256829   4.872   6.698   4.083 -0.1125 -0.1247 -0.3818
11805TIP3    H156830   4.935   6.632   4.112  0.8306  1.1419  0.5475
11805TIP3    H256831   4.790   6.649   4.071  0.2944 -1.2773  1.2890
11806TIP3   OH256832   3.299   1.777  14.248  0.0025 -0.0140 -0.0320
11806TIP3    H156833   3.298   1.685  14.275 -2.8136 -0.0941 -0.1241
11806TIP3    H256834   3.343   1.776  14.163  1.1303 -1.0751  0.5352
11807TIP3   OH256835   3.856   6.713  11.773  0.4484  0.3018  0.6147
11807TIP3    H156836   3.792   6.697  11.843  0.8794 -0.8162  0.7750
11807TIP3    H256837   3.934   6.666  11.801  1.2163  1.3156  0.2169
11808TIP3   OH256838   3.778   0.649  11.028 -0.3438 -0.1705  0.3525
11808TIP3    H156839   3.772   0.657  11.123  0.6297  0.1840  0.3994
11808TIP3    H256840   3.831   0.725  11.001 -1.1042  0.0626 -0.5376
11809TIP3   OH256841   0.107   0.812  13.231 -0.1048  0.1815  0.5515
11809TIP3    H156842   0.033   0.803  13.171 -1.8546  3.9354  1.7995
11809TIP3    H256843   0.094   0.743  13.296 -0.9245 -0.9040 -0.7160
11810TIP3   OH256844   5.479   3.369   4.699 -0.4345  0.5379  0.3062
11810TIP3    H156845   5.560   3.421   4.697 -0.4945  0.7441  1.6821
11810TIP3    H256846   5.509   3.279   4.707 -0.3051  0.1438 -3.2523
11811TIP3   OH256847   1.664   0.498   3.819 -0.3279  0.5943  0.3632
11811TIP3    H156848   1.573   0.487   3.849 -0.2693  0.4703  0.4964
11811TIP3    H256849   1.701   0.563   3.878 -1.2007  2.9358 -1.5289
11812TIP3   OH256850   4.765   5.291  13.984  0.7084 -0.4460  0.0133
11812TIP3    H156851   4.688   5.348  13.975 -0.5819 -1.7639  1.9129
11812TIP3    H256852   4.780   5.256  13.896  0.6730  1.6868 -0.8878
11813TIP3   OH256853   2.075   1.429  12.973  0.4580  0.1169  0.4237
11813TIP3    H156854   2.048   1.516  13.002 -0.7850 -0.4294  0.9600
11813TIP3    H256855   1.995   1.389  12.941  1.0825 -0.7239 -0.1228
11814TIP3   OH256856   2.758   1.476  15.756 -0.3402 -0.0608  0.0488
11814TIP3    H156857   2.812   1.553  15.736 -1.8913  0.8227 -0.8906
11814TIP3    H256858   2.699   1.467  15.682  0.4015 -2.7784 -0.3313
11815TIP3   OH256859   6.767   4.279   4.000 -0.3093  0.2534 -0.4055
11815TIP3    H156860   6.749   4.211   4.065 -0.6110 -0.5151 -1.2707
11815TIP3    H256861   6.686   4.329   3.995 -0.0419  0.7790  0.3320
11816TIP3   OH256862   2.120   2.552  17.080  0.2654 -0.4739 -0.2769
11816TIP3    H156863   2.040   2.544  17.029 -0.5396 -1.4884  1.0812
11816TIP3    H256864   2.188   2.569  17.015 -0.9351 -0.2140 -1.5214
11817TIP3   OH256865   3.278   3.049   0.005 -0.2833  0.1474 -0.0545
11817TIP3    H156866   3.286   3.071  -0.088 -1.7186 -0.8344 -0.4432
11817TIP3    H256867   3.362   3.008   0.027  0.0989  0.4488 -0.8891
11818TIP3   OH256868   2.399   6.513   0.033 -0.2081 -0.0259 -0.0605
11818TIP3    H156869   2.385   6.421   0.010  2.0002 -0.3868 -0.2269
11818TIP3    H256870   2.350   6.563  -0.032 -1.7354 -1.0620  0.2530
11819TIP3   OH256871   6.372   4.827   3.806 -0.4104 -0.6055  0.6671
11819TIP3    H156872   6.304   4.813   3.739 -0.0574  2.8834 -0.6073
11819TIP3    H256873   6.442   4.765   3.781  0.3013  1.4092 -3.2200
11820TIP3   OH256874   5.701   3.905   1.502 -0.1373 -0.0887 -0.1622
11820TIP3    H156875   5.667   3.930   1.588  0.2214 -0.3704  0.0612
11820TIP3    H256876   5.671   3.815   1.490  0.8225 -0.4625  0.1887
11821TIP3   OH256877   2.782   4.192  11.207  0.0073 -0.0678 -0.5826
11821TIP3    H156878   2.804   4.273  11.162  0.2725  0.0598 -0.2278
11821TIP3    H256879   2.725   4.145  11.146 -2.2486  1.5030  0.1891
11822TIP3   OH256880   3.672   0.595   5.039 -0.4709 -0.1753 -0.0698
11822TIP3    H156881   3.672   0.569   5.131  0.2964 -1.8825 -0.5064
11822TIP3    H256882   3.746   0.655   5.031  0.2671 -1.0214  0.2046
11823TIP3   OH256883   6.250   5.837  11.278  0.0214  0.4409 -0.1898
11823TIP3    H156884   6.184   5.776  11.244  0.9470  0.2787 -1.7909
11823TIP3    H256885   6.282   5.883  11.201  1.2879  1.0128  0.6512
11824TIP3   OH256886   6.703   0.076  16.246  0.0154  0.0471 -0.2007
11824TIP3    H156887   6.751   0.159  16.247 -0.5400  0.3811 -1.1727
11824TIP3    H256888   6.612   0.100  16.234 -0.1536 -0.7076 -0.4952
11825TIP3   OH256889   5.570   0.402   4.933 -0.2371  0.3099  0.6561
11825TIP3    H156890   5.557   0.321   4.983  1.4995 -0.3039  0.2299
11825TIP3    H256891   5.543   0.472   4.991  0.1953 -0.4877  1.8538
11826TIP3   OH256892   5.828   3.996  16.419  0.2289 -0.1125 -0.6248
11826TIP3    H156893   5.736   4.017  16.402  0.2845  1.1482  0.4751
11826TIP3    H256894   5.868   3.990  16.332 -0.7779 -0.1583 -1.1005
11827TIP3   OH256895   1.205   6.745  14.138  0.0401 -0.1170 -0.1718
11827TIP3    H156896   1.182   6.814  14.077  0.4072 -1.0598 -1.4363
11827TIP3    H256897   1.128   6.688  14.141  0.0464 -0.1071  0.1870
11828TIP3   OH256898   3.734   4.115  15.551 -0.2281  0.4115  0.0255
11828TIP3    H156899   3.740   4.182  15.620  0.3625  0.7868 -0.3778
11828TIP3    H256900   3.824   4.102  15.522 -0.5410  0.8252 -1.2063
11829TIP3   OH256901   0.555   0.581  14.208 -0.0598  0.4276  0.3438
11829TIP3    H156902   0.524   0.639  14.138 -0.4703 -1.4975 -1.1859
11829TIP3    H256903   0.501   0.603  14.283 -1.8510  0.4673 -0.8770
11830TIP3   OH256904   2.153   3.938   4.306  0.0826 -0.5972  0.3655
11830TIP3    H156905   2.185   3.986   4.383  1.3110  0.7698 -0.9341
11830TIP3    H256906   2.157   3.846   4.332  0.7228 -0.1873  1.8400
11831TIP3   OH256907   6.309   5.227   1.131 -0.1942  0.1073 -0.0380
11831TIP3    H156908   6.332   5.313   1.168  1.7857 -0.9312  1.3691
11831TIP3    H256909   6.355   5.164   1.188 -0.0374 -1.7919 -2.1298
11832TIP3   OH256910   6.577   6.711   1.335 -0.2432 -0.1012  0.5511
11832TIP3    H156911   6.525   6.691   1.257 -0.2778 -0.9389  0.7786
11832TIP3    H256912   6.582   6.628   1.382 -0.3488  0.4266  1.5182
11833TIP3   OH256913   2.613   5.653  16.639  0.1937  0.2088 -0.3470
11833TIP3    H156914   2.626   5.745  16.615  0.9976  0.9832  2.5990
11833TIP3    H256915   2.702   5.616  16.640  0.0328 -0.1694  0.0347
11834TIP3   OH256916   2.265   5.529   5.936  0.5127 -0.4324  0.0161
11834TIP3    H156917   2.267   5.621   5.963  0.3990 -0.5978  0.6171
11834TIP3    H256918   2.329   5.487   5.994 -0.6412 -1.0215  0.9014
11835TIP3   OH256919   4.099   2.270   2.435  0.2614 -0.4061 -0.4797
11835TIP3    H156920   4.102   2.364   2.451  0.5638 -0.3685 -0.7610
11835TIP3    H256921   4.161   2.255   2.364  1.0289 -0.9717  0.2926
11836TIP3   OH256922   3.248   4.050  16.979  0.2182  0.4539  0.1642
11836TIP3    H156923   3.328   4.029  16.932 -0.2129 -0.8819 -0.0266
11836TIP3    H256924   3.248   3.990  17.054 -1.0757 -0.3029 -0.4004
11837TIP3   OH256925   3.708   2.923   4.539  0.1118  0.3390 -0.6408
11837TIP3    H156926   3.698   2.880   4.455 -1.5198  0.4544 -0.5284
11837TIP3    H256927   3.639   2.989   4.542 -0.8055 -0.5975  1.3294
11838TIP3   OH256928   3.084   2.732  14.349 -0.0499 -0.2496  0.1265
11838TIP3    H156929   3.001   2.742  14.301  0.6490 -0.5477 -1.1944
11838TIP3    H256930   3.076   2.648  14.393 -0.1514 -0.6570 -0.6465
11839TIP3   OH256931   6.367   0.324   1.966  0.2466 -0.1783 -0.2389
11839TIP3    H156932   6.385   0.408   2.009  0.8693  0.0335 -0.8890
11839TIP3    H256933   6.392   0.338   1.875 -1.0942 -0.6088 -0.6864
11840TIP3   OH256934   2.125   2.433  10.904  0.0779  0.3634  0.3093
11840TIP3    H156935   2.043   2.472  10.935 -0.1627  1.3694 -1.4876
11840TIP3    H256936   2.098   2.367  10.840  0.6115 -1.0065  1.4418
11841TIP3   OH256937   4.042   2.708  14.428  0.1962 -0.4281 -0.0460
11841TIP3    H156938   3.984   2.781  14.447  1.7500  0.7260  0.4194
11841TIP3    H256939   4.006   2.635  14.479 -0.7835  0.2760  0.2965
11842TIP3   OH256940   0.105   0.156   0.138  0.8310  0.6535  0.2820
11842TIP3    H156941   0.121   0.200   0.055 -3.0477  0.3268 -0.8503
11842TIP3    H256942   0.084   0.066   0.114 -0.3441  0.5393  1.5635
11843TIP3   OH256943   3.957   3.464   5.757  0.3070  0.1324 -0.9879
11843TIP3    H156944   4.021   3.535   5.749 -0.1960  0.6269 -0.7273
11843TIP3    H256945   3.971   3.410   5.679  0.3777  0.7930 -1.4417
11844TIP3   OH256946   0.519   5.001  11.564 -0.0481 -0.4811 -0.6868
11844TIP3    H156947   0.547   5.068  11.626  0.1069 -1.9556  0.9156
11844TIP3    H256948   0.560   5.025  11.482  1.5557  0.3360  0.3126
11845TIP3   OH256949   0.961   0.203   0.797  0.4297 -0.1840 -0.3894
11845TIP3    H156950   0.922   0.217   0.710  0.4278 -1.6770 -0.6582
11845TIP3    H256951   1.027   0.272   0.804 -0.6472  0.9546 -0.8932
11846TIP3   OH256952   0.501   0.626   1.952  0.0256 -1.0627 -0.2842
11846TIP3    H156953   0.409   0.623   1.925 -0.6884  0.8452  1.5927
11846TIP3    H256954   0.513   0.548   2.005 -0.9173 -0.6975  0.5056
11847TIP3   OH256955   3.700   4.033  14.363 -0.8040 -0.0905 -0.4149
11847TIP3    H156956   3.714   3.960  14.424 -1.0419  0.4131  0.2571
11847TIP3    H256957   3.715   3.995  14.277  0.4284 -0.6031  0.0066
11848TIP3   OH256958   4.815   3.138  16.274  0.1855 -0.0939 -0.0296
11848TIP3    H156959   4.734   3.146  16.224 -0.6033  0.0904  1.2483
11848TIP3    H256960   4.882   3.119  16.208 -0.8566 -0.0636 -1.1233
11849TIP3   OH256961   2.310   0.511   1.991 -0.2216  0.3260  0.0853
11849TIP3    H156962   2.279   0.576   1.928 -0.2382 -0.9815 -1.3540
11849TIP3    H256963   2.390   0.548   2.027 -1.8539  2.4928  1.7062
11850TIP3   OH256964   4.674   1.028   3.741 -0.1240  0.3603  0.9295
11850TIP3    H156965   4.616   1.088   3.787 -1.2800 -1.3150  1.7844
11850TIP3    H256966   4.747   1.082   3.712 -1.6422  2.3529  0.6513
11851TIP3   OH256967   5.113   1.862   2.713 -0.3442 -0.2544  0.3705
11851TIP3    H156968   5.100   1.767   2.703  0.5191 -0.5601  1.8432
11851TIP3    H256969   5.207   1.875   2.701 -0.7140  0.7842 -2.0742
11852TIP3   OH256970   2.451   0.211   5.720  0.0250  0.2010 -0.7354
11852TIP3    H156971   2.473   0.210   5.813  0.2894  1.8393 -0.7387
11852TIP3    H256972   2.373   0.156   5.712 -1.0708  1.4707  0.7605
11853TIP3   OH256973   3.963   6.221  11.250  0.4129 -0.4642  0.0282
11853TIP3    H156974   4.029   6.290  11.243 -0.7620  0.6600 -0.3465
11853TIP3    H256975   4.013   6.141  11.264  1.8234  0.4412  0.3447
11854TIP3   OH256976   0.315   5.954  11.846 -0.0718 -0.3265 -0.6131
11854TIP3    H156977   0.337   5.964  11.754 -0.4386 -1.3309 -0.8226
11854TIP3    H256978   0.375   6.013  11.892 -1.0803  1.5567 -1.5965
11855TIP3   OH256979   2.728   4.435   4.192  0.7195 -0.3866 -0.0308
11855TIP3    H156980   2.669   4.447   4.116 -0.4342  1.6762  1.0851
11855TIP3    H256981   2.760   4.524   4.210  0.4745 -0.7244  2.2526
11856TIP3   OH256982   0.691   0.690  10.988 -0.0539  0.4616 -0.3540
11856TIP3    H156983   0.717   0.673  10.898  0.3016 -1.8872  0.1367
11856TIP3    H256984   0.598   0.713  10.982 -0.1196  0.0011 -1.2938
11857TIP3   OH256985   0.896   5.563  15.412  0.0640  0.2409 -0.4959
11857TIP3    H156986   0.984   5.554  15.375 -0.4080  0.1741 -1.6397
11857TIP3    H256987   0.911   5.578  15.506  1.3540  1.6927 -0.8834
11858TIP3   OH256988   2.366   3.751  11.851 -0.5324  0.1223  0.4501
11858TIP3    H156989   2.372   3.678  11.913 -0.5919  0.7064  1.1666
11858TIP3    H256990   2.457   3.765  11.822 -0.4744 -0.0343  0.5566
11859TIP3   OH256991   0.504   5.925  10.550 -0.0059 -0.2526  0.0180
11859TIP3    H156992   0.582   5.912  10.496  2.3649  2.2355  2.5144
11859TIP3    H256993   0.506   5.852  10.612  1.0360  0.3273  0.7157
11860TIP3   OH256994   3.736   4.926  16.560 -0.3694  0.2250  0.5384
11860TIP3    H156995   3.704   4.947  16.472  0.6666  0.6882  0.2645
11860TIP3    H256996   3.708   4.835  16.574  0.1364 -0.1283 -0.5904
11861TIP3   OH256997   0.187   6.718  15.490  0.2312 -0.2280  0.6607
11861TIP3    H156998   0.257   6.782  15.506 -0.4914  1.2548 -1.6535
11861TIP3    H256999   0.116   6.745  15.548 -0.3407  1.6114 -0.8196
11862TIP3   OH257000   4.061   6.289   4.966  0.2643 -0.0302  0.6355
11862TIP3    H157001   4.029   6.248   5.046  0.5849 -1.1319  0.2117
11862TIP3    H257002   3.987   6.339   4.933 -0.2861 -0.6512  0.9152
11863TIP3   OH257003   3.376   6.688  14.294  0.0629 -0.4640 -0.1447
11863TIP3    H157004   3.459   6.708  14.251 -1.2015  0.1919 -2.4711
11863TIP3    H257005   3.400   6.645  14.376  2.6607 -2.6624 -1.9076
11864TIP3   OH257006   4.453   6.698  11.410 -0.2599  0.1155 -0.1752
11864TIP3    H157007   4.407   6.781  11.425 -1.6098 -0.6076 -0.1174
11864TIP3    H257008   4.541   6.714  11.443  0.3180  2.3242 -2.4826
11865TIP3   OH257009   0.470   5.456  15.432 -0.6873 -0.3099 -0.0556
11865TIP3    H157010   0.525   5.503  15.494 -2.8409  1.2539  0.7909
11865TIP3    H257011   0.520   5.377  15.410  1.6069  0.7550  1.0272
11866TIP3   OH257012   1.289   4.654  12.873  0.3418 -0.2422  0.0504
11866TIP3    H157013   1.232   4.621  12.942 -0.4855  1.9272  0.4779
11866TIP3    H257014   1.234   4.655  12.795 -0.2591  1.8265  0.4574
11867TIP3   OH257015   6.631   5.542   3.116 -0.0078 -0.2086 -0.3133
11867TIP3    H157016   6.633   5.512   3.207  1.7102  0.7525  0.0270
11867TIP3    H257017   6.723   5.544   3.090 -0.3981  0.4741 -1.7459
11868TIP3   OH257018   3.707   2.734  14.369 -0.1975 -0.0853  0.5733
11868TIP3    H157019   3.766   2.808  14.355 -0.6838  0.3683  0.8674
11868TIP3    H257020   3.754   2.679  14.432 -0.0811  0.2676  0.8005
11869TIP3   OH257021   3.721   3.315  11.123 -0.0857  0.2359 -0.4414
11869TIP3    H157022   3.652   3.285  11.065  0.8549 -0.4640 -1.2422
11869TIP3    H257023   3.799   3.319  11.067  0.2896  2.1450  0.1401
11870TIP3   OH257024   3.702   2.761   0.321  0.1185 -0.0959  0.2377
11870TIP3    H157025   3.715   2.679   0.370 -1.1649  0.4188  1.4967
11870TIP3    H257026   3.626   2.743   0.266 -0.1299  0.2196  0.4755
11871TIP3   OH257027   0.786   3.003  11.157 -0.6713  0.3922 -0.6778
11871TIP3    H157028   0.837   3.035  11.232 -0.6136  0.6474 -0.8238
11871TIP3    H257029   0.729   3.077  11.134  0.2584  0.8009 -1.7384
11872TIP3   OH257030   1.546   3.704   5.164 -0.1769 -0.5313  0.1442
11872TIP3    H157031   1.533   3.674   5.255 -0.6053 -0.1650  0.2046
11872TIP3    H257032   1.630   3.749   5.166  0.3721 -1.5136  0.1044
11873TIP3   OH257033   5.142   3.643   5.329  0.5404  0.0943 -0.5844
11873TIP3    H157034   5.186   3.617   5.409  1.2592  1.5983 -0.4572
11873TIP3    H257035   5.081   3.571   5.311  1.5398 -1.0521  0.3778
11874TIP3   OH257036   2.675   0.348  16.086 -0.1742  0.0151 -0.1615
11874TIP3    H157037   2.679   0.427  16.140 -0.9106 -1.1905  1.7773
11874TIP3    H257038   2.614   0.370  16.016  0.0854  1.3492  0.0054
11875TIP3   OH257039   5.729   4.358  16.274  0.0053  0.6959 -0.3233
11875TIP3    H157040   5.686   4.312  16.346  0.6614  2.6131  1.3648
11875TIP3    H257041   5.700   4.449  16.282  3.9373  2.0626  0.7353
11876TIP3   OH257042   2.142   3.000  14.529  0.0236  0.4877  0.2806
11876TIP3    H157043   2.072   2.937  14.510 -0.4576  0.9425  0.5116
11876TIP3    H257044   2.130   3.021  14.622 -0.1783  1.3464  0.0687
11877TIP3   OH257045   6.321   4.529  10.800  0.1271 -0.2613  0.2179
11877TIP3    H157046   6.399   4.541  10.746  0.1441  1.7022  0.5868
11877TIP3    H257047   6.354   4.492  10.882  0.9596  1.8637  0.9227
11878TIP3   OH257048   4.132   1.486  15.901 -0.1492  0.8535  0.3642
11878TIP3    H157049   4.169   1.556  15.954 -0.7770  0.6484  1.0864
11878TIP3    H257050   4.045   1.471  15.938  0.0804 -0.5030  0.4101
11879TIP3   OH257051   5.683   1.397  13.417  0.3283 -0.0683  0.3566
11879TIP3    H157052   5.637   1.480  13.405 -0.9981 -0.7983  0.3129
11879TIP3    H257053   5.626   1.344  13.472  1.2698 -0.8762  0.5937
11880TIP3   OH257054   5.560   0.135   0.585  0.0330  0.5955 -0.3662
11880TIP3    H157055   5.472   0.165   0.563 -0.5379 -1.7323 -1.5668
11880TIP3    H257056   5.551   0.099   0.673 -0.4370 -0.3969 -0.8109
11881TIP3   OH257057   0.675   5.077   4.652 -0.0284 -0.1648 -0.2989
11881TIP3    H157058   0.730   5.013   4.698 -1.5206 -1.3928 -0.1119
11881TIP3    H257059   0.685   5.158   4.703  2.6035  0.0802 -1.0566
11882TIP3   OH257060   3.987   5.986   2.605 -0.0944 -0.0547 -0.8024
11882TIP3    H157061   3.927   5.914   2.623  0.0183 -0.4288 -1.9026
11882TIP3    H257062   4.044   5.989   2.682 -1.3968  0.2124  0.1926
11883TIP3   OH257063   0.283   6.265  11.460 -0.5937  0.1376  0.4480
11883TIP3    H157064   0.251   6.263  11.550  0.6985 -0.2359  0.9143
11883TIP3    H257065   0.292   6.173  11.435 -0.3846  0.2405  0.1337
11884TIP3   OH257066   0.483   5.362  10.683  0.3127  0.4626 -0.2289
11884TIP3    H157067   0.514   5.322  10.764  0.5043 -1.2404 -1.1013
11884TIP3    H257068   0.389   5.377  10.699  0.0302 -1.1944 -0.1721
11885TIP3   OH257069   1.085   6.680  14.792  0.3834  0.3748  0.1126
11885TIP3    H157070   1.082   6.590  14.824  0.7513 -0.4591 -2.0206
11885TIP3    H257071   1.038   6.677  14.708  1.9302  1.7552 -0.8656
11886TIP3   OH257072   1.848   0.472   2.113 -0.6107 -0.1525  0.2405
11886TIP3    H157073   1.936   0.442   2.134 -0.1348  2.3485  2.3897
11886TIP3    H257074   1.791   0.416   2.166 -0.4217 -2.0788 -1.5029
11887TIP3   OH257075   5.168   5.953  15.173 -0.5996  0.7929  0.1671
11887TIP3    H157076   5.162   6.041  15.211 -1.4198  1.2019 -0.8710
11887TIP3    H257077   5.214   5.966  15.090  2.9424 -0.3738  1.7515
11888TIP3   OH257078   2.717   2.662   2.878 -0.0517 -0.0688 -0.3300
11888TIP3    H157079   2.684   2.718   2.948  1.8584 -1.9349  2.2581
11888TIP3    H257080   2.639   2.627   2.836 -1.2664  1.5602  0.4498
11889TIP3   OH257081   1.599   0.880   4.207  0.3529 -0.1892  0.4123
11889TIP3    H157082   1.612   0.887   4.113 -3.7794  1.6414 -0.2757
11889TIP3    H257083   1.618   0.789   4.228  1.9494 -0.5025 -2.0162
11890TIP3   OH257084   2.615   4.023   5.224 -0.1130 -0.2824 -0.0934
11890TIP3    H157085   2.622   4.061   5.136 -0.9581 -0.4056 -0.2228
11890TIP3    H257086   2.521   4.009   5.237  0.1292 -1.9527  0.1084
11891TIP3   OH257087   5.615   4.949   0.085 -0.1528  0.1420  0.2169
11891TIP3    H157088   5.656   4.976   0.003  0.5602  1.3336  0.9351
11891TIP3    H257089   5.656   4.865   0.105 -1.0007 -0.6160 -1.0810
11892TIP3   OH257090   4.370   2.760   3.338  0.5824 -0.0790 -0.4729
11892TIP3    H157091   4.293   2.801   3.377 -0.9504 -1.6128 -1.7475
11892TIP3    H257092   4.434   2.832   3.331 -1.0790  1.4834 -0.2984
11893TIP3   OH257093   3.164   5.301  12.644  0.2383 -0.0882  0.0817
11893TIP3    H157094   3.116   5.219  12.631 -0.9977  0.5372  0.5768
11893TIP3    H257095   3.115   5.366  12.594 -0.2198  0.8283  1.6494
11894TIP3   OH257096   3.700   5.124  13.508 -0.2693  0.9442 -0.1349
11894TIP3    H157097   3.699   5.063  13.435  2.6998 -0.3102  0.7086
11894TIP3    H257098   3.653   5.079  13.578  1.5007 -0.2834  0.3340
11895TIP3   OH257099   2.073   1.182   0.735 -0.8565  0.5080 -0.1481
11895TIP3    H157100   2.058   1.259   0.789 -2.1113  0.1910 -0.0115
11895TIP3    H257101   1.985   1.153   0.710 -0.3549 -0.2010 -1.1502
11896TIP3   OH257102   5.630   3.034   3.970  0.0175 -0.6392 -0.5117
11896TIP3    H157103   5.719   3.041   3.936 -0.4189 -0.4566 -1.6632
11896TIP3    H257104   5.629   2.951   4.018  1.3675  0.3293  1.3242
11897TIP3   OH257105   4.263   2.637   3.093  0.1139 -0.3428  0.4988
11897TIP3    H157106   4.329   2.687   3.142 -0.3172 -0.2582  0.9973
11897TIP3    H257107   4.190   2.697   3.083  0.4916 -0.0862 -0.9508
11898TIP3   OH257108   6.221   1.607  11.769  0.9162  0.3911  0.2646
11898TIP3    H157109   6.314   1.590  11.784  0.8686 -0.8841 -0.6935
11898TIP3    H257110   6.203   1.687  11.817  2.2805  0.1116  1.2969
11899TIP3   OH257111   1.441   4.981   4.066 -0.5481 -0.2450  0.7210
11899TIP3    H157112   1.371   4.993   4.131 -3.4225 -0.5642 -2.0694
11899TIP3    H257113   1.421   5.044   3.997  0.5781 -1.9320 -1.2640
11900TIP3   OH257114   0.644   2.185   3.369  0.1774  0.2667  0.1761
11900TIP3    H157115   0.595   2.157   3.447 -0.7506 -0.1408 -0.5339
11900TIP3    H257116   0.576   2.212   3.307  0.3889 -4.3592 -2.5076
11901TIP3   OH257117   2.848   0.163  16.562  0.8039 -0.0002 -0.0125
11901TIP3    H157118   2.797   0.145  16.641  1.1852 -1.1018 -0.0017
11901TIP3    H257119   2.821   0.095  16.500 -0.0997  1.3195 -1.1448
11902TIP3   OH257120   5.164   3.226   2.135 -0.2459  0.1634  0.1129
11902TIP3    H157121   5.221   3.266   2.201  1.6942  1.2833 -2.1068
11902TIP3    H257122   5.076   3.257   2.158  0.1937 -0.2832  2.6940
11903TIP3   OH257123   5.986   5.431  11.708 -0.2687 -0.7175 -0.3218
11903TIP3    H157124   5.922   5.466  11.770  0.0088 -0.3437 -0.2435
11903TIP3    H257125   5.964   5.473  11.625  0.3857  0.0593 -0.1184
11904TIP3   OH257126   2.675   3.254   0.926  0.0453  0.0886  0.1451
11904TIP3    H157127   2.736   3.326   0.943  0.1050 -0.1285  0.8665
11904TIP3    H257128   2.613   3.257   0.999 -0.8952  0.3774 -0.6286
11905TIP3   OH257129   4.696   6.319   1.078  0.1405 -0.5089 -0.0351
11905TIP3    H157130   4.773   6.336   1.133  0.8904  0.2759 -1.2792
11905TIP3    H257131   4.664   6.406   1.054 -1.7814 -0.7897  1.2696
11906TIP3   OH257132   1.032   5.068   2.157  0.1929  0.2083 -0.3032
11906TIP3    H157133   1.060   5.092   2.069 -1.8393 -1.1080 -1.4095
11906TIP3    H257134   0.966   5.133   2.180  0.1746  0.1128 -0.0814
11907TIP3   OH257135   1.884   5.120   5.539 -0.0005 -0.0762 -0.3280
11907TIP3    H157136   1.867   5.186   5.472 -1.7375 -1.4696 -1.3567
11907TIP3    H257137   1.800   5.075   5.550  0.2076  0.0464  2.7807
11908TIP3   OH257138   6.541   3.433  11.748 -0.5327  0.5890 -0.1591
11908TIP3    H157139   6.551   3.402  11.838 -0.8860  3.9979  1.1791
11908TIP3    H257140   6.448   3.425  11.730 -0.5221  0.2869 -0.0862
11909TIP3   OH257141   0.159   1.699   0.646 -0.1255 -0.2327 -0.0359
11909TIP3    H157142   0.208   1.652   0.578 -0.8989  0.4809 -1.1263
11909TIP3    H257143   0.212   1.776   0.666  0.2476 -0.5976  0.3979
11910TIP3   OH257144   0.839   0.639  10.102  0.5557  0.0228 -0.3820
11910TIP3    H157145   0.824   0.707  10.036  1.3760  1.3845  0.7836
11910TIP3    H257146   0.910   0.585  10.065  0.1736  0.0315 -1.1410
11911TIP3   OH257147   5.282   3.516   2.144 -0.0308  0.3697 -0.1847
11911TIP3    H157148   5.225   3.541   2.071  0.2979  0.1429 -0.5216
11911TIP3    H257149   5.287   3.594   2.199  0.4954  0.8507 -0.9118
11912TIP3   OH257150   5.163   3.641   5.993  0.7433  0.5251  0.1382
11912TIP3    H157151   5.198   3.556   5.966  4.3473  1.5474  1.0341
11912TIP3    H257152   5.142   3.629   6.086  0.1036  0.3115 -0.0309
11913TIP3   OH257153   0.249   0.186  16.290  0.0243  0.2161 -0.9056
11913TIP3    H157154   0.292   0.105  16.263  0.3985  0.7808 -2.0650
11913TIP3    H257155   0.317   0.232  16.340 -0.3782 -0.4278  0.2678
11914TIP3   OH257156   4.397   0.617  11.583  0.1593  0.2844  0.3557
11914TIP3    H157157   4.464   0.656  11.639  1.7036 -0.8361 -0.6482
11914TIP3    H257158   4.405   0.523  11.599 -1.3640  0.1224  0.3775
11915TIP3   OH257159   0.487   0.614   6.570  0.2407  0.1375 -0.5662
11915TIP3    H157160   0.556   0.607   6.637 -1.6486 -2.9868  1.3068
11915TIP3    H257161   0.422   0.672   6.610  0.9866  1.8148 -1.6722
11916TIP3   OH257162   3.351   4.628  14.196  0.4957  0.6596  0.0528
11916TIP3    H157163   3.409   4.683  14.249  2.5374  0.4281 -1.8222
11916TIP3    H257164   3.363   4.540  14.231  1.9048  0.4939 -0.7724
11917TIP3   OH257165   3.109   0.277  17.199  0.1827 -0.2109  0.0835
11917TIP3    H157166   3.201   0.284  17.224 -0.1412  0.2448  1.2104
11917TIP3    H257167   3.110   0.272  17.103  1.3613 -0.0554  0.0785
11918TIP3   OH257168   3.983   1.408  11.866 -0.0500 -0.4137  0.7908
11918TIP3    H157169   4.068   1.425  11.908  0.7986 -0.6254 -0.7539
11918TIP3    H257170   3.962   1.317  11.890  0.9375 -0.8860 -0.0329
11919TIP3   OH257171   3.563   2.192  13.956  0.4884  0.5633 -0.6467
11919TIP3    H157172   3.490   2.166  13.899 -1.0536 -0.0263  1.4527
11919TIP3    H257173   3.597   2.272  13.917 -2.7700  2.1500 -0.5775
11920TIP3   OH257174   1.641   2.387  13.077 -0.7403 -0.2950  0.0896
11920TIP3    H157175   1.571   2.444  13.109 -0.3701  0.5693 -0.5976
11920TIP3    H257176   1.690   2.363  13.156 -0.6112  0.7508  0.3458
11921TIP3   OH257177   3.597   3.372  11.514  0.0527 -0.0528  0.0899
11921TIP3    H157178   3.560   3.433  11.450  1.8917  1.2020  0.1128
11921TIP3    H257179   3.641   3.305  11.461 -0.7640 -0.5708  0.0602
11922TIP3   OH257180   1.271   0.629  16.287 -0.0720 -0.4010 -0.1482
11922TIP3    H157181   1.189   0.675  16.305  1.9788  3.4801  0.2972
11922TIP3    H257182   1.324   0.643  16.366  1.8404 -0.8089 -1.2905
11923TIP3   OH257183   2.047   4.506  16.209  0.0392 -0.0904  0.2772
11923TIP3    H157184   2.104   4.535  16.281  0.4791  0.5565 -0.3112
11923TIP3    H257185   2.080   4.554  16.133  0.1837 -1.4549 -0.5579
11924TIP3   OH257186   1.642   0.907  13.445 -0.7003  0.2856 -0.8233
11924TIP3    H157187   1.601   0.969  13.385 -3.6521 -0.0331  0.6935
11924TIP3    H257188   1.617   0.821  13.412 -1.1265  0.0762  0.0238
11925TIP3   OH257189   0.758   1.252   2.986 -0.6909  0.1273 -0.0634
11925TIP3    H157190   0.763   1.329   2.928 -1.1610 -0.6248 -1.1368
11925TIP3    H257191   0.682   1.203   2.954 -0.4615 -0.7371  0.6744
11926TIP3   OH257192   4.587   6.569  12.151  0.2985  0.2663  0.0700
11926TIP3    H157193   4.633   6.499  12.198 -2.5220 -0.9279  1.2835
11926TIP3    H257194   4.547   6.526  12.076 -1.1749  0.6131  0.6297
11927TIP3   OH257195   4.611   2.949   3.734  0.1246 -0.6413  0.4648
11927TIP3    H157196   4.581   2.989   3.815  1.3793  1.2943  0.0514
11927TIP3    H257197   4.706   2.946   3.743  0.4355  0.9703 -1.4509
11928TIP3   OH257198   3.801   0.781  17.090 -0.2958 -0.1601 -0.2050
11928TIP3    H157199   3.803   0.687  17.078  0.0813 -0.3229  1.0228
11928TIP3    H257200   3.870   0.799  17.154 -0.5957  0.9003 -0.1593
11929TIP3   OH257201   1.747   3.824  14.910 -0.5564 -0.0413  0.6371
11929TIP3    H157202   1.774   3.734  14.928  0.2135  0.1899  0.6703
11929TIP3    H257203   1.670   3.836  14.965 -0.2790 -0.4741  1.1395
11930TIP3   OH257204   5.539   1.635  13.377 -0.0822  0.8923  0.2951
11930TIP3    H157205   5.555   1.656  13.285  0.7389  1.9906  0.6728
11930TIP3    H257206   5.447   1.659  13.390  0.2141  2.1870  0.1335
11931TIP3   OH257207   6.359   4.889   0.426 -0.7394  0.0885 -0.0559
11931TIP3    H157208   6.429   4.824   0.414 -0.0759  0.9193 -0.8524
11931TIP3    H257209   6.388   4.965   0.375 -2.8977 -0.0395 -1.6057
11932TIP3   OH257210   4.831   0.446  11.915 -0.1850 -0.0470  0.0168
11932TIP3    H157211   4.925   0.445  11.938 -0.0911  1.3541 -0.2227
11932TIP3    H257212   4.787   0.424  11.997  0.2462  2.6720  1.0817
11933TIP3   OH257213   5.571   5.395  14.589  0.3976  0.4010 -0.2950
11933TIP3    H157214   5.485   5.356  14.601 -0.1604  1.3924 -0.9601
11933TIP3    H257215   5.617   5.335  14.530 -0.2386  0.4378 -0.8336
11934TIP3   OH257216   6.299   4.332   0.308  0.4647 -0.3815 -0.1896
11934TIP3    H157217   6.222   4.296   0.264  0.5459 -0.8805  0.0632
11934TIP3    H257218   6.266   4.362   0.393  0.7722 -1.8030  0.4630
11935TIP3   OH257219   4.700   2.585   2.598 -0.6939  0.1900  0.4572
11935TIP3    H157220   4.652   2.523   2.544  0.2739  0.4780 -0.7937
11935TIP3    H257221   4.733   2.533   2.672 -0.6326 -0.5858 -0.1077
11936TIP3   OH257222   0.380   5.495  14.469  0.5195 -0.5233  0.4840
11936TIP3    H157223   0.427   5.493  14.553  1.3747 -0.0254  0.0237
11936TIP3    H257224   0.327   5.575  14.474  0.7643 -0.3564  0.4519
11937TIP3   OH257225   2.678   3.057  16.991 -0.1013  0.6388 -0.5060
11937TIP3    H157226   2.744   3.087  17.054 -1.3875 -0.5224  1.5185
11937TIP3    H257227   2.610   3.124  16.995  0.0167  0.7966 -1.0454
11938TIP3   OH257228   3.168   3.083   2.862  0.3321 -0.5279 -0.4144
11938TIP3    H157229   3.101   3.058   2.926  0.6830  0.7122  0.4880
11938TIP3    H257230   3.187   3.175   2.882  0.6367 -0.1757 -2.1672
11939TIP3   OH257231   3.240   3.604  11.456  0.1524  0.0401 -0.5371
11939TIP3    H157232   3.278   3.544  11.520  2.0763  2.1015  0.3899
11939TIP3    H257233   3.246   3.557  11.373  1.2275 -1.2050  0.2023
11940TIP3   OH257234   6.025   5.344   0.994  0.4943  0.3504  0.4569
11940TIP3    H157235   6.016   5.303   1.080  2.2699  0.8846  0.9436
11940TIP3    H257236   6.028   5.438   1.012  0.8016  0.4709 -0.1837
11941TIP3   OH257237   5.269   2.581   2.098 -0.0013  0.2578  0.9969
11941TIP3    H157238   5.176   2.601   2.107  0.1119  0.6918  1.2287
11941TIP3    H257239   5.291   2.534   2.178 -0.2528 -0.7738  0.4797
11942TIP3   OH257240   0.297   4.501  12.961 -0.3680  0.1597 -0.2616
11942TIP3    H157241   0.385   4.531  12.981 -0.9217  0.3978  2.2145
11942TIP3    H257242   0.249   4.580  12.937 -0.0131  0.0680 -1.3364
11943TIP3   OH257243   5.447   0.757   3.805  0.2956 -0.0144 -0.0592
11943TIP3    H157244   5.538   0.748   3.776  0.3525  0.3326  0.0136
11943TIP3    H257245   5.420   0.667   3.825  0.5483 -0.1455 -0.3009
11944TIP3   OH257246   2.221   1.711  13.151 -0.0523 -0.0982 -0.1447
11944TIP3    H157247   2.132   1.693  13.119  0.1012 -1.5339  0.1772
11944TIP3    H257248   2.258   1.769  13.085 -0.2205 -1.8822 -1.9113
11945TIP3   OH257249   2.450   5.859   2.804 -0.0981 -0.0268  0.0597
11945TIP3    H157250   2.389   5.931   2.819  0.6774  0.7125 -0.3251
11945TIP3    H257251   2.402   5.781   2.835 -1.0623  0.5938  0.1714
11946TIP3   OH257252   6.015   1.982  12.185  0.6181  0.7002  0.2536
11946TIP3    H157253   6.032   2.076  12.191 -1.0603  1.0315  0.2250
11946TIP3    H257254   6.023   1.950  12.275  2.3054  0.6269  0.1137
11947TIP3   OH257255   5.121   3.942   1.697  0.8129 -0.5762 -0.5057
11947TIP3    H157256   5.189   4.009   1.710 -2.0325  2.1508  2.6048
11947TIP3    H257257   5.058   3.984   1.639 -0.2205 -1.2330  0.1190
11948TIP3   OH257258   5.705   2.716   4.498  0.3358 -0.1125 -0.2123
11948TIP3    H157259   5.725   2.701   4.590 -3.1346  1.5246  0.9966
11948TIP3    H257260   5.653   2.641   4.471  0.0323  0.1385 -0.3408
11949TIP3   OH257261   1.065   6.656   4.546 -0.9085 -0.1804  0.2068
11949TIP3    H157262   1.010   6.589   4.586 -2.3159  0.3220 -0.7843
11949TIP3    H257263   1.088   6.715   4.617  2.3092 -2.8133  1.6359
11950TIP3   OH257264   6.107   3.472  15.940 -0.0213 -0.0919  0.3963
11950TIP3    H157265   6.199   3.448  15.929 -0.0438  0.1423 -0.3708
11950TIP3    H257266   6.060   3.415  15.878 -0.7536 -2.3958  2.8616
11951TIP3   OH257267   6.572   0.396   1.746  0.2954 -0.1618 -0.2516
11951TIP3    H157268   6.488   0.436   1.726 -0.1355 -0.7810  0.2813
11951TIP3    H257269   6.635   0.468   1.739 -0.5765  0.8668  1.6711
11952TIP3   OH257270   4.134   3.618   3.718 -1.0180 -0.0626  0.4353
11952TIP3    H157271   4.101   3.677   3.650  0.5278  0.7308  0.3330
11952TIP3    H257272   4.105   3.656   3.800 -0.7650  0.3625  0.3288
11953TIP3   OH257273   3.392   3.683   1.995 -0.9909  0.5204  0.2876
11953TIP3    H157274   3.481   3.666   1.966 -0.8667  0.9826  0.3919
11953TIP3    H257275   3.365   3.761   1.947 -1.4874  0.1459 -0.0511
11954TIP3   OH257276   1.888   0.813  12.157 -0.0618 -0.5094  0.3930
11954TIP3    H157277   1.830   0.889  12.147 -1.4113 -1.6880 -1.1706
11954TIP3    H257278   1.835   0.748  12.202  0.1684 -1.4676 -0.6912
11955TIP3   OH257279   4.507   4.853  17.020  0.5032 -0.5146 -0.3576
11955TIP3    H157280   4.457   4.892  16.948 -0.0709  0.9363  0.7641
11955TIP3    H257281   4.589   4.904  17.022 -0.3006  0.8267  1.1937
11956TIP3   OH257282   1.445   2.536  14.002 -0.2399 -0.1976 -0.1147
11956TIP3    H157283   1.466   2.533  14.095  0.9416  0.4778 -0.3399
11956TIP3    H257284   1.367   2.481  13.993 -1.1501  0.7966  1.4579
11957TIP3   OH257285   2.204   1.031  16.538 -0.5525 -0.3536  0.1590
11957TIP3    H157286   2.165   1.054  16.454  0.7712 -1.0079 -0.6582
11957TIP3    H257287   2.273   1.097  16.551 -1.4192  0.3882  1.2690
11958TIP3   OH257288   3.232   3.181   6.084 -0.8376 -0.0424 -0.2857
11958TIP3    H157289   3.174   3.109   6.058  0.2553 -0.5239 -1.5433
11958TIP3    H257290   3.293   3.141   6.147  0.3488 -0.5134 -1.6725
11959TIP3   OH257291   0.041   2.322  13.904 -0.1358 -0.4072  0.1969
11959TIP3    H157292   0.094   2.340  13.981 -0.1046 -1.5272  0.4553
11959TIP3    H257293   0.102   2.279  13.843 -0.2632  0.0877 -0.2782
11960TIP3   OH257294   1.066   0.346   0.149 -0.4276 -0.3000 -0.1654
11960TIP3    H157295   1.055   0.418   0.086  0.3820 -0.0205 -0.0037
11960TIP3    H257296   1.039   0.384   0.233  0.3502 -0.0488 -0.0139
11961TIP3   OH257297   5.466   4.768  15.766 -0.3047  0.0874  0.3518
11961TIP3    H157298   5.445   4.820  15.689 -0.2078  1.0067  0.9247
11961TIP3    H257299   5.393   4.707  15.775 -0.1499 -0.2535 -0.6517
11962TIP3   OH257300   0.012   0.824   4.088  0.6820  0.6772 -0.2454
11962TIP3    H157301  -0.076   0.856   4.068  0.3642 -0.1530 -0.1745
11962TIP3    H257302  -0.000   0.735   4.120  1.2747  1.4352  2.4156
11963TIP3   OH257303   2.291   5.355   5.261 -0.3548 -0.7284  0.0946
11963TIP3    H157304   2.363   5.401   5.217  0.8731 -2.3391  0.3283
11963TIP3    H257305   2.258   5.418   5.325 -0.5301  0.7669 -1.3900
11964TIP3   OH257306   1.768   1.751  13.310  0.3772 -0.2091 -0.2700
11964TIP3    H157307   1.711   1.702  13.252  0.2058  0.9004 -1.0514
11964TIP3    H257308   1.854   1.709  13.300 -0.1103 -1.4220  0.3750
11965TIP3   OH257309   3.122   3.917  13.377 -0.1085  0.0228 -0.0877
11965TIP3    H157310   3.183   3.938  13.449  0.1923  1.5404 -0.7461
11965TIP3    H257311   3.173   3.860  13.319  0.5176  0.7881 -0.3229
11966TIP3   OH257312   5.369   6.306  10.973 -1.0398  0.2761 -0.6719
11966TIP3    H157313   5.391   6.323  10.881 -0.7454 -1.9982 -1.0819
11966TIP3    H257314   5.299   6.242  10.970 -0.0841 -0.9155  0.6610
11967TIP3   OH257315   1.020   4.842   0.446 -0.2390  0.2157  0.2255
11967TIP3    H157316   1.080   4.917   0.447  1.0396 -0.7688  0.3194
11967TIP3    H257317   0.949   4.868   0.505 -0.9971  2.2248 -1.4471
11968TIP3   OH257318   4.345   1.555   5.348  0.3282  0.1057  0.0372
11968TIP3    H157319   4.383   1.485   5.402 -0.5326 -0.1995  0.2542
11968TIP3    H257320   4.314   1.619   5.412  0.2418  0.2335 -0.1364
11969TIP3   OH257321   6.022   1.611  12.083 -0.0466  0.3859  0.4561
11969TIP3    H157322   6.107   1.579  12.113 -0.1886  0.9019  1.4476
11969TIP3    H257323   5.961   1.541  12.106  0.0635  0.1310 -0.0138
11970TIP3   OH257324   0.662   2.978  10.778 -0.1939 -0.2521  0.1772
11970TIP3    H157325   0.598   2.910  10.799 -1.3878  1.2965  1.9101
11970TIP3    H257326   0.745   2.942  10.808 -0.5300 -1.5362 -0.3557
11971TIP3   OH257327   2.143   4.552  11.208  0.5673 -0.2202 -0.4038
11971TIP3    H157328   2.170   4.611  11.278 -0.6133  0.5524 -0.5484
11971TIP3    H257329   2.165   4.600  11.127 -0.2541 -0.0207 -0.5227
11972TIP3   OH257330   2.249   1.896   0.662 -0.2346 -0.4643  0.5467
11972TIP3    H157331   2.277   1.841   0.589 -1.4913  0.0847 -0.3908
11972TIP3    H257332   2.304   1.869   0.736  1.0440 -1.0422 -0.5902
11973TIP3   OH257333   0.534   4.804   2.928  0.2680 -0.1550  0.4389
11973TIP3    H157334   0.473   4.757   2.870 -0.4920  0.3914  0.7787
11973TIP3    H257335   0.621   4.782   2.895  0.0133 -2.6664  1.1997
11974TIP3   OH257336   5.319   6.299  12.126 -0.2497  0.0943  0.3560
11974TIP3    H157337   5.255   6.228  12.123 -0.4541  0.2630  0.6879
11974TIP3    H257338   5.393   6.266  12.075 -0.0551 -0.6484  1.0950
11975TIP3   OH257339   6.481   5.135   6.307 -0.1052  0.1613  0.1220
11975TIP3    H157340   6.386   5.127   6.317 -0.2360  1.1475 -0.2680
11975TIP3    H257341   6.517   5.096   6.387 -0.9102  1.3845  1.1183
11976TIP3   OH257342   0.268   1.845   3.569  0.2796  0.0526 -0.1101
11976TIP3    H157343   0.333   1.833   3.638  1.6380  1.0176 -1.1727
11976TIP3    H257344   0.186   1.816   3.609  1.4396 -1.8578  1.0445
11977TIP3   OH257345   4.874   4.990  13.953 -0.0623 -0.0525  0.0889
11977TIP3    H157346   4.916   4.974  13.868 -0.2845  1.3676 -0.3170
11977TIP3    H257347   4.947   5.001  14.014  0.1026 -0.5970 -0.0016
11978TIP3   OH257348   6.556   0.294   2.470  0.5877 -0.1748 -0.2364
11978TIP3    H157349   6.516   0.221   2.517  0.1355  1.1047  1.4560
11978TIP3    H257350   6.497   0.310   2.396  0.7061 -1.4980 -0.6535
11979TIP3   OH257351   6.166   4.254   2.477  0.4277 -0.7364  0.4257
11979TIP3    H157352   6.084   4.304   2.476  1.1564  0.5067 -1.3092
11979TIP3    H257353   6.173   4.222   2.566 -1.4938 -0.1061  0.8544
11980TIP3   OH257354   1.006   1.503   3.087 -0.4925 -0.8219  0.2010
11980TIP3    H157355   0.932   1.460   3.046  0.5149 -0.7788 -1.7934
11980TIP3    H257356   1.059   1.535   3.014 -0.0593  1.8531  1.5495
11981TIP3   OH257357   5.377   0.770  15.327  0.0944  0.4190 -0.3045
11981TIP3    H157358   5.351   0.841  15.385 -1.0126  0.5175 -0.8948
11981TIP3    H257359   5.472   0.772  15.327  0.1030  0.6543  1.2040
11982TIP3   OH257360   4.643   2.501  17.071 -0.0826  0.6174 -0.4188
11982TIP3    H157361   4.716   2.562  17.086  0.1264  0.3152 -0.1909
11982TIP3    H257362   4.605   2.529  16.988  0.3700  0.7031 -0.6001
11983TIP3   OH257363   3.050   2.592  14.060  0.4577 -0.3089  0.0289
11983TIP3    H157364   3.082   2.512  14.019 -0.6171 -0.7003 -0.0958
11983TIP3    H257365   3.063   2.579  14.154 -1.6048 -1.5811  0.2228
11984TIP3   OH257366   6.186   0.633   3.233 -0.3005  0.2845  0.4274
11984TIP3    H157367   6.271   0.598   3.259 -0.6657 -1.8307 -0.9604
11984TIP3    H257368   6.131   0.624   3.311  0.0426 -0.8607  0.5514
11985TIP3   OH257369   1.653   5.522  16.985 -0.3292  0.1686 -0.3204
11985TIP3    H157370   1.569   5.516  16.940 -0.1549 -0.2275 -0.5919
11985TIP3    H257371   1.682   5.431  16.996  0.5131  0.3309 -1.0755
11986TIP3   OH257372   6.234   0.773  12.461 -0.0729 -0.6623  0.1387
11986TIP3    H157373   6.293   0.778  12.386  0.3713  0.6009  0.5589
11986TIP3    H257374   6.158   0.724  12.427 -0.3352  0.7428 -1.4453
11987TIP3   OH257375   3.999   4.486  12.978  0.0322  0.2809 -0.1791
11987TIP3    H157376   3.942   4.408  12.971  0.0892  0.0015  1.8721
11987TIP3    H257377   4.020   4.491  13.071  2.0780  1.3303 -0.6604
11988TIP3   OH257378   3.269   1.233  16.119  0.0020 -0.0666  0.0710
11988TIP3    H157379   3.219   1.167  16.168  0.3824 -0.2165  0.2591
11988TIP3    H257380   3.225   1.238  16.034  0.3512 -1.0266 -0.1812
11989TIP3   OH257381   2.313   0.340   3.845  0.9830 -0.3562  0.1677
11989TIP3    H157382   2.264   0.400   3.789  0.0257  0.1188  1.4741
11989TIP3    H257383   2.248   0.305   3.906  1.9549 -1.0164  0.8630
11990TIP3   OH257384   6.051   2.048   0.392  0.1314  0.3421 -0.0115
11990TIP3    H157385   6.076   2.102   0.317  2.0386  0.9351  0.9867
11990TIP3    H257386   6.132   2.006   0.419 -0.7548 -0.7503  1.0340
11991TIP3   OH257387   3.364   1.515  13.630  0.6607 -0.0220  0.6236
11991TIP3    H157388   3.439   1.535  13.575  0.2394  0.0044  0.0574
11991TIP3    H257389   3.353   1.420  13.623  0.0270  0.0937 -0.1031
11992TIP3   OH257390   5.710   3.800   2.784 -0.0091  0.1308 -0.3797
11992TIP3    H157391   5.721   3.742   2.859  1.4792  0.7000 -0.1240
11992TIP3    H257392   5.731   3.745   2.708  1.1896  0.2464 -0.1544
11993TIP3   OH257393   4.612   6.321  13.804 -0.3923  0.1759 -0.2154
11993TIP3    H157394   4.658   6.309  13.722 -0.6302 -0.7759 -0.2273
11993TIP3    H257395   4.535   6.373  13.781 -0.7697 -0.5843 -0.7195
11994TIP3   OH257396   3.207   4.106  15.969 -0.3408  0.0453 -0.2515
11994TIP3    H157397   3.229   4.122  16.061 -1.0231  0.5810 -0.1698
11994TIP3    H257398   3.151   4.181  15.945  3.2221  2.3123 -2.3471
11995TIP3   OH257399   3.332   1.661  11.234  0.7549  0.4510 -0.4070
11995TIP3    H157400   3.243   1.671  11.268  0.5835 -0.7475 -0.4376
11995TIP3    H257401   3.320   1.627  11.145  1.2285 -1.3878  0.1905
11996TIP3   OH257402   2.410   2.808   0.871  0.2387 -0.3702 -0.2334
11996TIP3    H157403   2.319   2.787   0.853  0.0337 -1.0479  1.3771
11996TIP3    H257404   2.426   2.891   0.826 -2.3781  1.9262  2.6539
11997TIP3   OH257405   0.235   0.136   0.691 -0.3287 -0.3227 -0.4900
11997TIP3    H157406   0.243   0.150   0.785  1.2725 -2.6299 -0.2187
11997TIP3    H257407   0.157   0.187   0.666  0.4053  2.0928  1.6456
11998TIP3   OH257408   1.757   4.608  13.154  0.1246  0.4431  0.5947
11998TIP3    H157409   1.690   4.640  13.094 -0.4943 -0.6717  0.6659
11998TIP3    H257410   1.739   4.515  13.164 -0.3552  0.7356  3.2213
11999TIP3   OH257411   3.836   4.477   4.095  0.3314  0.5743 -0.2066
11999TIP3    H157412   3.744   4.473   4.066 -0.0610  1.1401  0.9062
11999TIP3    H257413   3.843   4.563   4.137  1.1688  0.2122  0.4037
12000TIP3   OH257414   1.540   6.507  12.718 -0.4228  0.6533  0.4339
12000TIP3    H157415   1.600   6.503  12.792 -0.2903  0.7314  0.3317
12000TIP3    H257416   1.495   6.591  12.728 -0.7737  0.4368  0.7082
12001TIP3   OH257417   5.998   1.136  13.716 -0.0783  0.4055  0.4473
12001TIP3    H157418   6.036   1.143  13.803  1.1450  2.8780 -0.1925
12001TIP3    H257419   6.042   1.204  13.665 -2.4192  0.6158 -1.4828
12002TIP3   OH257420   5.991   3.963   3.068 -0.6917 -0.7362  0.3044
12002TIP3    H157421   6.080   3.981   3.036 -0.7979  0.8436  0.8250
12002TIP3    H257422   5.986   4.007   3.153 -1.9974 -0.6992  0.2348
12003TIP3   OH257423   3.224   4.075   4.641 -0.1212  0.0172 -0.0606
12003TIP3    H157424   3.269   4.035   4.715  0.2420  1.6419  0.6200
12003TIP3    H257425   3.277   4.151   4.618 -1.2233  0.5825 -0.8148
12004TIP3   OH257426   4.455   1.373   5.574  0.3958 -0.7544  0.0285
12004TIP3    H157427   4.542   1.369   5.534  0.4865 -1.0277  0.2502
12004TIP3    H257428   4.433   1.282   5.592  0.3801 -0.6342  0.6515
12005TIP3   OH257429   1.206   6.557   1.507  0.0239 -0.1368  0.5397
12005TIP3    H157430   1.290   6.514   1.489 -0.9799 -1.1130 -2.3814
12005TIP3    H257431   1.143   6.485   1.509 -0.6860  0.4382  3.9566
12006TIP3   OH257432   3.546   6.054  15.655  0.8615  0.1412  0.5716
12006TIP3    H157433   3.453   6.039  15.638  0.5168  3.6223 -1.6959
12006TIP3    H257434   3.584   5.966  15.657 -2.5235 -1.5020  2.7418
12007TIP3   OH257435   6.718   3.814  16.608 -0.1067  0.4699 -0.0523
12007TIP3    H157436   6.653   3.815  16.679  1.3500  1.1589  1.3540
12007TIP3    H257437   6.724   3.721  16.583  0.8199 -0.1722  2.2266
12008TIP3   OH257438   5.002   4.938  12.579 -0.5834 -0.3227  0.4475
12008TIP3    H157439   5.068   4.883  12.621 -0.0947 -0.3878 -0.3658
12008TIP3    H257440   4.965   4.882  12.510  2.1678  1.2382 -2.5671
12009TIP3   OH257441   0.175   4.847  14.806 -0.3500  0.0659 -0.1764
12009TIP3    H157442   0.164   4.935  14.842  1.7504  0.0989  0.5187
12009TIP3    H257443   0.230   4.802  14.870 -0.7012 -1.5142 -0.9329
12010TIP3   OH257444   3.966   1.192  12.943 -0.4760  0.0200  0.3624
12010TIP3    H157445   3.964   1.146  12.859  0.2378 -0.0372  0.3734
12010TIP3    H257446   3.882   1.238  12.947 -0.0959  0.8693 -0.8635
12011TIP3   OH257447   5.314   0.559  13.657 -0.0640 -0.3144 -0.0533
12011TIP3    H157448   5.406   0.585  13.664  0.3065 -0.4590 -3.0177
12011TIP3    H257449   5.270   0.638  13.626 -0.7782 -0.5460  0.3396
12012TIP3   OH257450   2.996   3.559  12.305 -0.4495 -0.1176  0.3711
12012TIP3    H157451   2.945   3.515  12.372 -0.6376  0.4455  0.6055
12012TIP3    H257452   3.051   3.620  12.353  0.7565 -1.0125  0.1492
12013TIP3   OH257453   3.426   3.126   5.832  0.1622 -0.2656  0.1643
12013TIP3    H157454   3.483   3.062   5.790  0.9869 -0.1827  1.1317
12013TIP3    H257455   3.477   3.161   5.904  0.1244  2.2387 -0.9078
12014TIP3   OH257456   0.926   4.084   5.818 -0.0629  0.1295 -0.1150
12014TIP3    H157457   0.851   4.121   5.772 -0.4419  0.3725  0.6826
12014TIP3    H257458   0.937   4.139   5.895  1.3504  0.4914 -0.5507
12015TIP3   OH257459   0.803   6.327   5.801 -0.6072 -0.7994  0.1343
12015TIP3    H157460   0.773   6.308   5.890 -0.3288 -0.1546  0.3658
12015TIP3    H257461   0.769   6.254   5.749 -0.8761 -1.1176  0.7439
12016TIP3   OH257462   4.675   6.748  15.696  0.8544  0.3705 -0.0726
12016TIP3    H157463   4.620   6.688  15.646  1.8360  0.1669 -0.9450
12016TIP3    H257464   4.656   6.728  15.787  0.1432 -0.3022 -0.3579
12017TIP3   OH257465   1.722   2.711   0.951  1.0354 -0.2849  0.5739
12017TIP3    H157466   1.713   2.802   0.977  0.8978  0.2020 -1.0301
12017TIP3    H257467   1.812   2.704   0.918  0.3913 -0.1266 -1.3280
12018TIP3   OH257468   4.808   5.126  14.624 -0.0997  0.3790  0.1844
12018TIP3    H157469   4.756   5.086  14.554  1.3978  1.1296 -1.4372
12018TIP3    H257470   4.744   5.147  14.692 -1.5478 -0.8108 -0.7448
12019TIP3   OH257471   2.622   2.904  11.821  0.3380  0.2201 -0.0314
12019TIP3    H157472   2.570   2.849  11.762 -0.7306  0.7571  0.3831
12019TIP3    H257473   2.666   2.966  11.763  0.3806 -0.1262 -0.3757
12020TIP3   OH257474   4.884   2.910  12.968 -0.4400  0.2576 -0.3910
12020TIP3    H157475   4.958   2.860  12.935 -1.1815 -0.9797 -0.2604
12020TIP3    H257476   4.812   2.847  12.973 -1.1601  1.1056  0.7101
12021TIP3   OH257477   3.743   4.186   3.700  0.1321  0.2514 -0.1377
12021TIP3    H157478   3.779   4.178   3.789 -0.2541 -1.8824 -0.1300
12021TIP3    H257479   3.785   4.116   3.650 -0.3108  0.8746 -1.4244
12022TIP3   OH257480   4.312   5.568  11.025 -0.5150 -0.3118 -0.3385
12022TIP3    H157481   4.344   5.658  11.021 -1.7106  0.1256 -0.7691
12022TIP3    H257482   4.385   5.514  10.995 -0.2722  0.6678 -1.5739
12023TIP3   OH257483   0.070   3.739   3.296 -0.4797 -0.0020  0.3574
12023TIP3    H157484   0.110   3.806   3.351 -0.2728 -0.1308  0.3632
12023TIP3    H257485   0.041   3.672   3.358 -1.7843  0.6380  0.4722
12024TIP3   OH257486   1.359   5.172  13.404 -0.0890 -0.0684  0.2574
12024TIP3    H157487   1.304   5.190  13.481  0.4778  1.0117  0.4313
12024TIP3    H257488   1.364   5.077  13.400 -2.0035 -0.2171  0.2126
12025TIP3   OH257489   3.872   1.618  13.865  0.3223 -0.3542 -0.2609
12025TIP3    H157490   3.813   1.631  13.790 -1.0171 -0.4552  0.7298
12025TIP3    H257491   3.944   1.565  13.830 -0.4613 -0.7145 -1.3934
12026TIP3   OH257492   5.891   4.361  13.254  0.0741  0.5053 -0.4096
12026TIP3    H157493   5.963   4.395  13.308 -0.1954 -0.3522  0.5163
12026TIP3    H257494   5.915   4.270  13.237 -0.3017  0.5069 -0.9547
12027TIP3   OH257495   2.252   0.385   5.969 -0.3210 -0.7982 -0.5364
12027TIP3    H157496   2.344   0.390   5.994 -0.2351 -1.0704 -0.7893
12027TIP3    H257497   2.253   0.403   5.874 -0.2489 -3.2197 -1.0526
12028TIP3   OH257498   0.483   3.659   5.447  0.6324  0.1380  0.7133
12028TIP3    H157499   0.437   3.606   5.512  1.1102 -0.4037  0.6129
12028TIP3    H257500   0.541   3.714   5.499  1.2533 -0.5266  0.7333
12029TIP3   OH257501   2.856   5.455   3.704 -0.2471 -0.0476  0.6514
12029TIP3    H157502   2.832   5.373   3.661  3.3674  0.2345 -2.4108
12029TIP3    H257503   2.804   5.522   3.658 -1.3055 -0.3117  1.4150
12030TIP3   OH257504   0.179   4.021  14.516 -0.5670  0.1924  0.2153
12030TIP3    H157505   0.236   3.978  14.580 -0.6448  1.4249  1.1547
12030TIP3    H257506   0.097   4.035  14.563 -1.9655 -2.1653 -1.3291
12031TIP3   OH257507   1.878   2.513   2.739 -0.0151  0.0259 -0.5088
12031TIP3    H157508   1.884   2.425   2.702 -0.7122 -0.3645  0.2899
12031TIP3    H257509   1.893   2.571   2.664  0.0493 -0.7581 -1.1219
12032TIP3   OH257510   0.923   1.869   5.972  0.5906 -0.0562  0.5355
12032TIP3    H157511   0.929   1.775   5.989  1.5319  0.0949  1.1499
12032TIP3    H257512   0.994   1.886   5.910  1.6853  0.5398  1.8896
12033TIP3   OH257513   0.935   3.042   3.871 -0.1706  0.5367  0.1633
12033TIP3    H157514   0.880   3.018   3.946 -0.1391  0.2978  0.1128
12033TIP3    H257515   1.004   2.975   3.871 -0.2149  0.4897 -0.1252
12034TIP3   OH257516   3.480   3.363  16.319 -0.0207 -0.1388  0.3931
12034TIP3    H157517   3.448   3.364  16.409  0.0567 -0.7264  0.4293
12034TIP3    H257518   3.483   3.455  16.294  0.8971  0.1099  1.3295
12035TIP3   OH257519   4.341   1.564  15.637 -0.2877 -0.0765 -0.1248
12035TIP3    H157520   4.310   1.633  15.578 -0.8183  1.0095  1.3739
12035TIP3    H257521   4.268   1.547  15.695  0.7455  0.0161  1.2440
12036TIP3   OH257522   4.409   4.362   0.245  0.1801 -0.0010 -0.5720
12036TIP3    H157523   4.436   4.346   0.155 -0.9452 -0.2132 -0.8843
12036TIP3    H257524   4.470   4.429   0.276 -0.3802  1.2150 -1.9888
12037TIP3   OH257525   5.679   1.809  17.101  0.1921  0.1747  0.3176
12037TIP3    H157526   5.703   1.739  17.039 -2.3511 -0.4867 -0.0424
12037TIP3    H257527   5.679   1.766  17.186 -0.8708 -0.1520  0.1617
12038TIP3   OH257528   1.465   6.342  15.920 -0.0514  0.2102 -0.1551
12038TIP3    H157529   1.515   6.424  15.921  2.3264 -1.1455  1.3425
12038TIP3    H257530   1.519   6.281  15.870 -0.8496 -0.9835  0.3891
12039TIP3   OH257531   2.700   0.452  14.727  0.7112 -0.2146 -0.3500
12039TIP3    H157532   2.617   0.452  14.679  1.0630  1.2034 -1.0120
12039TIP3    H257533   2.733   0.363  14.718 -1.7492 -1.4846  1.8050
12040TIP3   OH257534   1.542   3.461  12.947 -0.8429  0.5833  0.1589
12040TIP3    H157535   1.468   3.404  12.969  0.6430 -1.8601 -0.7964
12040TIP3    H257536   1.596   3.462  13.026 -0.8522  0.6412  0.1642
12041TIP3   OH257537   4.764   2.997  14.020 -0.0497 -0.0600  0.1095
12041TIP3    H157538   4.779   3.092  14.028  0.7413 -0.2335  0.9088
12041TIP3    H257539   4.772   2.965  14.110 -2.7934 -0.5611  0.2526
12042TIP3   OH257540   3.862   1.742   4.531  0.2267 -0.7945  0.1404
12042TIP3    H157541   3.866   1.657   4.488  0.0685  0.7209 -3.2190
12042TIP3    H257542   3.954   1.769   4.539  0.2250 -0.4835 -0.7078
12043TIP3   OH257543   5.459   5.319   6.211  0.2059 -0.4298  0.0276
12043TIP3    H157544   5.547   5.315   6.173  0.3134 -1.4194  0.3719
12043TIP3    H257545   5.414   5.243   6.175 -0.7483  0.4429 -0.6861
12044TIP3   OH257546   2.411   1.179  16.649  0.0926 -0.0140  0.1003
12044TIP3    H157547   2.444   1.188  16.559 -1.0415 -0.4361 -0.3783
12044TIP3    H257548   2.442   1.257  16.694  1.1206 -0.0420 -0.5052
12045TIP3   OH257549   2.395   2.845  11.657 -0.2636 -0.1044  0.6232
12045TIP3    H157550   2.383   2.865  11.564  0.3102  1.0050  0.7783
12045TIP3    H257551   2.369   2.753  11.665 -1.9220  0.2638 -0.3039
12046TIP3   OH257552   5.231   1.839  12.522  0.4349 -0.2327  0.0545
12046TIP3    H157553   5.260   1.749  12.508  2.4236  0.4583 -0.5229
12046TIP3    H257554   5.307   1.884  12.559  0.8224  2.1026 -3.1307
12047TIP3   OH257555   5.910   5.982   2.967 -0.1039 -0.2961 -0.1688
12047TIP3    H157556   5.896   6.070   3.001  1.1145  0.1623 -0.7621
12047TIP3    H257557   5.917   5.927   3.044  0.1571  0.3155  0.2545
12048TIP3   OH257558   3.860   2.080  16.234 -0.3391  0.6652  0.2783
12048TIP3    H157559   3.879   2.069  16.328 -0.1597 -2.2678 -0.0138
12048TIP3    H257560   3.883   1.996  16.195 -1.0967  1.5767 -2.3158
12049TIP3   OH257561   1.753   2.193   6.110  0.7187 -0.3231 -0.1440
12049TIP3    H157562   1.758   2.223   6.201  1.8466 -0.0246 -0.2828
12049TIP3    H257563   1.822   2.127   6.104  0.3284 -0.6847 -0.6638
12050TIP3   OH257564   4.585   0.887  11.705  0.2248  0.1219  0.8153
12050TIP3    H157565   4.595   0.963  11.762  1.4672  1.8719 -1.5540
12050TIP3    H257566   4.652   0.826  11.735  1.4983  1.4057  0.7167
12051TIP3   OH257567   6.192   0.432   1.475 -0.1642  0.5128 -0.3021
12051TIP3    H157568   6.179   0.363   1.409  1.9054  1.2648 -1.6056
12051TIP3    H257569   6.142   0.506   1.442 -1.5746 -0.0014  0.5856
12052TIP3   OH257570   3.583   1.236   3.835  0.4155  0.2346 -0.1068
12052TIP3    H157571   3.632   1.154   3.825  2.0606  1.1128  0.3300
12052TIP3    H257572   3.607   1.288   3.759  0.0082  0.6119  0.0179
12053TIP3   OH257573   6.317   1.091   4.847 -0.2497  0.4710  0.1066
12053TIP3    H157574   6.265   1.084   4.767  0.9958 -1.4804 -0.6042
12053TIP3    H257575   6.368   1.010   4.850  2.1608  1.9015  1.1572
12054TIP3   OH257576   2.789   3.428  13.474 -0.3686  0.5094  0.2704
12054TIP3    H157577   2.782   3.473  13.559  0.5348  1.4568 -0.1264
12054TIP3    H257578   2.882   3.430  13.454 -0.6431  0.8625 -1.0367
12055TIP3   OH257579   5.777   4.807   0.445  0.4227 -0.6046 -0.4995
12055TIP3    H157580   5.709   4.799   0.512  1.0537  2.1557  0.6089
12055TIP3    H257581   5.748   4.880   0.390  2.2175  0.3411 -0.2650
12056TIP3   OH257582   3.375   0.007   1.941  0.1923  0.0121  0.1437
12056TIP3    H157583   3.377   0.094   1.902 -1.5092 -0.6330 -1.5974
12056TIP3    H257584   3.349  -0.051   1.868 -0.9710 -1.6046  1.7456
12057TIP3   OH257585   3.512   1.110   2.488  0.2121 -0.0044  0.0000
12057TIP3    H157586   3.548   1.155   2.564 -0.3730  1.1344 -0.3703
12057TIP3    H257587   3.564   1.031   2.480  0.2160 -0.1977  1.6429
12058TIP3   OH257588   1.832   1.221  13.610 -0.2244 -0.2479  0.2690
12058TIP3    H157589   1.899   1.289  13.620  1.9203 -2.2120 -0.1062
12058TIP3    H257590   1.840   1.193  13.519 -2.0901 -0.0533  0.0117
12059TIP3   OH257591   1.646   0.951   5.182  0.1509  0.4188 -0.4646
12059TIP3    H157592   1.570   0.994   5.221 -1.4758 -1.4330 -1.3863
12059TIP3    H257593   1.612   0.913   5.101  2.6637  1.5146 -2.1319
12060TIP3   OH257594   4.119   6.406   2.817 -0.0108  0.3818  0.6230
12060TIP3    H157595   4.174   6.365   2.750  0.0300  0.4878  0.5914
12060TIP3    H257596   4.074   6.477   2.771 -1.5135 -0.7764  0.2219
12061TIP3   OH257597   0.611   3.248   4.955  0.1260  0.1896  0.0530
12061TIP3    H157598   0.651   3.168   4.988 -0.7614 -1.2058 -1.9972
12061TIP3    H257599   0.679   3.314   4.963  0.8330 -0.7085  1.9533
12062TIP3   OH257600   5.256   2.903   5.926 -0.7122  1.1564  0.2757
12062TIP3    H157601   5.350   2.887   5.932 -0.8179 -0.6160 -1.6595
12062TIP3    H257602   5.217   2.831   5.977 -1.0425  1.6414  0.7173
12063TIP3   OH257603   1.885   2.697   5.280  0.1576  0.0659  0.2830
12063TIP3    H157604   1.976   2.722   5.293  0.2763  0.3266 -0.8775
12063TIP3    H257605   1.877   2.610   5.319  0.7875  0.2158  0.7597
12064TIP3   OH257606   2.407   1.068   0.765  0.4503  0.6592 -1.0689
12064TIP3    H157607   2.406   0.979   0.729  0.5360  0.5145 -0.7233
12064TIP3    H257608   2.322   1.105   0.741  0.9319  0.9650 -2.3866
12065TIP3   OH257609   3.475   1.002  15.586 -0.2611 -0.1296 -0.1334
12065TIP3    H157610   3.382   1.026  15.580  0.0281  1.3889  0.9854
12065TIP3    H257611   3.495   1.006  15.679  1.6791  2.7987 -0.5396
12066TIP3   OH257612   1.307   0.576   4.902  0.5275 -0.1740  0.5279
12066TIP3    H157613   1.280   0.554   4.812  0.8899  0.5803  0.2275
12066TIP3    H257614   1.351   0.497   4.933  2.1663  0.2104 -0.6792
12067TIP3   OH257615   5.967   1.439  12.410  0.3990 -0.6011 -0.3745
12067TIP3    H157616   5.987   1.389  12.331 -0.3739 -3.1760  0.9661
12067TIP3    H257617   6.030   1.407  12.475 -0.4600 -0.2093  0.6793
12068TIP3   OH257618   5.488   1.717   3.278 -0.4235 -0.1748 -0.3090
12068TIP3    H157619   5.472   1.659   3.204 -0.6368  1.4284 -1.5609
12068TIP3    H257620   5.579   1.745   3.267 -1.0914  1.7777 -1.2645
12069TIP3   OH257621   2.776   2.417   0.510  0.2689  0.2152 -0.0349
12069TIP3    H157622   2.726   2.335   0.502  2.0801 -0.9428  0.0472
12069TIP3    H257623   2.745   2.471   0.438 -0.4792 -0.8006 -0.5054
12070TIP3   OH257624   6.576   4.300   2.465 -0.1315 -0.6397  0.7108
12070TIP3    H157625   6.650   4.340   2.509 -1.4793  1.3962  1.2828
12070TIP3    H257626   6.604   4.290   2.374  0.2335  1.8906  0.4859
12071TIP3   OH257627   0.147   3.970   2.068 -0.2833  0.0808 -0.4464
12071TIP3    H157628   0.150   4.017   1.985 -0.4076  0.6369 -0.1406
12071TIP3    H257629   0.179   3.882   2.047 -0.9557  0.0101 -1.2165
12072TIP3   OH257630   5.497   3.538   2.849  0.0155 -0.2241  0.1532
12072TIP3    H157631   5.473   3.583   2.768 -1.2690 -0.6767  0.2476
12072TIP3    H257632   5.589   3.514   2.837 -0.2817 -0.7227 -1.3948
12073TIP3   OH257633   3.463   2.790  16.611 -0.2014  0.3344  0.0279
12073TIP3    H157634   3.461   2.838  16.693  2.2057  2.0708 -0.8237
12073TIP3    H257635   3.460   2.857  16.543  0.4694 -0.8750 -1.2630
12074TIP3   OH257636   4.342   3.511  14.124 -0.0002  0.4919  0.4422
12074TIP3    H157637   4.254   3.504  14.159 -0.2777 -1.1509 -0.4551
12074TIP3    H257638   4.383   3.582  14.174 -1.0734 -0.2422  2.4681
12075TIP3   OH257639   6.691   3.782  11.828 -0.4053  0.3458 -0.4605
12075TIP3    H157640   6.783   3.810  11.831 -0.0052 -0.9623  0.2348
12075TIP3    H257641   6.658   3.819  11.746  0.9526  0.2474 -1.0828
12076TIP3   OH257642   5.217   2.242  14.806 -0.0961  0.3132 -0.3010
12076TIP3    H157643   5.213   2.315  14.868 -0.7619  0.2721 -0.2924
12076TIP3    H257644   5.211   2.164  14.861  0.4202  0.2516 -0.3275
12077TIP3   OH257645   1.325   6.078   3.285 -0.2191 -0.3223  0.2835
12077TIP3    H157646   1.258   6.146   3.287  1.7464  1.7274 -0.1548
12077TIP3    H257647   1.401   6.120   3.245  0.6736 -3.1945 -1.3466
12078TIP3   OH257648   3.756   2.821  13.648 -0.3021 -0.3736 -0.2998
12078TIP3    H157649   3.759   2.916  13.660  0.2820 -0.3215 -0.8334
12078TIP3    H257650   3.841   2.790  13.680 -0.1885 -0.6329 -0.8464
12079TIP3   OH257651   0.042   2.110   3.530  0.6166  0.7701 -0.3379
12079TIP3    H157652  -0.031   2.117   3.468 -0.9550 -1.8651  1.0254
12079TIP3    H257653   0.095   2.038   3.496 -1.0425 -1.7030  1.8843
12080TIP3   OH257654   5.012   4.529  17.228  0.5017 -0.0371 -0.3582
12080TIP3    H157655   4.940   4.466  17.229  0.2231  0.2797 -0.4144
12080TIP3    H257656   5.083   4.486  17.276 -0.3917  0.4623  1.4842
12081TIP3   OH257657   3.436   1.662  16.254  0.5559  0.0204  0.0152
12081TIP3    H157658   3.473   1.596  16.312  0.6227 -0.5496 -0.6588
12081TIP3    H257659   3.361   1.619  16.213  0.8458  0.2098 -0.7436
12082TIP3   OH257660   3.402   5.862  15.910 -0.6161 -0.1120  0.4255
12082TIP3    H157661   3.350   5.937  15.939  1.1538  1.0179  0.8256
12082TIP3    H257662   3.442   5.829  15.991 -1.0091 -1.2365  0.1857
12083TIP3   OH257663   0.465   2.768  11.768  0.1407 -0.2262 -0.1085
12083TIP3    H157664   0.371   2.751  11.755 -0.0776  0.6927  0.1970
12083TIP3    H257665   0.503   2.762  11.681 -0.1912 -0.6513 -0.2291
12084TIP3   OH257666   3.613   6.167  10.715  0.8608  0.5869 -0.4095
12084TIP3    H157667   3.631   6.225  10.789 -1.1724  1.2474 -0.3625
12084TIP3    H257668   3.640   6.218  10.638  0.5892  0.9660 -0.2624
12085TIP3   OH257669   5.934   6.553  10.938  0.6431  0.3972  0.0578
12085TIP3    H157670   5.959   6.568  10.847 -3.3163  0.2931 -1.2312
12085TIP3    H257671   5.938   6.458  10.949 -0.0859  0.3018 -0.4446
12086TIP3   OH257672   0.835   1.789  16.094 -0.4268  0.2453 -0.3350
12086TIP3    H157673   0.837   1.725  16.023  1.7978 -0.5784  0.3782
12086TIP3    H257674   0.859   1.739  16.172 -2.2490  1.2382  0.9574
12087TIP3   OH257675   3.315   6.058   2.753  0.0526  0.2222  0.0653
12087TIP3    H157676   3.362   6.094   2.828 -0.8836 -1.1119  1.3354
12087TIP3    H257677   3.378   6.063   2.681  1.7333 -0.4061  1.4329
12088TIP3   OH257678   3.060   5.085  11.624 -0.5365 -0.1892 -0.0878
12088TIP3    H157679   3.038   5.139  11.547  1.1102  2.4347  1.1519
12088TIP3    H257680   3.078   4.998  11.587  0.5309  1.0332 -2.7457
12089TIP3   OH257681   4.019   1.353  13.645  0.2705 -0.1873 -0.0994
12089TIP3    H157682   4.060   1.439  13.643  0.0385 -0.0806 -0.5729
12089TIP3    H257683   4.091   1.291  13.655  0.2525  0.2013  5.1518
12090TIP3   OH257684   2.849   5.526  17.034 -0.2126  0.8833  0.1238
12090TIP3    H157685   2.808   5.612  17.047 -0.3246  0.5800  1.9513
12090TIP3    H257686   2.889   5.506  17.118  0.8862 -0.3149 -0.6604
12091TIP3   OH257687   6.187   4.883   2.609  0.8817 -0.7766  0.5455
12091TIP3    H157688   6.150   4.966   2.639  0.7571 -0.7936  0.4379
12091TIP3    H257689   6.124   4.817   2.639  1.6624 -0.9634  1.8432
12092TIP3   OH257690   4.749   1.061  13.343  0.1507 -0.0344  0.7309
12092TIP3    H157691   4.693   1.076  13.267 -0.0464 -1.3424  0.5900
12092TIP3    H257692   4.690   1.030  13.412  0.2033  1.9106  1.7105
12093TIP3   OH257693   1.445   4.293   6.537  0.2582  0.1133 -0.6658
12093TIP3    H157694   1.430   4.260   6.625  1.8772 -1.1186 -0.8205
12093TIP3    H257695   1.442   4.389   6.547 -0.2201 -0.0113  0.5752
12094TIP3   OH257696   6.001   6.456   0.481 -0.1011  0.0994 -0.5588
12094TIP3    H157697   6.077   6.399   0.472 -0.7759 -0.6624 -1.5981
12094TIP3    H257698   6.010   6.494   0.569  0.6952 -1.1216 -0.0923
12095TIP3   OH257699   5.719   4.788   1.883 -0.2234  1.1556 -0.7285
12095TIP3    H157700   5.648   4.757   1.940  0.2621  0.6314 -0.3968
12095TIP3    H257701   5.708   4.883   1.881 -2.0662  0.9771 -2.1870
12096TIP3   OH257702   1.347   2.174  14.220  0.1999  0.3722 -0.4132
12096TIP3    H157703   1.322   2.082  14.220  0.3265  0.3135  0.9060
12096TIP3    H257704   1.438   2.175  14.251 -0.0223  0.9708  0.2738
12097TIP3   OH257705   2.630   3.791   1.308  0.2898  0.3616  0.2055
12097TIP3    H157706   2.665   3.767   1.222  0.1322 -1.5717  0.6224
12097TIP3    H257707   2.657   3.719   1.365  0.7372  1.8033  1.8868
12098TIP3   OH257708   4.844   5.451   0.462 -0.0891 -0.2110 -0.2787
12098TIP3    H157709   4.937   5.430   0.467 -0.4130 -1.4309  1.5255
12098TIP3    H257710   4.807   5.415   0.542 -2.1226  0.2794 -0.9416
12099TIP3   OH257711   3.111   4.352  15.085 -0.3853 -0.2139  0.2509
12099TIP3    H157712   3.080   4.387  15.001 -0.4752 -0.7666  0.0531
12099TIP3    H257713   3.031   4.342  15.137 -0.3008  0.3887  0.5051
12100TIP3   OH257714   6.707   4.227  11.753 -0.2206  0.1671 -0.7365
12100TIP3    H157715   6.670   4.311  11.727 -1.8172 -0.6107 -1.1446
12100TIP3    H257716   6.767   4.204  11.682 -0.3537  0.6012 -0.9915
12101TIP3   OH257717   6.697   5.778  13.373 -0.3062 -0.2000 -0.0544
12101TIP3    H157718   6.629   5.758  13.437 -1.7242  2.8577 -0.4624
12101TIP3    H257719   6.656   5.763  13.288  1.1503 -2.9471 -0.3901
12102TIP3   OH257720   3.585   3.755  11.170  0.0142 -0.1238  0.3537
12102TIP3    H157721   3.537   3.747  11.088  1.5136  0.2802 -0.6059
12102TIP3    H257722   3.656   3.816  11.150  0.6112 -0.2834  1.8669
12103TIP3   OH257723   5.214   5.763  13.892  0.4980 -0.1536 -0.4184
12103TIP3    H157724   5.195   5.783  13.801 -0.0398 -0.5758 -0.4119
12103TIP3    H257725   5.288   5.818  13.915  0.0125  0.6809 -0.8237
12104TIP3   OH257726   5.155   4.612  14.862  0.4739 -0.0148  0.2000
12104TIP3    H157727   5.187   4.530  14.825  0.4588  0.1737 -0.2452
12104TIP3    H257728   5.117   4.658  14.787  1.0052  0.6465  0.3258
12105TIP3   OH257729   4.400   6.156   0.427 -0.2306 -0.0709 -0.3681
12105TIP3    H157730   4.479   6.111   0.399 -0.3620  0.1506 -1.1300
12105TIP3    H257731   4.412   6.171   0.521  0.0830 -1.1258 -0.2336
12106TIP3   OH257732   5.288   5.418  14.257 -0.2926 -0.5615 -0.4677
12106TIP3    H157733   5.320   5.493  14.307  1.0049 -1.3083 -0.1339
12106TIP3    H257734   5.210   5.389  14.304  0.1104 -0.3959  0.3104
12107TIP3   OH257735   4.912   6.233   6.018  0.2345  0.3011 -0.1272
12107TIP3    H157736   4.870   6.302   6.071  0.0134  0.2682 -0.2588
12107TIP3    H257737   4.839   6.178   5.988  0.3166  0.5392 -0.7842
12108TIP3   OH257738   0.963   5.694  14.610  0.0143 -0.6410  0.1446
12108TIP3    H157739   0.890   5.632  14.610  0.9847 -1.8429 -0.0396
12108TIP3    H257740   1.027   5.655  14.550  1.1374 -0.0393  0.9112
12109TIP3   OH257741   6.504   5.218   4.374  0.5256 -0.9452  0.2277
12109TIP3    H157742   6.434   5.153   4.369 -1.9861  1.4956  0.9773
12109TIP3    H257743   6.503   5.262   4.289  0.7892 -0.5678  0.4153
12110TIP3   OH257744   5.370   5.457  16.026  0.0058  0.2431  0.1930
12110TIP3    H157745   5.396   5.395  16.093  1.0662  0.5974  0.1192
12110TIP3    H257746   5.377   5.408  15.944 -0.2331  0.1417  0.2298
12111TIP3   OH257747   0.728   0.380  12.790  1.0707 -0.0300 -0.1505
12111TIP3    H157748   0.668   0.416  12.725 -0.4064 -1.1090  0.5597
12111TIP3    H257749   0.793   0.331  12.739 -0.6102 -1.6716 -0.8284
12112TIP3   OH257750   6.289   5.375   4.969 -0.9269  0.4324 -0.7995
12112TIP3    H157751   6.345   5.298   4.967  1.4187  1.9144  1.3268
12112TIP3    H257752   6.276   5.398   4.877 -0.7388 -1.7710 -1.4306
12113TIP3   OH257753   0.202   1.608   2.992  0.3876 -0.1820  0.1584
12113TIP3    H157754   0.153   1.666   2.935 -0.3585 -0.0606  0.8989
12113TIP3    H257755   0.287   1.652   3.005  0.7188 -0.4058 -1.1479
12114TIP3   OH257756   5.862   3.244   5.724  0.4790  0.0087  0.5339
12114TIP3    H157757   5.948   3.287   5.727  1.5233 -1.7638 -1.4845
12114TIP3    H257758   5.801   3.315   5.702  1.3981  1.2743  1.8575
12115TIP3   OH257759   1.589   4.141   4.534 -0.1090  0.4532 -0.5061
12115TIP3    H157760   1.654   4.104   4.594  1.2215  0.5976 -1.7771
12115TIP3    H257761   1.552   4.215   4.581  0.3526  0.1160  0.4155
12116TIP3   OH257762   4.910   0.679  14.172  0.0435  0.4892 -0.4068
12116TIP3    H157763   4.834   0.669  14.114  0.2270  1.0316 -0.7554
12116TIP3    H257764   4.945   0.766  14.150  0.1933  0.6532  0.4358
12117TIP3   OH257765   3.193   2.841  11.228  0.2829  0.0063 -0.4148
12117TIP3    H157766   3.103   2.818  11.205  0.0106 -0.4840  1.0376
12117TIP3    H257767   3.220   2.903  11.159 -0.5607 -1.1251 -1.8204
12118TIP3   OH257768   3.822   1.924   0.775 -0.0289 -1.0150  0.7556
12118TIP3    H157769   3.892   1.963   0.827 -1.2821  0.4359  1.4195
12118TIP3    H257770   3.751   1.908   0.837 -0.5387 -1.8497 -0.0177
12119TIP3   OH257771   2.997   4.915   5.154  0.0377  0.4206 -0.1898
12119TIP3    H157772   3.069   4.925   5.090  2.5766  0.4320  2.4694
12119TIP3    H257773   3.000   4.823   5.179  0.3357  0.7961  1.2195
12120TIP3   OH257774   0.348   2.845   5.146  0.3280 -0.2387  0.0154
12120TIP3    H157775   0.423   2.788   5.160  1.3111  0.5152 -1.7621
12120TIP3    H257776   0.357   2.873   5.055 -2.0709 -0.0466 -0.2277
12121TIP3   OH257777   4.029   4.263   4.903 -0.3842 -0.4317  0.2705
12121TIP3    H157778   4.091   4.330   4.875  0.7585 -1.9079 -0.8922
12121TIP3    H257779   4.021   4.276   4.998  0.3913  0.8352  0.1823
12122TIP3   OH257780   1.801   2.383   0.426  0.2532  0.2298 -0.3826
12122TIP3    H157781   1.802   2.306   0.369  0.1240  0.1596 -0.2896
12122TIP3    H257782   1.710   2.414   0.423  0.2464  0.2247 -0.2139
12123TIP3   OH257783   1.375   1.900  16.505  0.4633 -0.6214  0.4086
12123TIP3    H157784   1.426   1.940  16.576 -1.1748  0.5829  0.9640
12123TIP3    H257785   1.437   1.843  16.461  1.5675 -1.4166  2.8019
12124TIP3   OH257786   3.398   3.510  12.878 -0.0785 -0.1040  0.9716
12124TIP3    H157787   3.416   3.416  12.890 -1.1349 -0.8154 -2.0440
12124TIP3    H257788   3.305   3.519  12.896 -0.5545 -0.2220 -1.1574
12125TIP3   OH257789   1.069   1.599   2.294 -0.0282 -0.0862 -0.4708
12125TIP3    H157790   1.038   1.509   2.290  0.6560 -0.3243 -0.7063
12125TIP3    H257791   0.995   1.649   2.326 -0.7412 -0.5766 -1.3215
12126TIP3   OH257792   2.494   3.089  14.362  0.3158 -0.5716 -0.0789
12126TIP3    H157793   2.421   3.059  14.308 -0.5520  0.2670  0.5917
12126TIP3    H257794   2.535   3.157  14.309 -1.4126  1.2804  0.8234
12127TIP3   OH257795   4.021   1.121  11.539  0.2672  0.2244 -0.1158
12127TIP3    H157796   3.931   1.125  11.572 -0.2837 -0.3008 -1.4960
12127TIP3    H257797   4.016   1.063  11.464  2.4256 -2.8208  1.8666
12128TIP3   OH257798   5.950   5.008   1.631  0.0995  0.3344 -0.3126
12128TIP3    H157799   5.902   4.931   1.598 -0.8801  0.7642  0.0631
12128TIP3    H257800   5.913   5.082   1.583 -0.3990  0.8042  0.7536
12129TIP3   OH257801   3.992   4.695   2.189  0.6573  0.0209 -0.0112
12129TIP3    H157802   4.036   4.646   2.257 -0.7590 -0.5250  0.5414
12129TIP3    H257803   3.985   4.784   2.224  1.2228  0.1010 -0.0803
12130TIP3   OH257804   6.674   2.079   6.515 -0.0393 -0.4345  0.9021
12130TIP3    H157805   6.766   2.058   6.501  0.2109  0.0150  1.8220
12130TIP3    H257806   6.639   2.004   6.562 -0.8909 -1.9658 -1.9576
12131TIP3   OH257807   3.850   0.015  15.767 -0.3655 -0.0067  1.1428
12131TIP3    H157808   3.860  -0.011  15.675  0.0466  1.0067  0.8826
12131TIP3    H257809   3.935  -0.005  15.806  0.4710  2.1959  0.5937
12132TIP3   OH257810   1.533   6.386  13.591 -0.0516  0.5467  0.1504
12132TIP3    H157811   1.607   6.446  13.598 -0.1902  0.6192  1.1840
12132TIP3    H257812   1.467   6.423  13.651 -0.0947 -0.6878  0.9021
12133TIP3   OH257813   3.052   0.229   2.508  0.4403 -0.1053 -0.0225
12133TIP3    H157814   3.065   0.314   2.467 -0.4385  0.0430 -0.0259
12133TIP3    H257815   3.050   0.166   2.436 -1.5813  0.2125 -0.2977
12134TIP3   OH257816   3.318   6.065  16.396 -0.0847 -0.0839  0.2090
12134TIP3    H157817   3.402   6.109  16.382  0.8680 -1.5330  1.0893
12134TIP3    H257818   3.326   6.025  16.482 -1.8032 -0.0308  0.4159
12135TIP3   OH257819   1.189   2.764   2.133 -0.3098  0.0932 -0.0901
12135TIP3    H157820   1.272   2.716   2.130 -0.7460 -0.6525 -0.3755
12135TIP3    H257821   1.152   2.743   2.218 -1.1847 -1.2720 -0.7723
12136TIP3   OH257822   3.357   5.657   3.474  0.4830 -0.3332 -0.2940
12136TIP3    H157823   3.291   5.708   3.426  0.7172 -0.8342 -1.1802
12136TIP3    H257824   3.309   5.582   3.509  0.2931  0.0809  0.3386
12137TIP3   OH257825   4.807   5.033   5.491  0.1609 -0.2800  0.3430
12137TIP3    H157826   4.762   4.994   5.566  0.3683 -1.0237  0.0881
12137TIP3    H257827   4.747   5.018   5.417  0.7206 -1.0936  0.0401
12138TIP3   OH257828   3.702   3.400  16.787 -0.1711 -0.2548  0.0255
12138TIP3    H157829   3.645   3.333  16.750  0.2406 -0.3507 -0.4519
12138TIP3    H257830   3.650   3.441  16.856 -0.7151 -0.5265 -0.2180
12139TIP3   OH257831   6.543   4.693   0.459  0.2000 -0.5837 -1.0612
12139TIP3    H157832   6.536   4.598   0.469  0.5070 -0.3778  2.9768
12139TIP3    H257833   6.636   4.712   0.470 -0.1406  0.2806  0.6842
12140TIP3   OH257834   4.322   2.675   6.190  0.1339 -0.1656  0.3307
12140TIP3    H157835   4.323   2.580   6.199  1.2796 -0.0253  2.3723
12140TIP3    H257836   4.234   2.701   6.216  0.7140 -0.5220  2.9771
12141TIP3   OH257837   2.597   3.586  16.625 -0.5464 -0.3699  0.0406
12141TIP3    H157838   2.658   3.655  16.599 -0.5975 -0.5688 -0.6145
12141TIP3    H257839   2.593   3.593  16.721  0.5545 -0.4052  0.0992
12142TIP3   OH257840   3.823   0.610   3.232  0.1969 -0.1806  0.5926
12142TIP3    H157841   3.796   0.688   3.184 -0.6765 -0.3552  0.7807
12142TIP3    H257842   3.898   0.638   3.283  1.4616 -0.0954 -1.2007
12143TIP3   OH257843   0.647   3.172   5.597  0.2067 -0.3450 -0.0901
12143TIP3    H157844   0.693   3.103   5.646 -0.1860 -0.2970  0.3539
12143TIP3    H257845   0.627   3.238   5.664  2.1074  1.0372 -0.7791
12144TIP3   OH257846   2.985   4.662   4.015 -0.5087 -0.1837  0.2636
12144TIP3    H157847   2.947   4.613   3.942 -1.1735  0.6607  0.0271
12144TIP3    H257848   2.916   4.661   4.082 -0.3200 -0.0280  0.4590
12145TIP3   OH257849   1.651   0.096   1.642  0.2788 -0.0141 -0.1232
12145TIP3    H157850   1.567   0.100   1.687 -0.6785 -0.2727 -1.7878
12145TIP3    H257851   1.633   0.130   1.554  1.7797 -0.6143 -0.7124
12146TIP3   OH257852   4.547   5.019  15.914 -0.2025  1.1247  0.0823
12146TIP3    H157853   4.476   5.083  15.920 -0.0587  1.3792 -0.7563
12146TIP3    H257854   4.595   5.029  15.997 -0.1321  2.1751 -0.0679
12147TIP3   OH257855   4.115   0.149  13.084  0.0345 -0.0477  0.2076
12147TIP3    H157856   4.149   0.137  12.996  0.7974  0.1123  0.4640
12147TIP3    H257857   4.183   0.200  13.129 -0.8269  0.8033  0.5768
12148TIP3   OH257858   1.300   1.471   3.627 -0.4581 -0.3602  0.3587
12148TIP3    H157859   1.341   1.469   3.713  0.3192  0.0751  0.0186
12148TIP3    H257860   1.333   1.393   3.582 -0.4001 -0.2787  0.2585
12149TIP3   OH257861   4.983   3.298   0.175 -0.4100 -0.4712 -0.0068
12149TIP3    H157862   5.062   3.351   0.181 -0.9954  0.5430 -0.9531
12149TIP3    H257863   4.912   3.361   0.176 -1.2162 -1.3612  0.6303
12150TIP3   OH257864   2.441   0.141  14.863 -0.3272 -0.9294  0.0745
12150TIP3    H157865   2.348   0.131  14.883 -0.2520 -0.2250  0.8773
12150TIP3    H257866   2.472   0.207  14.926  0.3372  0.1309 -1.2952
12151TIP3   OH257867   1.449   0.515  17.091 -0.4822 -0.3805 -0.7756
12151TIP3    H157868   1.506   0.439  17.105  0.7237  0.7790  1.1277
12151TIP3    H257869   1.507   0.581  17.053 -1.6079 -0.4838 -2.7906
12152TIP3   OH257870   4.903   1.608   1.673  0.0761 -0.2918  0.0540
12152TIP3    H157871   4.821   1.608   1.624  1.6026 -0.1657 -2.7015
12152TIP3    H257872   4.923   1.701   1.686  0.6002 -0.2870 -0.7697
12153TIP3   OH257873   4.285   2.907   0.746  0.3730  0.1472 -0.4173
12153TIP3    H157874   4.376   2.893   0.718  0.1783  0.7935 -1.4158
12153TIP3    H257875   4.290   2.985   0.802  0.2464  1.0454 -1.6219
12154TIP3   OH257876   0.500   6.758   1.933 -0.4073  0.0593 -0.2420
12154TIP3    H157877   0.439   6.685   1.924 -0.2837 -0.3807  2.0636
12154TIP3    H257878   0.583   6.718   1.960  0.2547  0.8786 -0.9856
12155TIP3   OH257879   2.986   1.730  17.048  0.1191 -0.3526  0.1842
12155TIP3    H157880   3.038   1.742  16.968 -0.2922 -0.2556 -0.0755
12155TIP3    H257881   3.010   1.803  17.104 -0.6402  0.3834 -0.4311
12156TIP3   OH257882   2.158   6.145  12.657 -0.1177  0.3090  0.3226
12156TIP3    H157883   2.167   6.206  12.731  0.9655  0.0875  0.3907
12156TIP3    H257884   2.092   6.082  12.687  0.5691  0.0134  1.2554
12157TIP3   OH257885   5.853   3.149   4.680  0.0574  0.1348  0.2771
12157TIP3    H157886   5.873   3.082   4.615 -0.2361 -0.1089  0.4348
12157TIP3    H257887   5.932   3.157   4.732 -0.2317 -0.7889  0.8745
12158TIP3   OH257888   3.140   1.334  14.796 -0.4856 -0.0160  0.1157
12158TIP3    H157889   3.145   1.239  14.791 -0.2622  0.0483 -1.3393
12158TIP3    H257890   3.060   1.356  14.748 -2.4365  0.3929  3.2185
12159TIP3   OH257891   5.791   4.469  16.004 -0.3278  0.1202  0.8823
12159TIP3    H157892   5.729   4.401  16.031 -0.8122 -1.3030 -3.1582
12159TIP3    H257893   5.735   4.545  15.986 -0.3819  0.1231  1.0591
12160TIP3   OH257894   0.321   0.245   4.795 -0.0384  0.1355  0.0410
12160TIP3    H157895   0.368   0.189   4.733  0.4253  0.8175 -0.2318
12160TIP3    H257896   0.291   0.185   4.864 -0.1090 -0.5459 -0.5735
12161TIP3   OH257897   1.172   1.544   0.842 -0.3816  0.3301 -0.3921
12161TIP3    H157898   1.194   1.455   0.817 -0.3865  0.0117  0.7043
12161TIP3    H257899   1.257   1.588   0.851 -0.3112  0.0571  0.3818
12162TIP3   OH257900   6.179   5.124  15.332  0.3047  0.1774 -0.0745
12162TIP3    H157901   6.222   5.107  15.248  1.1583  0.6911  0.2500
12162TIP3    H257902   6.086   5.131  15.310  0.1420 -2.3784 -0.5898
12163TIP3   OH257903   6.241   6.254   6.357 -0.0537 -0.2917 -0.0699
12163TIP3    H157904   6.250   6.344   6.325  1.2242 -1.5056 -3.5170
12163TIP3    H257905   6.170   6.217   6.305  1.3754 -2.0707 -0.8509
12164TIP3   OH257906   5.635   5.876  16.483  0.0495 -0.1313  0.0098
12164TIP3    H157907   5.573   5.869  16.411 -0.9000 -0.6938  0.8726
12164TIP3    H257908   5.627   5.794  16.532  1.9299 -0.4941 -0.2074
12165TIP3   OH257909   0.540   4.324   2.233 -0.0075  0.0504 -0.6764
12165TIP3    H157910   0.498   4.322   2.319 -0.6185 -0.7442 -0.9872
12165TIP3    H257911   0.483   4.380   2.180  1.2391  1.9240 -0.1451
12166TIP3   OH257912   3.734   3.146   4.997  0.1511  0.4947  0.1811
12166TIP3    H157913   3.758   3.238   5.007 -2.0042  1.0979  0.4367
12166TIP3    H257914   3.674   3.146   4.923  0.7182 -0.8462 -0.2910
12167TIP3   OH257915   1.840   4.829  13.974 -0.8817 -0.1345  0.1359
12167TIP3    H157916   1.904   4.883  13.928 -0.6443 -2.0213 -1.8958
12167TIP3    H257917   1.755   4.864  13.946 -0.8411  1.5944  1.9003
12168TIP3   OH257918   6.091   1.428  16.262 -0.8151 -0.5961 -0.1565
12168TIP3    H157919   6.129   1.354  16.214 -1.6642 -1.0645 -0.1364
12168TIP3    H257920   6.002   1.436  16.225 -0.6986  0.4743 -0.2229
12169TIP3   OH257921   1.904   3.978  15.825  0.5419 -0.1832  0.1193
12169TIP3    H157922   1.995   3.989  15.853  1.2658 -0.0550 -2.1094
12169TIP3    H257923   1.852   4.013  15.898  2.3442  2.1819  0.3842
12170TIP3   OH257924   4.609   4.243   3.370  0.2865 -0.3413 -0.2514
12170TIP3    H157925   4.613   4.339   3.376 -3.7296  0.0581 -1.0094
12170TIP3    H257926   4.611   4.225   3.277  1.9509 -1.1411 -0.0877
12171TIP3   OH257927   3.708   1.650  13.156  0.2202 -0.5493 -0.3061
12171TIP3    H157928   3.645   1.698  13.102 -0.2749 -0.9298 -0.0700
12171TIP3    H257929   3.773   1.715  13.181 -0.4630  0.0032  0.0380
12172TIP3   OH257930   3.068   4.758   5.525 -0.4118 -0.5620  0.2764
12172TIP3    H157931   3.159   4.730   5.529  0.5710  2.1661 -0.4797
12172TIP3    H257932   3.044   4.747   5.433  0.2573  1.5428 -0.2188
12173TIP3   OH257933   5.443   0.068   4.552  0.1072 -0.3437  0.3360
12173TIP3    H157934   5.467   0.095   4.641 -0.7734 -1.7220  1.0308
12173TIP3    H257935   5.511   0.005   4.527  0.0957 -0.3047  0.2060
12174TIP3   OH257936   1.693   2.234  15.068  0.3165  0.3104 -0.4105
12174TIP3    H157937   1.714   2.274  15.151  2.2455 -2.1919  0.4498
12174TIP3    H257938   1.605   2.197  15.080  1.3287 -1.7593  1.3490
12175TIP3   OH257939   4.012   6.058   4.538  0.2178 -0.6771  0.6249
12175TIP3    H157940   4.039   6.067   4.629  0.7150 -5.5624  1.2095
12175TIP3    H257941   4.094   6.049   4.489 -0.0749  1.0921 -0.2716
12176TIP3   OH257942   1.106   0.047  11.884  0.3241 -0.0752  0.2635
12176TIP3    H157943   1.147   0.008  11.807 -0.2694 -0.7712  0.2906
12176TIP3    H257944   1.141   0.136  11.887 -0.0730  0.1528 -1.1376
12177TIP3   OH257945   5.482   0.940   6.039 -0.0032  0.2597 -0.5543
12177TIP3    H157946   5.416   0.917   6.105 -1.5914  1.5108 -1.6465
12177TIP3    H257947   5.538   0.862   6.034 -2.0861 -1.3366 -0.4277
12178TIP3   OH257948   6.383   1.177   2.720 -0.0345  0.0422 -0.4923
12178TIP3    H157949   6.308   1.118   2.723  1.0515 -1.4175 -1.1091
12178TIP3    H257950   6.398   1.192   2.626  0.9747 -0.4228 -0.4228
12179TIP3   OH257951   5.657   1.554   2.027 -0.0530 -0.4007 -0.2570
12179TIP3    H157952   5.610   1.525   2.105  1.6785  0.7514  1.3059
12179TIP3    H257953   5.720   1.484   2.010 -0.9449 -1.0188 -1.1511
12180TIP3   OH257954   2.685   4.163   4.572  0.3124  0.0014  0.2672
12180TIP3    H157955   2.729   4.165   4.488 -0.6576  1.2750 -0.2370
12180TIP3    H257956   2.595   4.136   4.552  0.8255 -2.7336  1.2983
12181TIP3   OH257957   5.337   3.902  16.785 -0.3621  0.3092  0.3156
12181TIP3    H157958   5.304   3.826  16.737  0.4234  1.2139 -1.7666
12181TIP3    H257959   5.414   3.870  16.831  0.2693 -0.0674 -0.9664
12182TIP3   OH257960   3.077   1.055   4.737  0.3413 -0.2538 -0.0068
12182TIP3    H157961   3.105   0.991   4.672  2.7506 -0.1337  0.8331
12182TIP3    H257962   3.104   1.140   4.702  1.3014 -0.1493  0.9344
12183TIP3   OH257963   2.112   3.261  15.359 -0.0717 -0.2902  0.2539
12183TIP3    H157964   2.198   3.277  15.397 -0.2511  0.6896  0.2760
12183TIP3    H257965   2.053   3.319  15.408 -0.8231 -1.2485  0.5271
12184TIP3   OH257966   6.505   1.923  12.363  0.2316  0.1403 -0.5114
12184TIP3    H157967   6.546   1.936  12.278 -0.3595 -0.1389 -0.8492
12184TIP3    H257968   6.469   2.009  12.386  0.8014  0.3299 -0.3178
12185TIP3   OH257969   5.780   4.551   0.343 -0.6382  0.0232  0.0920
12185TIP3    H157970   5.775   4.646   0.351 -0.2630 -0.0183  0.8511
12185TIP3    H257971   5.868   4.528   0.371 -0.5003 -0.4936 -0.7215
12186TIP3   OH257972   4.486   3.108  13.844  0.2351 -0.8471 -0.8788
12186TIP3    H157973   4.513   3.017  13.838  1.5641 -0.4405 -1.5230
12186TIP3    H257974   4.436   3.114  13.925 -1.0316 -2.4213 -1.5106
12187TIP3   OH257975   1.650   2.508  13.818  0.6170 -0.2865 -0.1293
12187TIP3    H157976   1.560   2.532  13.836  1.2126  1.5990  0.5030
12187TIP3    H257977   1.677   2.454  13.893 -0.4953 -2.4859 -1.2057
12188TIP3   OH257978   1.018   1.155   0.874 -0.3120  0.6377 -0.0997
12188TIP3    H157979   1.085   1.207   0.830  1.4849 -2.4247 -1.2782
12188TIP3    H257980   1.050   1.146   0.964  1.2311 -1.1404 -0.7501
12189TIP3   OH257981   5.029   0.862   2.600 -0.2829 -0.1511 -0.6207
12189TIP3    H157982   5.110   0.907   2.573 -0.6919  0.7932 -0.3006
12189TIP3    H257983   4.999   0.819   2.520 -1.1185  2.0686 -1.5833
12190TIP3   OH257984   0.958   1.752   3.473  0.2160 -0.1663  0.1044
12190TIP3    H157985   0.926   1.663   3.458 -0.7098  0.2641 -0.5593
12190TIP3    H257986   1.048   1.740   3.504  0.2527 -1.3190 -0.3957
12191TIP3   OH257987   4.271   6.770  16.627  0.1639 -0.0792  0.5623
12191TIP3    H157988   4.337   6.726  16.680  0.5918  0.5758  0.5816
12191TIP3    H257989   4.320   6.808  16.554 -0.4776 -1.3628 -0.5748
12192TIP3   OH257990   2.874   6.428   0.820  0.6832  0.2860 -0.1123
12192TIP3    H157991   2.847   6.339   0.797  0.4756  0.3704 -0.2008
12192TIP3    H257992   2.795   6.468   0.858  0.6714  0.5465 -0.4054
12193TIP3   OH257993   5.224   4.717  13.667 -0.9354 -0.2245 -0.0750
12193TIP3    H157994   5.259   4.636  13.631 -2.5691 -0.3399 -1.5644
12193TIP3    H257995   5.261   4.723  13.755  1.5568 -1.0407 -0.9956
12194TIP3   OH257996   5.516   5.133  15.557  0.4935  0.8656  0.0960
12194TIP3    H157997   5.494   5.051  15.512 -1.6357  1.9098 -0.9122
12194TIP3    H257998   5.597   5.114  15.603  0.9601 -1.3089 -1.4665
12195TIP3   OH257999   3.833   5.929   5.147 -0.0697 -0.2602  0.3054
12195TIP3    H158000   3.865   5.849   5.106  0.9118 -0.2144  0.9570
12195TIP3    H258001   3.876   5.931   5.232  0.7077  1.4627 -0.0888
12196TIP3   OH258002   4.244   2.625   0.277 -0.1838  0.0416 -0.2271
12196TIP3    H158003   4.303   2.700   0.279 -0.3299  0.1608 -0.4485
12196TIP3    H258004   4.161   2.658   0.312  0.5375 -0.7070  2.4399
12197TIP3   OH258005   4.827   1.681   0.534 -0.2880  0.8029 -0.2954
12197TIP3    H158006   4.878   1.630   0.597 -1.4467 -1.4283 -1.0867
12197TIP3    H258007   4.860   1.771   0.545  1.2864  0.0712  1.6908
12198TIP3   OH258008   1.431   2.454  14.998 -0.4190  0.2906  0.1738
12198TIP3    H158009   1.518   2.484  15.025 -0.5911  1.2625 -0.2918
12198TIP3    H258010   1.373   2.485  15.067 -0.5095  0.4608  0.0233
12199TIP3   OH258011   6.062   3.220   4.934 -0.3161  0.4678  0.9115
12199TIP3    H158012   6.088   3.209   4.843  0.2366  2.2296  0.8208
12199TIP3    H258013   6.095   3.142   4.978  0.7962  0.3341 -0.1142
12200TIP3   OH258014   0.736   1.992  17.235  0.6183 -0.2027 -0.3289
12200TIP3    H158015   0.734   1.975  17.329  0.8923 -2.8021 -0.7140
12200TIP3    H258016   0.737   2.087  17.228  0.0704  0.0768  2.2696
12201TIP3   OH258017   6.551   4.330  13.780 -0.3498  0.1414 -0.2033
12201TIP3    H158018   6.484   4.288  13.726 -1.2144  0.8691  0.2727
12201TIP3    H258019   6.632   4.285  13.757 -1.1050 -1.2282 -0.3124
12202TIP3   OH258020   1.836   3.570   3.391  0.0528  0.1260 -0.1576
12202TIP3    H158021   1.851   3.628   3.466  0.4177 -0.3598  0.1469
12202TIP3    H258022   1.833   3.629   3.316  0.2014  0.5632  0.1753
12203TIP3   OH258023   1.948   2.564   4.936  0.1438 -0.0491  0.2641
12203TIP3    H158024   1.967   2.516   5.017  2.2891  2.3993  1.3704
12203TIP3    H258025   1.858   2.594   4.946 -0.2504 -1.3747  0.8548
12204TIP3   OH258026   5.216   1.800  13.941 -0.4581  0.1745 -0.3297
12204TIP3    H158027   5.296   1.799  13.889 -1.3347  0.4871 -1.7174
12204TIP3    H258028   5.228   1.874  14.001  0.1696  0.3846 -0.7017
12205TIP3   OH258029   3.376   3.128  11.376  0.0169  0.5188  0.5865
12205TIP3    H158030   3.381   3.223  11.387  0.1686  0.6866 -0.8095
12205TIP3    H258031   3.303   3.114  11.317 -0.2686 -0.2743  1.1151
12206TIP3   OH258032   6.624   3.539   0.448 -0.0076 -0.7313  0.5280
12206TIP3    H158033   6.580   3.469   0.399 -1.3992  0.4519  0.0201
12206TIP3    H258034   6.633   3.611   0.385 -0.1956  0.1770  1.5015
12207TIP3   OH258035   4.409   1.851  15.209 -0.1035  0.0220  1.0225
12207TIP3    H158036   4.404   1.939  15.245  1.3061  1.0714 -1.0933
12207TIP3    H258037   4.502   1.829  15.214 -0.2205 -0.7095  0.1676
12208TIP3   OH258038   2.549   0.926  17.214  0.3304  0.4281  0.3113
12208TIP3    H158039   2.456   0.938  17.197  0.4672  0.4097 -0.5004
12208TIP3    H258040   2.584   0.890  17.132  0.6115 -1.9989  1.4374
12209TIP3   OH258041   3.983   3.387   3.398  0.1017  0.5176 -0.5122
12209TIP3    H158042   4.062   3.425   3.359  0.5262  0.9442  0.7085
12209TIP3    H258043   4.007   3.371   3.490 -1.0302  0.0688 -0.2782
12210TIP3   OH258044   3.431   2.187   3.084  0.6300  0.1893  0.6586
12210TIP3    H158045   3.523   2.172   3.107  0.3729 -2.7289  0.1349
12210TIP3    H258046   3.432   2.200   2.989  0.4830 -0.0074  0.6305
12211TIP3   OH258047   3.656   6.391   4.272 -0.6389  0.2123  0.2046
12211TIP3    H158048   3.585   6.328   4.262 -0.8043  0.3964  0.2087
12211TIP3    H258049   3.713   6.352   4.338  0.5036 -1.0508 -1.4315
12212TIP3   OH258050   5.146   1.296  10.104 -0.0800  0.2346 -0.2052
12212TIP3    H158051   5.155   1.357  10.178 -4.8882 -1.9698  2.6654
12212TIP3    H258052   5.198   1.220  10.130  1.5304  0.9207 -1.2247
12213TIP3   OH258053   4.952   1.650   5.520  0.2124  0.2405 -0.2370
12213TIP3    H158054   4.973   1.658   5.613 -0.6717  0.5037 -0.0502
12213TIP3    H258055   4.936   1.557   5.507  2.9666 -0.2495 -0.7343
12214TIP3   OH258056   3.696   0.567  11.373 -0.0152 -0.2060 -0.1442
12214TIP3    H158057   3.677   0.478  11.403  0.6457 -0.2501  0.1640
12214TIP3    H258058   3.637   0.580  11.299 -0.5067 -0.6976  0.1428
12215TIP3   OH258059   3.456   5.818  15.483  0.3350  0.2318 -0.0693
12215TIP3    H158060   3.427   5.775  15.564 -0.7716 -2.5351 -1.7860
12215TIP3    H258061   3.548   5.795  15.476  0.9610  2.0606  1.2356
12216TIP3   OH258062   2.733   2.236   5.011  0.1453 -0.5852 -0.3226
12216TIP3    H158063   2.770   2.319   5.040 -0.1638 -0.5352 -0.0683
12216TIP3    H258064   2.697   2.254   4.924 -1.5822  0.0375  0.4847
12217TIP3   OH258065   4.320   3.873  16.355 -0.6701  0.0110 -0.0826
12217TIP3    H158066   4.357   3.958  16.332 -0.9506  0.3144  0.5628
12217TIP3    H258067   4.379   3.809  16.315  2.4179  0.3416  3.3897
12218TIP3   OH258068   0.244   0.663  11.698 -0.1845  0.3406  0.1624
12218TIP3    H158069   0.239   0.570  11.721 -0.1096  0.3279  0.1288
12218TIP3    H258070   0.225   0.665  11.604  1.6904  0.1458 -0.2583
12219TIP3   OH258071   2.844   4.403   4.965 -1.0890  0.3264 -0.5353
12219TIP3    H158072   2.877   4.426   5.052  0.0227 -2.0832 -0.2472
12219TIP3    H258073   2.923   4.386   4.914 -1.7701  0.4081 -1.6457
12220TIP3   OH258074   3.717   3.839   5.466 -0.2602 -0.2720  0.2495
12220TIP3    H158075   3.695   3.902   5.398 -1.0221  1.0044  1.6102
12220TIP3    H258076   3.639   3.785   5.476 -0.6276  0.3609  0.9408
12221TIP3   OH258077   3.948   2.151   3.834 -0.5895  0.2938  0.4023
12221TIP3    H158078   4.016   2.215   3.814 -0.3537 -0.1828 -0.3822
12221TIP3    H258079   3.922   2.170   3.924  0.9229  0.1903  0.8915
12222TIP3   OH258080   2.626   5.949  10.908 -0.3598  0.8152 -0.0189
12222TIP3    H158081   2.541   5.944  10.866 -0.4396  1.5342  0.0395
12222TIP3    H258082   2.644   6.043  10.914 -0.4757  0.7514  1.8016
12223TIP3   OH258083   3.965   4.829  17.093  0.0483  0.2060 -0.2056
12223TIP3    H158084   3.879   4.861  17.120  0.9426  0.9246  2.0040
12223TIP3    H258085   3.955   4.734  17.084 -1.3901  0.4573 -1.8805
12224TIP3   OH258086   3.476   1.089  17.184  0.3142  0.2818 -0.1585
12224TIP3    H158087   3.471   0.994  17.175  2.1445  0.0347  0.8268
12224TIP3    H258088   3.541   1.103  17.253 -0.8083  2.2436  0.5794
12225TIP3   OH258089   4.386   5.146  11.541  0.2101  0.3231  0.4357
12225TIP3    H158090   4.309   5.114  11.494  0.7466  0.3332 -0.4729
12225TIP3    H258091   4.391   5.239  11.520 -0.3058  0.6212  1.6022
12226TIP3   OH258092   0.222   4.912   5.234  0.5749 -0.5997 -0.0864
12226TIP3    H158093   0.278   4.985   5.259 -0.6919 -0.3350  2.2567
12226TIP3    H258094   0.137   4.952   5.215  0.2801 -1.3213 -0.3259
12227TIP3   OH258095   3.804   4.288   5.793  0.0768  0.1641  0.5904
12227TIP3    H158096   3.857   4.361   5.822  0.4504 -0.1428  0.6897
12227TIP3    H258097   3.823   4.218   5.855 -0.4815  0.0645  0.6548
12228TIP3   OH258098   4.845   1.625   4.331  0.0997  0.1967 -0.0346
12228TIP3    H158099   4.762   1.669   4.312 -0.3651 -0.2267  0.9158
12228TIP3    H258100   4.880   1.673   4.407 -0.5207 -1.1509  1.1532
12229TIP3   OH258101   1.155   4.068  12.434 -0.0818 -0.5978 -0.0683
12229TIP3    H158102   1.249   4.066  12.414 -0.3867 -0.2572 -1.6993
12229TIP3    H258103   1.146   4.012  12.511  1.4835 -0.4803  0.2387
12230TIP3   OH258104   2.707   4.553  11.902  0.0349 -0.3781  0.4783
12230TIP3    H158105   2.714   4.472  11.852 -1.8868 -0.2973  0.0006
12230TIP3    H258106   2.732   4.622  11.840 -2.9466 -0.2118 -0.7437
12231TIP3   OH258107   5.886   3.997  13.760 -0.1096 -0.4371  0.1416
12231TIP3    H158108   5.901   3.930  13.827 -0.3235 -1.3037 -0.6534
12231TIP3    H258109   5.872   3.947  13.679  3.1971  0.5640 -1.2171
12232TIP3   OH258110   4.738   2.377  13.722 -0.4538 -0.3068  0.0256
12232TIP3    H158111   4.765   2.413  13.637 -1.0133  0.3758  0.1320
12232TIP3    H258112   4.812   2.323  13.749  0.3892  0.7218 -0.1691
12233TIP3   OH258113   5.454   4.935   3.816  0.4142 -0.1603 -0.5418
12233TIP3    H158114   5.416   5.023   3.809  1.4101  0.1954 -2.2371
12233TIP3    H258115   5.549   4.949   3.814  0.5960 -1.2582 -0.5518
12234TIP3   OH258116   6.056   4.485  14.351  0.3608  0.0899  0.0316
12234TIP3    H158117   6.119   4.419  14.381 -0.4917 -0.2459  1.1367
12234TIP3    H258118   6.084   4.566  14.393  0.3028  0.0369  0.1698
12235TIP3   OH258119   5.330   5.900   5.870 -0.1754  0.4256 -0.4301
12235TIP3    H158120   5.247   5.948   5.866 -0.4752  0.0314  0.6645
12235TIP3    H258121   5.304   5.809   5.881  0.4029  0.2872 -0.1899
12236TIP3   OH258122   2.210   6.318  14.081 -0.4798 -0.3848  0.1351
12236TIP3    H158123   2.239   6.390  14.025 -2.8221 -0.3900 -1.2127
12236TIP3    H258124   2.115   6.331  14.089 -0.8798 -2.9850  0.3162
12237TIP3   OH258125   3.072   2.469   3.910  0.6219  0.4335  0.4911
12237TIP3    H158126   2.983   2.433   3.922  1.1810 -0.9158  0.8188
12237TIP3    H258127   3.070   2.553   3.956 -0.7164  0.8057 -0.2025
12238TIP3   OH258128   6.019   1.908  13.773 -0.3399 -0.5157  0.3928
12238TIP3    H158129   6.018   1.821  13.815  1.3066 -0.3176  0.9252
12238TIP3    H258130   5.971   1.964  13.833 -1.6650 -1.0919 -0.0897
12239TIP3   OH258131   3.857   1.713  12.572 -0.0458 -0.3239 -0.3870
12239TIP3    H158132   3.814   1.681  12.651  1.8281 -1.5813  0.1948
12239TIP3    H258133   3.794   1.696  12.502 -0.7490 -1.5758  0.5003
12240TIP3   OH258134   2.873   1.468  13.564  0.2995 -0.0631 -0.3915
12240TIP3    H158135   2.864   1.471  13.469 -0.4447  0.6486 -0.3172
12240TIP3    H258136   2.937   1.536  13.584 -0.3009  0.4977 -0.3221
12241TIP3   OH258137   6.312   4.247  16.349 -0.0581  0.9820  0.2763
12241TIP3    H158138   6.315   4.262  16.443  0.1695 -0.5197  0.5327
12241TIP3    H258139   6.395   4.282  16.316  0.3196  0.5573  0.7815
12242TIP3   OH258140   5.622   0.778  12.647 -0.3838 -0.2613 -0.2800
12242TIP3    H158141   5.616   0.811  12.737  1.6964 -0.2074 -0.0968
12242TIP3    H258142   5.599   0.854  12.593  1.1983  0.6187  0.1977
12243TIP3   OH258143   0.034   0.311  16.395 -0.5090 -0.0540 -0.4894
12243TIP3    H158144   0.093   0.246  16.358  0.4389  1.2939 -1.3865
12243TIP3    H258145   0.008   0.365  16.321  0.5404  2.0031  0.5709
12244TIP3   OH258146   6.028   1.463   4.599  0.0325  0.2090 -0.5378
12244TIP3    H158147   5.941   1.492   4.625  0.0918 -0.9631  1.1356
12244TIP3    H258148   6.088   1.510   4.657  0.1981 -2.1029  1.3074
12245TIP3   OH258149   4.809   0.647  16.037  0.0016  0.0681  0.0115
12245TIP3    H158150   4.758   0.616  16.112 -0.4307  0.9769  0.1071
12245TIP3    H258151   4.744   0.685  15.978  0.6542  2.5254  0.7607
12246TIP3   OH258152   2.630   5.589   3.178  0.1369 -0.0935 -0.0156
12246TIP3    H158153   2.692   5.643   3.131  0.5582 -0.4147  0.1593
12246TIP3    H258154   2.546   5.603   3.134  0.0784  1.2540  0.4753
12247TIP3   OH258155   2.487   5.610   1.951 -0.2461 -0.2936  0.5504
12247TIP3    H158156   2.493   5.600   2.046 -1.8896  0.6242  0.7849
12247TIP3    H258157   2.562   5.561   1.917  2.2263  1.9091  2.4529
12248TIP3   OH258158   0.291   6.702   4.769  0.9244  0.8982 -0.1439
12248TIP3    H158159   0.216   6.753   4.739  1.2546  2.2114  1.1364
12248TIP3    H258160   0.258   6.656   4.846  0.6955 -0.7187 -1.1575
12249TIP3   OH258161   1.372   1.066  16.418  0.5245 -0.0062 -0.0798
12249TIP3    H158162   1.364   1.108  16.504  1.2395  1.7013 -0.7825
12249TIP3    H258163   1.283   1.040  16.395  0.4344 -1.2584  1.5131
12250TIP3   OH258164   5.761   4.853  14.930  0.0541 -0.1649 -0.0310
12250TIP3    H158165   5.732   4.905  14.855  0.4755 -1.6036 -1.2388
12250TIP3    H258166   5.852   4.880  14.945  0.9134 -1.7591 -1.8557
12251TIP3   OH258167   2.894   2.706   4.878 -0.2335 -0.0904 -0.4701
12251TIP3    H158168   2.932   2.794   4.886 -0.6205 -0.0124  0.7895
12251TIP3    H258169   2.965   2.652   4.845  0.8739  0.1554  1.3720
12252TIP3   OH258170   3.878   6.349  13.426 -0.0715  0.9298 -0.7734
12252TIP3    H158171   3.797   6.319  13.384 -0.3859 -1.9970  1.6531
12252TIP3    H258172   3.850   6.417  13.486 -0.4176  1.2533 -1.2901
12253TIP3   OH258173   3.705   4.601  12.812  0.2863  0.0119 -0.2245
12253TIP3    H158174   3.691   4.677  12.757 -1.9497 -0.2536 -0.0965
12253TIP3    H258175   3.750   4.538  12.756  0.1412  0.6064 -1.0144
12254TIP3   OH258176   5.035   0.204   0.518 -0.5132  0.5028  0.4434
12254TIP3    H158177   5.057   0.119   0.480 -0.9471 -0.1923  1.7000
12254TIP3    H258178   4.944   0.219   0.493 -0.7051  0.1854  0.9346
12255TIP3   OH258179   5.717   5.704  11.591  0.5196 -0.8314 -0.8520
12255TIP3    H158180   5.723   5.737  11.681  1.5951 -1.9386 -0.4852
12255TIP3    H258181   5.638   5.745  11.555 -0.9006 -1.7105  1.1421
12256TIP3   OH258182   1.875   0.157   1.112 -0.0831 -0.0982 -0.4672
12256TIP3    H158183   1.793   0.174   1.158  0.2737 -1.0971  0.5878
12256TIP3    H258184   1.918   0.243   1.108  0.4684 -0.1507  2.3057
12257TIP3   OH258185   6.174   3.393  16.602 -0.2285  0.6798  0.4897
12257TIP3    H158186   6.080   3.392  16.586 -0.5223  0.4313  2.0460
12257TIP3    H258187   6.182   3.401  16.697  1.3039 -0.7640  0.5374
12258TIP3   OH258188   2.735   2.971   5.583  0.0504 -0.4330 -0.4452
12258TIP3    H158189   2.779   2.993   5.665 -0.7618  0.1877 -0.1634
12258TIP3    H258190   2.657   2.923   5.609 -0.9513  0.9681 -0.7449
12259TIP3   OH258191   3.135   4.117   2.206  0.3560  0.6276 -0.1742
12259TIP3    H158192   3.101   4.115   2.117 -1.1631  0.6646  0.3765
12259TIP3    H258193   3.076   4.061   2.256 -0.0788  2.2296  1.2205
12260TIP3   OH258194   2.861   4.971  12.427  0.5567  0.4471 -0.5692
12260TIP3    H158195   2.769   4.953  12.407  0.6069 -0.1577 -0.2915
12260TIP3    H258196   2.904   4.978  12.342  0.3248  0.3133 -0.6986
12261TIP3   OH258197   6.332   3.923  16.001 -0.2651  0.0720 -0.8673
12261TIP3    H158198   6.237   3.920  15.997 -0.3757  2.4026 -1.2950
12261TIP3    H258199   6.351   3.946  16.092 -0.0229 -1.4279 -0.5082
12262TIP3   OH258200   2.758   6.650   5.286 -0.0962 -0.7085 -0.3789
12262TIP3    H158201   2.737   6.600   5.365  1.3345 -1.8098 -0.6350
12262TIP3    H258202   2.825   6.712   5.314 -0.1543 -0.5642 -0.5559
12263TIP3   OH258203   4.886   0.483   5.775 -0.0529  0.2181  0.2791
12263TIP3    H158204   4.799   0.453   5.804  0.0567 -0.2386  0.1439
12263TIP3    H258205   4.871   0.511   5.685  0.3690 -1.9530 -0.5361
12264TIP3   OH258206   2.784   3.203  17.194  0.5490 -0.1994  0.0327
12264TIP3    H158207   2.742   3.270  17.248 -0.5637 -1.1432  0.3877
12264TIP3    H258208   2.831   3.148  17.257  0.5498 -0.3888 -0.1351
12265TIP3   OH258209   5.948   5.283  13.208  0.1519 -0.5994 -0.6500
12265TIP3    H158210   5.932   5.350  13.141  0.7165  1.2361  0.9629
12265TIP3    H258211   5.991   5.330  13.279 -2.8204 -1.8261  2.1877
12266TIP3   OH258212   5.503   4.079  13.397  0.4289  0.0714  0.1397
12266TIP3    H158213   5.598   4.082  13.399  0.7017 -3.8810  1.7524
12266TIP3    H258214   5.476   4.113  13.482  0.7439 -2.4064  1.2998
12267TIP3   OH258215   1.559   2.811   2.616 -0.4939  0.2540 -0.0529
12267TIP3    H158216   1.524   2.856   2.539 -0.1348  1.6371  0.5719
12267TIP3    H258217   1.632   2.865   2.644  0.8432 -1.4523 -0.0710
12268TIP3   OH258218   4.813   3.912   5.575  0.4756  0.3850 -0.1431
12268TIP3    H158219   4.855   3.937   5.492  0.4487 -0.0328 -0.2852
12268TIP3    H258220   4.872   3.846   5.612 -1.1756 -1.9435 -1.4527
12269TIP3   OH258221   6.564   1.532  14.426 -0.2340 -0.3081  0.0315
12269TIP3    H158222   6.528   1.480  14.354  1.4052  0.5421 -1.4799
12269TIP3    H258223   6.501   1.603  14.437 -0.3684 -0.2969 -0.7471
12270TIP3   OH258224   4.344   4.809   1.868 -0.2897  0.4749 -0.0800
12270TIP3    H158225   4.317   4.888   1.913  0.6449  0.9231 -0.2803
12270TIP3    H258226   4.263   4.764   1.846 -0.7990  1.0503  0.6194
12271TIP3   OH258227   5.069   3.969   4.427  0.0050 -0.1560 -0.3798
12271TIP3    H158228   5.151   4.000   4.388  2.8033 -1.6684  3.5896
12271TIP3    H258229   5.047   3.891   4.377  0.0095  1.1320 -2.5115
12272TIP3   OH258230   4.742   4.646   2.654  0.0100  0.4216  0.0972
12272TIP3    H158231   4.762   4.694   2.734 -0.0181  0.3221  0.1634
12272TIP3    H258232   4.703   4.564   2.684 -1.2556  0.9434 -0.0282
12273TIP3   OH258233   3.621   6.719   3.418 -1.1167 -0.4925  0.4086
12273TIP3    H158234   3.670   6.785   3.369 -0.4634 -2.2311 -1.4422
12273TIP3    H258235   3.662   6.636   3.393 -0.8832 -1.5569  3.8206
12274TIP3   OH258236   3.380   2.309   4.301  0.7499  0.4583  0.1681
12274TIP3    H158237   3.300   2.272   4.265  1.5180 -1.4060  0.2462
12274TIP3    H258238   3.439   2.316   4.226  1.1490 -0.0214  0.4298
12275TIP3   OH258239   4.709   6.542   3.595 -0.0589  0.2388 -0.0810
12275TIP3    H158240   4.692   6.466   3.539  1.8550  0.6718 -1.3505
12275TIP3    H258241   4.738   6.504   3.678  0.9191 -0.4652 -0.7183
12276TIP3   OH258242   3.463   3.283   1.731 -0.4839 -0.5798  0.8052
12276TIP3    H158243   3.548   3.322   1.710  0.2691 -2.3092  0.4444
12276TIP3    H258244   3.399   3.351   1.709  0.5762 -0.4763 -2.4172
12277TIP3   OH258245   5.176   4.095   5.746 -0.6214  0.5295  0.0340
12277TIP3    H158246   5.213   4.008   5.762  1.1562  1.0027 -1.2494
12277TIP3    H258247   5.088   4.078   5.713 -0.3195 -0.7853 -0.1398
12278TIP3   OH258248   4.997   6.219   3.534 -0.3572  0.3092 -0.3615
12278TIP3    H158249   4.977   6.303   3.575  0.9075  1.7716 -2.5108
12278TIP3    H258250   5.089   6.203   3.555 -0.8526 -1.1086  0.8797
12279TIP3   OH258251   2.065   4.350   2.513  0.2200 -0.4520  0.0693
12279TIP3    H158252   2.136   4.310   2.463  0.8519 -1.5528  1.7632
12279TIP3    H258253   1.987   4.300   2.488  0.1277  0.3316 -1.2991
12280TIP3   OH258254   6.683   1.816   3.930 -0.4302 -0.4292 -0.1268
12280TIP3    H158255   6.670   1.900   3.886  0.8387 -0.1293  0.0344
12280TIP3    H258256   6.775   1.816   3.956 -1.2738 -0.1562  3.3906
12281TIP3   OH258257   6.295   3.069  13.675 -0.0455 -0.0568  0.6076
12281TIP3    H158258   6.213   3.058  13.626  0.1322 -0.5997  0.4209
12281TIP3    H258259   6.357   3.010  13.632  0.3819  0.1813  0.8884
12282TIP3   OH258260   4.151   5.274  13.548 -0.7093 -0.2965  0.3442
12282TIP3    H158261   4.239   5.259  13.515 -1.1013 -0.0770 -0.8531
12282TIP3    H258262   4.158   5.354  13.601 -0.0424 -0.7347  0.9365
12283TIP3   OH258263   0.509   6.166  11.296  0.4097 -0.0924 -0.2463
12283TIP3    H158264   0.432   6.222  11.285 -1.1364 -2.2377 -0.9841
12283TIP3    H258265   0.550   6.198  11.377 -1.6528  0.6534  0.5584
12284TIP3   OH258266   2.122   0.480  12.335 -0.1201 -0.0890  0.2176
12284TIP3    H158267   2.072   0.480  12.417 -0.6907  1.1110 -0.1050
12284TIP3    H258268   2.201   0.531  12.355  0.5451 -1.1868  0.4630
12285TIP3   OH258269   2.006   2.949  12.075  0.3646 -0.0055 -0.3417
12285TIP3    H158270   2.013   3.040  12.102 -0.6813  0.8128 -2.5359
12285TIP3    H258271   2.095   2.922  12.054  1.0581 -0.3654  2.6796
12286TIP3   OH258272   4.154   3.037   0.489 -0.7680  0.0089 -0.0772
12286TIP3    H158273   4.075   3.009   0.443 -1.6824  0.5464  1.1177
12286TIP3    H258274   4.143   3.003   0.578  0.6142 -0.3864 -0.0441
12287TIP3   OH258275   4.054   2.874  12.960  0.3835  0.0582  0.2446
12287TIP3    H158276   3.970   2.846  12.925 -0.0506 -1.2140  2.1329
12287TIP3    H258277   4.032   2.940  13.027  1.0555  1.2112 -0.6350
12288TIP3   OH258278   0.996   4.521  15.523  0.6562  0.2501  0.4850
12288TIP3    H158279   0.911   4.543  15.561  0.3840  1.2220 -0.6262
12288TIP3    H258280   1.059   4.546  15.591  0.2571  3.0409 -0.0232
12289TIP3   OH258281   1.868   4.598  15.372 -0.0987  0.4266 -0.3642
12289TIP3    H158282   1.905   4.510  15.358  2.0746  0.7380  2.3590
12289TIP3    H258283   1.786   4.598  15.324  0.5708 -2.5609 -1.7369
12290TIP3   OH258284   2.190   5.353  13.633 -0.5032  0.0581 -0.1578
12290TIP3    H158285   2.247   5.283  13.665  1.1803  0.7693 -1.4738
12290TIP3    H258286   2.217   5.431  13.682  0.2525  0.5717 -1.3602
12291TIP3   OH258287   3.908   5.034   0.094  0.1754 -0.0208 -0.5017
12291TIP3    H158288   3.905   5.071   0.182 -0.9725  0.0644 -0.5709
12291TIP3    H258289   3.991   5.065   0.058  0.6578 -0.0561  0.5403
12292TIP3   OH258290   5.308   2.747  15.899  0.1436  0.4460 -0.1624
12292TIP3    H158291   5.258   2.782  15.826 -2.1778 -0.7890  0.7449
12292TIP3    H258292   5.299   2.812  15.969 -1.1502 -0.2560  0.3490
12293TIP3   OH258293   2.502   6.583   1.470 -0.2300  0.3015  0.3935
12293TIP3    H158294   2.537   6.662   1.512 -2.1510  0.6269  1.4815
12293TIP3    H258295   2.409   6.601   1.459 -0.1921 -0.5855 -2.2770
12294TIP3   OH258296   4.945   1.304   4.513 -0.1550  0.0273 -0.1353
12294TIP3    H158297   5.019   1.362   4.531  0.2969 -0.9494  1.3340
12294TIP3    H258298   4.936   1.251   4.592 -1.0080 -1.4208 -1.1526
12295TIP3   OH258299   3.204   5.906   4.915  0.2646 -0.1069 -0.4098
12295TIP3    H158300   3.256   5.860   4.982  0.3991 -0.7719 -0.9630
12295TIP3    H258301   3.114   5.894   4.944  0.2437 -1.4244 -0.9638
12296TIP3   OH258302   4.425   4.372  17.201 -0.3458  0.2532  0.1250
12296TIP3    H158303   4.338   4.412  17.205 -1.2104 -1.1627 -2.4423
12296TIP3    H258304   4.478   4.434  17.151 -1.0367 -0.6341 -1.7877
12297TIP3   OH258305   1.154   0.579  12.411 -0.0062  0.5224 -0.2410
12297TIP3    H158306   1.215   0.604  12.481  1.2158  0.6272 -1.3056
12297TIP3    H258307   1.068   0.582  12.452  0.7694 -0.7285  1.6456
12298TIP3   OH258308   2.957   3.294  14.639  0.1022 -0.3118  0.5316
12298TIP3    H158309   2.921   3.363  14.695 -0.0868 -0.1399  0.1986
12298TIP3    H258310   3.012   3.340  14.577  1.4662 -0.6320  1.4630
12299TIP3   OH258311   5.153   5.132   4.925 -0.0480  0.4735 -0.9192
12299TIP3    H158312   5.125   5.214   4.885  0.5844  1.3668  0.4058
12299TIP3    H258313   5.227   5.156   4.981 -0.9837 -0.6694  0.9154
12300TIP3   OH258314   0.719   6.576  13.438 -0.2989 -0.3136 -0.0115
12300TIP3    H158315   0.784   6.609  13.500 -0.6780  2.1987 -0.8686
12300TIP3    H258316   0.664   6.651  13.418 -0.8788 -1.3084 -2.5588
12301TIP3   OH258317   2.625   0.977   3.575 -0.3385  0.9735 -0.1284
12301TIP3    H158318   2.604   1.067   3.552 -3.7657  0.4907  0.4950
12301TIP3    H258319   2.709   0.982   3.621  1.1663  3.3357 -2.8354
12302TIP3   OH258320   0.786   5.737   2.892  0.3314 -0.1315 -0.1361
12302TIP3    H158321   0.855   5.705   2.950  0.3439  0.2060  0.0380
12302TIP3    H258322   0.717   5.768   2.952  0.4288  0.4051 -0.2912
12303TIP3   OH258323   0.795   4.879   3.647  0.0819  0.0775  0.4106
12303TIP3    H158324   0.749   4.801   3.617 -0.2953  0.6695 -0.6164
12303TIP3    H258325   0.827   4.920   3.566  1.2800  0.3819  1.0134
12304TIP3   OH258326   6.269   6.696   2.186  0.5535  0.1677  0.2205
12304TIP3    H158327   6.242   6.787   2.173 -1.3566 -0.4480 -0.5094
12304TIP3    H258328   6.351   6.688   2.136  0.5860  1.3960  0.0406
12305TIP3   OH258329   2.623   5.969   2.611 -0.3726 -0.0406  0.3197
12305TIP3    H158330   2.548   5.949   2.666  0.0002  1.1110  1.2914
12305TIP3    H258331   2.698   5.973   2.671  0.0189  1.3840 -0.2194
12306TIP3   OH258332   2.471   5.945   4.853 -0.1019 -0.4750  0.3875
12306TIP3    H158333   2.467   5.877   4.920  1.3251 -0.3130  0.6686
12306TIP3    H258334   2.549   5.924   4.802 -0.0061  0.5784  0.0787
12307TIP3   OH258335   2.965   3.723  17.154 -0.2741 -0.1453  0.1914
12307TIP3    H158336   3.043   3.731  17.099 -0.5294 -0.9681 -0.3170
12307TIP3    H258337   2.915   3.802  17.136  1.2275  1.2498  1.8370
12308TIP3   OH258338   3.098   5.447  10.465  0.6286 -0.3541 -0.7837
12308TIP3    H158339   3.004   5.464  10.474  0.7278  0.4091 -1.1011
12308TIP3    H258340   3.106   5.397  10.383  0.3395 -1.9414  0.1233
12309TIP3   OH258341   5.043   6.654   5.750  0.0805 -0.1824  0.5624
12309TIP3    H158342   5.046   6.581   5.812 -0.8514  1.9252  3.3386
12309TIP3    H258343   5.036   6.732   5.806 -1.2321  1.8908 -2.2452
12310TIP3   OH258344   6.051   5.627  11.235  0.7935 -0.1112  0.2741
12310TIP3    H158345   5.988   5.575  11.285 -0.5864  0.6062 -0.6535
12310TIP3    H258346   6.127   5.570  11.226 -0.3937 -1.7002 -0.1069
12311TIP3   OH258347   3.248   3.830  13.712 -0.3205 -0.2908 -0.0590
12311TIP3    H158348   3.216   3.747  13.677  0.0881 -1.3415  1.9248
12311TIP3    H258349   3.292   3.807  13.794 -1.5284  2.0490  1.3597
12312TIP3   OH258350   5.809   3.763   6.522  0.1909 -0.1709 -0.8656
12312TIP3    H158351   5.736   3.716   6.482 -0.3951 -1.2283  1.2776
12312TIP3    H258352   5.779   3.853   6.529 -0.3199 -0.3038 -1.2902
12313TIP3   OH258353   1.756   5.834   4.823 -0.0166  0.1816 -0.0531
12313TIP3    H158354   1.709   5.882   4.755 -1.1303 -1.1576 -0.2766
12313TIP3    H258355   1.701   5.758   4.841  1.4244 -0.7388  0.6586
12314TIP3   OH258356   5.658   6.156   0.543  0.2511 -0.0106 -0.2741
12314TIP3    H158357   5.622   6.088   0.485  1.6062 -0.5424 -0.5407
12314TIP3    H258358   5.751   6.159   0.520  0.1985  2.0654 -0.3819
12315TIP3   OH258359   1.949   5.006  14.232  0.1867 -0.5944  0.2180
12315TIP3    H158360   1.919   5.047  14.151  2.9046  0.2961 -0.4344
12315TIP3    H258361   1.997   4.929  14.203  0.2885 -0.8523  1.0609
12316TIP3   OH258362   3.812   6.025  12.075 -0.3279  0.1957 -0.0659
12316TIP3    H158363   3.812   6.107  12.125  3.5759  1.0920 -1.2422
12316TIP3    H258364   3.783   6.050  11.988  1.3694  0.5352 -0.5728
12317TIP3   OH258365   2.244   3.886   2.349 -0.0499  0.0922  0.1198
12317TIP3    H158366   2.296   3.891   2.429 -0.0564  1.1016  0.0672
12317TIP3    H258367   2.177   3.953   2.359 -0.3769 -0.1306 -0.5036
12318TIP3   OH258368   1.979   4.187   1.158 -0.3803 -0.5022  0.9135
12318TIP3    H158369   1.980   4.102   1.201  1.5700 -0.9479  0.0776
12318TIP3    H258370   1.946   4.170   1.070  2.0849 -0.8696 -0.0174
12319TIP3   OH258371   2.823   3.645   4.264 -0.4056 -0.3975  0.5331
12319TIP3    H158372   2.772   3.661   4.343  1.4290  2.5479  1.3022
12319TIP3    H258373   2.889   3.582   4.290 -0.0383  0.2840  1.2975
12320TIP3   OH258374   1.794   5.799  13.159 -0.3433  0.2444 -0.0169
12320TIP3    H158375   1.759   5.883  13.189 -2.3239  0.2257 -2.0613
12320TIP3    H258376   1.842   5.765  13.235  0.1571  2.9699  1.0119
12321TIP3   OH258377   3.287   5.484  13.093 -0.0553 -0.6119 -0.4203
12321TIP3    H158378   3.347   5.529  13.034  0.7772 -0.4313  0.5406
12321TIP3    H258379   3.327   5.397  13.106 -0.3083 -0.7013 -0.2334
12322TIP3   OH258380   3.512   5.836   1.892 -0.6800 -0.5077 -0.4658
12322TIP3    H158381   3.529   5.746   1.922  2.2303  0.5545  1.5246
12322TIP3    H258382   3.430   5.860   1.935 -1.8823 -2.3805 -1.5795
12323TIP3   OH258383   0.803   5.073  13.546 -0.3450 -0.0090  0.4673
12323TIP3    H158384   0.893   5.042  13.536 -1.4507 -4.2203  1.4612
12323TIP3    H258385   0.809   5.144  13.609  2.3384  0.4068 -0.1402
12324TIP3   OH258386   3.387   2.282  12.493 -0.2568 -0.2329 -0.1160
12324TIP3    H158387   3.324   2.350  12.470  1.1610  0.9752 -0.5793
12324TIP3    H258388   3.355   2.246  12.576 -0.9563  1.1094  0.2174
12325TIP3   OH258389   3.911   6.128  15.174 -0.0237  0.6055 -0.2026
12325TIP3    H158390   3.911   6.220  15.149  3.1820  0.7619 -0.0294
12325TIP3    H258391   3.877   6.083  15.097  0.8094  1.7779 -1.3087
12326TIP3   OH258392   4.760   0.111   0.714  0.4005 -0.5027  0.2313
12326TIP3    H158393   4.779   0.076   0.801  0.7259  0.0992  0.4041
12326TIP3    H258394   4.728   0.199   0.730  1.2445 -0.0863 -0.3055
12327TIP3   OH258395   5.095   3.641   6.253  0.1333  0.5558  0.1295
12327TIP3    H158396   5.101   3.679   6.340  1.6254  1.1713 -0.2169
12327TIP3    H258397   5.034   3.568   6.263 -0.2865  1.0646  1.5132
12328TIP3   OH258398   3.536   4.605  13.569  0.1261 -0.5079  0.4503
12328TIP3    H158399   3.469   4.674  13.575 -0.0940 -0.6932  0.0998
12328TIP3    H258400   3.488   4.524  13.584 -0.0250 -0.7916 -1.3489
12329TIP3   OH258401   3.800   5.926  12.828 -0.0523 -0.3898 -0.3837
12329TIP3    H158402   3.761   5.861  12.769 -0.9900  0.1055 -0.3211
12329TIP3    H258403   3.845   5.988  12.770 -0.3814 -0.2899 -0.5285
12330TIP3   OH258404   4.176   3.545  10.751  0.1794 -0.2133  0.3481
12330TIP3    H158405   4.169   3.450  10.743 -1.7778 -0.2556  2.0220
12330TIP3    H258406   4.243   3.558  10.818 -0.4403 -0.4470  1.0161
12331TIP3   OH258407   6.486   3.516  14.599 -0.1518 -0.2340 -0.0202
12331TIP3    H158408   6.471   3.434  14.646  2.1265 -0.3941  0.5434
12331TIP3    H258409   6.492   3.582  14.668  1.0019 -0.1099 -0.2197
12332TIP3   OH258410   3.871   4.975  15.324 -0.3112 -0.1191  0.1120
12332TIP3    H158411   3.946   4.945  15.274  0.2442  0.5746  0.5125
12332TIP3    H258412   3.891   4.952  15.415 -0.5278  0.1517  0.2333
12333TIP3   OH258413   4.332   3.983  13.591  0.0940  0.0044 -0.0873
12333TIP3    H158414   4.402   3.948  13.646  0.4589  1.0963  0.1704
12333TIP3    H258415   4.374   4.054  13.542 -0.3920 -0.4955 -1.2749
12334TIP3   OH258416   1.230   0.379   1.376  0.2236 -0.3801 -0.1850
12334TIP3    H158417   1.161   0.427   1.329 -0.5039  0.2791  1.4823
12334TIP3    H258418   1.307   0.387   1.320 -1.4856 -3.1158 -3.3435
12335TIP3   OH258419   2.686   5.731  17.029 -0.9822  0.4733 -0.4683
12335TIP3    H158420   2.694   5.753  17.122  1.1118 -0.7327 -0.3016
12335TIP3    H258421   2.596   5.699  17.019 -1.1479  0.3439  1.2156
12336TIP3   OH258422   0.703   5.294  15.481 -0.8620  0.0958  0.2384
12336TIP3    H158423   0.658   5.210  15.474 -0.1975 -0.7341  3.8169
12336TIP3    H258424   0.772   5.290  15.414 -1.2280 -1.9472 -0.0752
12337TIP3   OH258425   3.078   2.703   2.707 -0.1793  0.0297 -0.3251
12337TIP3    H158426   3.028   2.698   2.789  0.4017  0.5110  0.0689
12337TIP3    H258427   3.115   2.616   2.696  1.2392  0.4286  0.9094
12338TIP3   OH258428   4.928   4.990   5.905 -0.3460  0.0583  0.0267
12338TIP3    H158429   4.955   5.081   5.890  1.6525  0.0877  2.9967
12338TIP3    H258430   4.835   4.989   5.881 -0.0779  2.4628 -1.4897
12339TIP3   OH258431   2.343   5.740   2.488  0.0429 -0.2216 -0.4521
12339TIP3    H158432   2.285   5.749   2.413  0.1201 -0.8337 -0.5883
12339TIP3    H258433   2.366   5.830   2.512 -2.0244  0.1047  0.4654
12340TIP3   OH258434   3.074   2.389  13.465  0.4454 -0.6280  0.1735
12340TIP3    H158435   3.027   2.471  13.453  0.8914 -0.4516 -0.4362
12340TIP3    H258436   3.145   2.392  13.400 -0.1600 -1.9483 -0.6011
12341TIP3   OH258437   0.065   0.190  13.650 -0.3450  0.6424  0.2803
12341TIP3    H158438   0.084   0.102  13.615  1.9625  0.3943  1.8860
12341TIP3    H258439   0.084   0.249  13.577 -0.1654 -0.1163 -0.3013
12342TIP3   OH258440   0.471   1.139   3.250 -0.2780  0.1172 -0.1717
12342TIP3    H158441   0.467   1.079   3.176 -1.6482 -0.0689  0.0282
12342TIP3    H258442   0.384   1.134   3.291 -0.5907  2.4795 -0.3695
12343TIP3   OH258443   3.253   0.168   6.532  0.1413 -0.4540  0.3762
12343TIP3    H158444   3.271   0.203   6.444 -0.6797 -1.2574 -0.1176
12343TIP3    H258445   3.287   0.235   6.591  0.2576  0.3296 -0.5547
12344TIP3   OH258446   5.135   4.122   0.411 -0.3251  0.3926 -0.3648
12344TIP3    H158447   5.132   4.181   0.486  1.2501 -1.9765  1.7284
12344TIP3    H258448   5.046   4.086   0.406 -0.7930  1.5171 -0.5017
12345TIP3   OH258449   5.588   2.741   2.033  0.1990  0.0628 -0.3852
12345TIP3    H158450   5.538   2.705   1.960  0.1376 -0.9484  0.1336
12345TIP3    H258451   5.536   2.816   2.064 -0.0427  0.1650 -1.0250
12346TIP3   OH258452   5.219   5.489  13.883 -0.2283 -0.1939 -0.1707
12346TIP3    H158453   5.142   5.451  13.925 -1.5255  0.6071 -1.7274
12346TIP3    H258454   5.228   5.575  13.923  2.2207 -1.6222  2.7565
12347TIP3   OH258455   0.466   2.992  16.639 -0.5401  0.1379 -0.0745
12347TIP3    H158456   0.482   2.946  16.557 -1.4521 -2.3698  1.0523
12347TIP3    H258457   0.546   3.042  16.656  0.6312 -1.2558 -1.2685
12348TIP3   OH258458   3.370   4.760  16.954  0.1791  0.1531  0.2615
12348TIP3    H158459   3.389   4.684  17.008 -2.4926  0.6625  2.1501
12348TIP3    H258460   3.455   4.793  16.927  1.6936 -0.4385  3.8098
12349TIP3   OH258461   1.413   3.356   2.577 -0.3591 -0.5942  0.1873
12349TIP3    H158462   1.357   3.412   2.631 -2.7927 -0.8041 -1.9161
12349TIP3    H258463   1.419   3.273   2.625  2.1675  0.8699  2.6723
12350TIP3   OH258464   5.495   3.209  14.290 -0.0017  0.2764  0.3024
12350TIP3    H158465   5.517   3.240  14.202  0.8280 -0.3124  0.2864
12350TIP3    H258466   5.493   3.288  14.344  2.2404  0.3957  0.3035
12351TIP3   OH258467   5.038   6.370   1.135 -0.0170  0.4001  0.3210
12351TIP3    H158468   4.968   6.408   1.083  0.9694  1.4330 -0.2883
12351TIP3    H258469   5.113   6.427   1.120  0.7971 -0.3363  1.4314
12352TIP3   OH258470   3.489   2.654   0.639 -0.3974  0.2483 -0.0556
12352TIP3    H158471   3.421   2.619   0.697 -0.2089  0.4754  0.3045
12352TIP3    H258472   3.542   2.710   0.695  0.8143 -0.8661 -0.0424
12353TIP3   OH258473   3.796   3.903  16.862  0.1925  0.1166  0.5210
12353TIP3    H158474   3.865   3.957  16.902  0.5710  0.8019 -1.0066
12353TIP3    H258475   3.821   3.813  16.884  0.4774  0.4449  1.6615
12354TIP3   OH258476   5.690   3.780  15.252 -0.2473 -0.5228 -0.8127
12354TIP3    H158477   5.779   3.777  15.216 -0.4477  1.7485 -1.6373
12354TIP3    H258478   5.644   3.843  15.197 -0.8299  2.5524  2.7980
12355TIP3   OH258479   4.183   0.535   1.748 -0.3871  0.7183 -0.2668
12355TIP3    H158480   4.154   0.466   1.807  0.0004 -0.9528 -1.9135
12355TIP3    H258481   4.138   0.516   1.665 -1.8123  3.6311 -0.3014
12356TIP3   OH258482   2.233   2.657  13.740  0.1329  0.0706 -0.5512
12356TIP3    H158483   2.140   2.634  13.742  0.0575  0.3824  0.8270
12356TIP3    H258484   2.279   2.574  13.745 -0.1062 -0.0170  0.5430
12357TIP3   OH258485   0.176   0.967  16.331 -0.2565  0.0238 -0.1624
12357TIP3    H158486   0.222   0.914  16.396  0.6172 -0.4657 -1.1552
12357TIP3    H258487   0.089   0.982  16.369  0.7307  1.1177  1.8432
12358TIP3   OH258488   5.791   0.926  14.078  0.4111 -0.0906 -0.7744
12358TIP3    H158489   5.868   0.954  14.127 -0.0297 -0.3682  0.0908
12358TIP3    H258490   5.825   0.905  13.991  1.0065  1.6104 -0.9915
12359TIP3   OH258491   2.295   0.551   4.476 -0.3171 -0.1239  0.0575
12359TIP3    H158492   2.340   0.585   4.399  0.8676 -1.4643  0.1120
12359TIP3    H258493   2.209   0.593   4.474  0.7151  2.1051 -0.3499
12360TIP3   OH258494   1.420   2.232   5.386 -0.1910  0.1593 -0.4445
12360TIP3    H158495   1.437   2.273   5.301  1.6580 -0.9921 -0.6961
12360TIP3    H258496   1.507   2.226   5.427 -0.6130 -1.8619  0.2898
12361TIP3   OH258497   2.948   6.069   0.023  0.5992 -0.2624 -0.2954
12361TIP3    H158498   3.030   6.048  -0.023  1.1866  1.0984  0.0840
12361TIP3    H258499   2.975   6.125   0.095 -0.6744  0.1966 -0.1538
12362TIP3   OH258500   5.783   4.831   1.446  0.3420 -0.2061  0.6127
12362TIP3    H158501   5.717   4.877   1.393  0.1025 -0.0737  1.0193
12362TIP3    H258502   5.863   4.836   1.394 -0.1271 -1.0034 -0.2258
12363TIP3   OH258503   5.757   1.323   4.341 -0.2011 -0.0977  0.2756
12363TIP3    H158504   5.844   1.355   4.362 -0.3902  0.2915  0.4778
12363TIP3    H258505   5.765   1.227   4.343 -0.0155 -0.0774  1.3115
12364TIP3   OH258506   3.361   0.631  12.334 -0.3427  0.0041  0.4011
12364TIP3    H158507   3.373   0.691  12.261 -2.5508 -1.2972 -1.1388
12364TIP3    H258508   3.354   0.545  12.294  0.7985 -1.1092  2.3896
12365TIP3   OH258509   5.250   3.901   0.818 -0.1155  0.1609  0.1627
12365TIP3    H158510   5.219   3.819   0.781 -0.4863  0.6368 -0.6162
12365TIP3    H258511   5.185   3.966   0.791 -0.0603  0.6409  1.1281
12366TIP3   OH258512   2.984   3.973  15.233 -0.3494 -0.6627 -0.0429
12366TIP3    H158513   2.976   4.068  15.235 -0.9521 -0.7140  0.3871
12366TIP3    H258514   3.071   3.955  15.268 -0.3373 -0.2813  0.1256
12367TIP3   OH258515   4.410   1.958  12.013 -0.5469  0.4894 -0.0474
12367TIP3    H158516   4.484   2.002  11.972 -0.8169 -0.3084 -1.4777
12367TIP3    H258517   4.436   1.866  12.017 -0.6452  0.5080  1.3620
12368TIP3   OH258518   1.367   4.010   5.858  0.4955 -0.1346 -0.6835
12368TIP3    H158519   1.427   4.026   5.786  0.5005  2.5616 -0.1785
12368TIP3    H258520   1.423   4.013   5.936 -0.1266  1.8421 -0.2569
12369TIP3   OH258521   6.455   6.757  16.772 -0.5141 -0.1094  0.2564
12369TIP3    H158522   6.543   6.794  16.765 -0.9172  0.5756 -1.9593
12369TIP3    H258523   6.466   6.665  16.747  0.0076 -0.8481  2.9302
12370TIP3   OH258524   2.483   2.207  11.377  0.7388  0.2092  0.0648
12370TIP3    H158525   2.489   2.159  11.294 -2.4293 -0.7111  0.2297
12370TIP3    H258526   2.461   2.296  11.351 -1.1823 -0.2879 -0.1264
12371TIP3   OH258527   5.606   3.229  15.548 -0.2226  0.0313  0.1744
12371TIP3    H158528   5.630   3.190  15.463 -0.9882  3.4354 -1.8017
12371TIP3    H258529   5.684   3.279  15.573 -0.9888  1.4282 -0.1210
12372TIP3   OH258530   2.209   0.319  11.116  0.0982  0.2189  0.4965
12372TIP3    H158531   2.164   0.357  11.191  0.0553  1.6282 -0.2033
12372TIP3    H258532   2.221   0.392  11.056  0.8869 -0.7003 -0.5107
12373TIP3   OH258533   3.627   5.286  13.968 -0.1237  0.4441  0.3362
12373TIP3    H158534   3.613   5.318  13.879  1.5503  3.1454  0.9214
12373TIP3    H258535   3.549   5.311  14.016  0.2430  1.7810  0.2700
12374TIP3   OH258536   3.817   2.694  16.978  0.1904 -0.0944  0.6266
12374TIP3    H158537   3.844   2.695  16.886  1.4163  1.6287  0.9477
12374TIP3    H258538   3.899   2.685  17.027 -0.0811  1.9681  1.5704
12375TIP3   OH258539   1.281   4.818   0.056  0.2252 -0.9172  0.8145
12375TIP3    H158540   1.348   4.840   0.122  1.1144 -0.8835 -0.0760
12375TIP3    H258541   1.255   4.903   0.020  0.3741 -1.0002  0.5140
12376TIP3   OH258542   4.722   0.871  12.427  0.0715 -0.3383  0.0058
12376TIP3    H158543   4.725   0.966  12.416  0.0424 -0.4326 -0.9723
12376TIP3    H258544   4.735   0.857  12.520 -0.4272  0.6500  0.2432
12377TIP3   OH258545   6.712   3.535  15.748  0.2074 -0.2797 -0.4717
12377TIP3    H158546   6.658   3.590  15.804 -0.2246 -1.9954  0.8969
12377TIP3    H258547   6.780   3.593  15.715 -0.3755  1.1167  0.6848
12378TIP3   OH258548   0.051   0.059   2.939 -0.5169  0.1509  0.4159
12378TIP3    H158549   0.043  -0.028   2.977  0.9077 -0.5817 -0.8710
12378TIP3    H258550   0.137   0.090   2.967 -0.6607  0.7840  0.1627
12379TIP3   OH258551   5.182   1.568   1.099 -0.6647  0.0406  0.1293
12379TIP3    H158552   5.097   1.589   1.137 -0.1779 -0.4045  1.5216
12379TIP3    H258553   5.228   1.652   1.097 -0.4045 -0.0529  1.3258
12380TIP3   OH258554   0.638   1.929  12.141 -0.1143  0.3932 -0.3428
12380TIP3    H158555   0.550   1.920  12.105 -0.0251  2.1652 -1.1116
12380TIP3    H258556   0.675   1.841  12.137 -1.9086 -0.4295  0.2131
12381TIP3   OH258557   3.386   1.746   3.023 -0.2367  0.4283 -0.2938
12381TIP3    H158558   3.318   1.679   3.030  0.1051  0.0142 -0.8381
12381TIP3    H258559   3.353   1.807   2.957 -1.5916  2.0863  1.7797
12382TIP3   OH258560   4.425   1.296   3.201  0.1472 -0.3783 -0.3075
12382TIP3    H158561   4.518   1.293   3.180 -0.1307  0.9915 -1.9560
12382TIP3    H258562   4.420   1.348   3.281  0.7099  1.3719 -1.3345
12383TIP3   OH258563   4.791   0.994  13.010 -0.3432 -0.2816 -0.5573
12383TIP3    H158564   4.698   0.972  13.013 -0.4449 -0.0143 -1.3611
12383TIP3    H258565   4.806   1.018  12.918  0.3841  0.2551 -0.3041
12384TIP3   OH258566   0.244   0.375  16.568 -0.4220 -0.2582 -0.2926
12384TIP3    H158567   0.174   0.316  16.541 -1.6504  1.5930 -1.3700
12384TIP3    H258568   0.312   0.366  16.501 -1.1577  0.4403 -1.1533
12385TIP3   OH258569   3.115   6.284  16.293 -0.0775 -0.3037  0.5057
12385TIP3    H158570   3.162   6.204  16.268 -1.1450 -0.6600 -0.4554
12385TIP3    H258571   3.027   6.272  16.257 -0.9434  0.3193  2.2663
12386TIP3   OH258572   2.199   5.051  14.069 -0.0225 -0.6122 -0.4724
12386TIP3    H158573   2.176   5.079  14.158 -1.4029 -2.5344 -0.1446
12386TIP3    H258574   2.198   5.130  14.017 -1.6540  0.2302  0.7577
12387TIP3   OH258575   4.093   4.083   2.554  0.1020 -0.9465  0.4368
12387TIP3    H158576   4.116   4.017   2.488  1.5436 -1.2809  1.2469
12387TIP3    H258577   4.121   4.045   2.637  1.0279  0.7148  0.9186
12388TIP3   OH258578   0.724   6.416   6.067  0.5029 -0.1498  0.2855
12388TIP3    H158579   0.675   6.347   6.113  0.7542 -0.1223  0.5999
12388TIP3    H258580   0.796   6.437   6.127  2.2539 -1.7694 -1.1134
12389TIP3   OH258581   4.495   3.274  14.620 -0.3013 -0.2848  0.0938
12389TIP3    H158582   4.446   3.333  14.676 -0.2928  0.6681 -0.8742
12389TIP3    H258583   4.449   3.277  14.536  1.2996  0.5316 -0.8093
12390TIP3   OH258584   3.720   5.248   0.780 -0.6882 -0.0378  0.4689
12390TIP3    H158585   3.771   5.170   0.804 -2.0043 -1.6134 -1.4353
12390TIP3    H258586   3.783   5.304   0.734 -0.0031 -0.6080  0.6863
12391TIP3   OH258587   2.025   0.429  11.365  0.2729 -0.7426 -0.5676
12391TIP3    H158588   1.978   0.479  11.431  1.2394 -0.7794  0.1799
12391TIP3    H258589   2.083   0.493  11.323 -0.4158 -0.6937 -1.4815
12392TIP3   OH258590   1.740   2.592   3.120 -0.0396  0.6748  0.0487
12392TIP3    H158591   1.694   2.634   3.047  0.2888  1.4332  0.2601
12392TIP3    H258592   1.826   2.570   3.084 -0.3215 -0.1210 -0.1522
12393TIP3   OH258593   0.707   3.449  14.009 -0.0507  0.3411  0.1568
12393TIP3    H158594   0.748   3.498  14.081  0.3797  0.3803 -0.1096
12393TIP3    H258595   0.645   3.390  14.052  0.2779  0.2937  0.5723
12394TIP3   OH258596   2.449   3.998  13.494 -0.3763  0.0748 -0.2457
12394TIP3    H158597   2.495   4.082  13.487 -0.4040  0.0083 -1.4559
12394TIP3    H258598   2.372   4.009  13.438 -0.2692 -0.8157 -0.5888
12395TIP3   OH258599   6.095   1.554  14.565  0.1773 -0.1818 -0.5718
12395TIP3    H158600   6.114   1.513  14.480 -0.4870 -0.3754 -0.6281
12395TIP3    H258601   6.031   1.497  14.606 -0.9378  0.8910 -0.7432
12396TIP3   OH258602   1.682   0.143   4.071 -0.2058 -0.7104 -0.8557
12396TIP3    H158603   1.672   0.237   4.057 -0.0899 -0.6313 -0.4358
12396TIP3    H258604   1.677   0.132   4.166 -0.5443 -1.1684 -0.9185
12397TIP3   OH258605   3.175   4.288  12.720 -0.0637 -0.2292  1.1632
12397TIP3    H158606   3.182   4.372  12.675 -0.0888  0.2865  2.0922
12397TIP3    H258607   3.113   4.238  12.667 -0.6113  0.6027  0.9854
12398TIP3   OH258608   0.501   0.046  15.405  0.2534  0.9352  0.6094
12398TIP3    H158609   0.494   0.100  15.326  2.7517  0.1372 -0.2519
12398TIP3    H258610   0.444   0.089  15.469 -1.5329  1.8501 -1.4574
12399TIP3   OH258611   3.896   0.631   0.079  0.0491 -0.4914  0.4167
12399TIP3    H158612   3.916   0.540   0.058  0.7401 -0.5753  1.3913
12399TIP3    H258613   3.802   0.632   0.096  0.2814 -1.3277  1.8447
12400TIP3   OH258614   6.432   0.010  13.137  0.6256 -0.2202 -0.4160
12400TIP3    H158615   6.401   0.006  13.046 -0.5096 -2.8803 -0.0020
12400TIP3    H258616   6.527   0.000  13.130  0.7117  0.9935 -1.3420
12401TIP3   OH258617   6.790   5.634  16.631  0.1730 -0.1292 -0.0273
12401TIP3    H158618   6.762   5.585  16.708 -0.3662 -0.8136 -0.6492
12401TIP3    H258619   6.710   5.646  16.580  0.7143 -0.6636 -1.0311
12402TIP3   OH258620   3.719   5.188   1.198 -0.1873  0.2038 -0.0777
12402TIP3    H158621   3.748   5.150   1.281 -2.1328 -0.1102  0.5317
12402TIP3    H258622   3.726   5.283   1.212 -3.2021  0.3166  1.6646
12403TIP3   OH258623   3.992   2.451  12.784  0.2409  0.0181 -0.7088
12403TIP3    H158624   4.001   2.359  12.809 -1.0777  0.3658  1.1944
12403TIP3    H258625   3.957   2.449  12.695  0.1713 -1.3158 -0.6622
12404TIP3   OH258626   5.915   6.282   1.038  0.1563 -0.2100 -0.1391
12404TIP3    H158627   5.930   6.320   1.125  1.2932 -0.3197 -0.2689
12404TIP3    H258628   5.832   6.236   1.046  0.0095  0.1838  0.7527
12405TIP3   OH258629   1.893   1.875   2.622  0.1710 -0.3388 -0.1201
12405TIP3    H158630   1.965   1.918   2.669  0.1096  0.4540 -0.7288
12405TIP3    H258631   1.906   1.900   2.531 -1.8848  1.2814 -0.0167
12406TIP3   OH258632   5.210   0.816  16.768  0.3424 -0.4327 -0.4679
12406TIP3    H158633   5.197   0.722  16.756 -0.0675 -0.5855  0.9206
12406TIP3    H258634   5.295   0.834  16.729  0.6578 -1.4900 -0.3135
12407TIP3   OH258635   5.351   4.477   1.861  0.4346 -0.5174  0.0342
12407TIP3    H158636   5.343   4.571   1.845 -1.5113 -0.8137 -1.0300
12407TIP3    H258637   5.439   4.467   1.897  1.1943  1.5473 -1.0484
12408TIP3   OH258638   6.688   6.440  10.988  0.1784 -0.5764 -0.2406
12408TIP3    H158639   6.595   6.465  10.993  0.9853  2.8000  0.5651
12408TIP3    H258640   6.715   6.428  11.079  1.0140  0.7700 -0.2839
12409TIP3   OH258641   0.206   1.810   4.840 -0.0510 -0.3145  0.0149
12409TIP3    H158642   0.291   1.788   4.803  0.0138  0.1693 -0.1292
12409TIP3    H258643   0.204   1.906   4.842  0.3961 -0.3059  2.2922
12410TIP3   OH258644   1.473   5.536   5.680  0.3945 -0.1564  0.5488
12410TIP3    H158645   1.545   5.481   5.647 -0.7788 -1.5745  0.2666
12410TIP3    H258646   1.413   5.474   5.721 -1.4667  0.7871 -0.6459
12411TIP3   OH258647   5.223   2.751   4.143 -0.8850  0.5392  0.0615
12411TIP3    H158648   5.141   2.713   4.175 -0.2512  0.2061  1.3853
12411TIP3    H258649   5.234   2.831   4.193 -0.4249  0.6024 -0.1351
12412TIP3   OH258650   3.050   0.893   3.955 -0.0472 -0.5219 -0.3524
12412TIP3    H158651   3.092   0.826   4.009  0.6307 -1.1191 -1.5560
12412TIP3    H258652   3.042   0.852   3.869  1.5563  1.3361 -1.4958
12413TIP3   OH258653   5.341   2.610  11.476  0.0078  0.5000 -0.3266
12413TIP3    H158654   5.288   2.657  11.541  1.6258  1.5735  0.2757
12413TIP3    H258655   5.279   2.588  11.406 -1.6373 -0.0526  1.2231
12414TIP3   OH258656   5.204   6.022  16.958 -0.5481 -0.2959 -0.1000
12414TIP3    H158657   5.172   5.965  16.889  0.8017  0.0760 -1.0848
12414TIP3    H258658   5.238   6.099  16.912 -0.6428  0.4775  1.0621
12415TIP3   OH258659   1.004   2.405   6.290 -0.2214 -0.3987  0.0318
12415TIP3    H158660   1.096   2.421   6.312 -0.4321 -0.6429  1.1596
12415TIP3    H258661   1.005   2.324   6.238  0.2671  0.0084 -0.5978
12416TIP3   OH258662   2.945   4.315   4.047 -0.3777  0.4439  1.0163
12416TIP3    H158663   2.889   4.293   3.973  0.1672  0.7556  0.5023
12416TIP3    H258664   2.890   4.368   4.104 -1.1836 -0.8065  1.4501
12417TIP3   OH258665   4.592   1.505   4.141 -0.3412 -0.6909  0.5961
12417TIP3    H158666   4.595   1.600   4.152  0.0938 -0.4177 -1.4469
12417TIP3    H258667   4.501   1.487   4.114 -0.1308 -0.6856 -0.1407
12418TIP3   OH258668   4.261   3.847   3.913  0.0038 -0.3028  0.8321
12418TIP3    H158669   4.292   3.872   4.000 -0.9812  0.0131  1.0999
12418TIP3    H258670   4.186   3.790   3.930 -1.1115  0.9402  0.1880
12419TIP3   OH258671   4.147   2.698  15.701 -0.2431 -0.2516  0.3326
12419TIP3    H158672   4.108   2.739  15.778  0.3520  0.4457  0.2707
12419TIP3    H258673   4.084   2.716  15.631 -0.5400 -0.4491  0.5435
12420TIP3   OH258674   1.954   1.414   5.331  0.1014  0.3953  0.2073
12420TIP3    H158675   1.923   1.486   5.276 -0.7941  1.2867  1.7884
12420TIP3    H258676   1.997   1.354   5.271 -1.8323  0.7461 -1.6480
12421TIP3   OH258677   0.882   5.104   3.167 -0.3284 -0.2820 -0.0725
12421TIP3    H158678   0.961   5.052   3.178 -0.2788 -0.0603  0.6738
12421TIP3    H258679   0.912   5.195   3.168 -0.6852 -0.1590  1.2283
12422TIP3   OH258680   0.068   6.315  13.217  0.2743 -0.3199  0.3495
12422TIP3    H158681   0.009   6.270  13.276  0.7779 -0.6517  0.6094
12422TIP3    H258682   0.099   6.247  13.157  0.4334 -0.1652  0.2554
12423TIP3   OH258683   6.546   3.503  11.210 -0.3750 -0.3940  0.1719
12423TIP3    H158684   6.475   3.489  11.147 -0.4269 -0.8967  0.3382
12423TIP3    H258685   6.614   3.548  11.160  0.1128 -1.9450 -0.6039
12424TIP3   OH258686   4.732   6.394   5.167 -0.2958  0.1338 -0.3915
12424TIP3    H158687   4.782   6.315   5.147 -0.3902  0.0603 -0.3411
12424TIP3    H258688   4.687   6.374   5.249 -0.5045  0.1517 -0.5003
12425TIP3   OH258689   1.861   1.164  13.360  0.9781  0.0843  0.6433
12425TIP3    H158690   1.944   1.212  13.355  1.3278 -0.6196 -1.1245
12425TIP3    H258691   1.799   1.220  13.313  1.6471 -1.5546 -2.4750
12426TIP3   OH258692   2.832   5.939  14.371 -0.1931 -0.0083  0.0838
12426TIP3    H158693   2.797   5.853  14.347 -0.2669 -0.5848  2.0677
12426TIP3    H258694   2.769   5.973  14.435 -0.1465  1.5413 -0.6403
12427TIP3   OH258695   3.618   4.303  15.115 -0.1221  0.1121  0.0792
12427TIP3    H158696   3.639   4.211  15.102  0.3127  0.1881  0.2380
12427TIP3    H258697   3.699   4.350  15.095 -1.1031  0.7264 -3.0221
12428TIP3   OH258698   1.126   6.404  11.906  0.5223  0.6627 -0.0621
12428TIP3    H158699   1.103   6.381  11.996  0.0168  1.3142 -0.0203
12428TIP3    H258700   1.221   6.397  11.903  0.4054 -1.3804 -0.0493
12429TIP3   OH258701   0.571   1.151   2.244  0.0272 -0.0931 -0.7177
12429TIP3    H158702   0.477   1.134   2.249 -0.2110  0.8340 -1.6771
12429TIP3    H258703   0.583   1.235   2.288  0.6631 -0.9377  0.8029
12430TIP3   OH258704   1.260   6.188   1.257 -0.4908 -0.5325  0.0478
12430TIP3    H158705   1.302   6.230   1.182  0.3495 -0.5432  0.5032
12430TIP3    H258706   1.283   6.242   1.332 -1.7645 -0.2271  0.2426
12431TIP3   OH258707   5.693   2.478  16.947 -0.6802  0.0427 -0.2636
12431TIP3    H158708   5.624   2.412  16.952  0.3675 -1.0038  1.2072
12431TIP3    H258709   5.646   2.562  16.944 -2.0178 -0.6470  0.4569
12432TIP3   OH258710   2.014   1.321   4.846  0.3071 -0.0272 -0.5079
12432TIP3    H158711   2.022   1.283   4.933 -0.2826  0.3389 -0.2903
12432TIP3    H258712   2.018   1.416   4.860 -1.4592  0.0972 -0.6819
12433TIP3   OH258713   5.327   2.055   4.637  0.3176 -0.4578 -0.1003
12433TIP3    H158714   5.321   2.053   4.541  2.1427  0.5236 -0.2819
12433TIP3    H258715   5.420   2.047   4.655  0.3344  2.1404  1.4538
12434TIP3   OH258716   1.595   3.940  13.901  0.6248 -0.2228 -0.0443
12434TIP3    H158717   1.570   3.848  13.909 -0.7796  0.1615  0.1680
12434TIP3    H258718   1.623   3.965  13.989  0.8058 -0.3931 -0.0544
12435TIP3   OH258719   4.778   5.577   2.011  0.0166  0.5972 -0.0463
12435TIP3    H158720   4.731   5.565   2.094  0.4330 -0.3892  0.0616
12435TIP3    H258721   4.711   5.609   1.951 -0.4157  0.8037  0.5342
12436TIP3   OH258722   3.403   4.660   1.494 -0.1651  0.0881 -0.1869
12436TIP3    H158723   3.320   4.703   1.517  0.2230  1.2891 -0.9184
12436TIP3    H258724   3.423   4.693   1.406  0.9261 -0.4372 -0.1520
12437TIP3   OH258725   2.064   2.070  13.248  0.2204 -0.2428  0.4580
12437TIP3    H158726   2.037   2.015  13.321 -0.9976  1.9822  1.8219
12437TIP3    H258727   2.039   2.022  13.170  0.4123 -2.1435  1.5133
12438TIP3   OH258728   0.375   4.277   0.178 -0.0715 -0.5603  0.0793
12438TIP3    H158729   0.470   4.272   0.188 -0.2452 -1.9878  1.3806
12438TIP3    H258730   0.362   4.329   0.099  1.7525  0.8557  0.6297
12439TIP3   OH258731   0.842   2.365  13.099  0.3660 -0.3333 -0.5905
12439TIP3    H158732   0.752   2.358  13.131  0.7231 -2.1119  0.2037
12439TIP3    H258733   0.895   2.331  13.171  1.5467 -0.7158 -1.6032
12440TIP3   OH258734   1.097   3.539   3.638 -0.1048  0.2497  0.2014
12440TIP3    H158735   1.072   3.616   3.689  0.7042  0.8264 -0.2391
12440TIP3    H258736   1.014   3.503   3.607 -0.5765  0.1440  1.5360
12441TIP3   OH258737   6.615   1.256  17.148 -0.1033 -0.4268 -0.0567
12441TIP3    H158738   6.591   1.166  17.170 -2.8468  0.2277 -0.0971
12441TIP3    H258739   6.604   1.262  17.053 -0.2026  0.0348 -0.0185
12442TIP3   OH258740   1.961   0.809  16.057  0.4219  0.1380  0.7261
12442TIP3    H158741   1.955   0.844  16.146 -1.6089  2.3485 -0.1429
12442TIP3    H258742   1.893   0.742  16.053 -1.6255  2.1163  0.1235
12443TIP3   OH258743   1.425   4.964  16.451 -0.3048  0.5388 -0.4368
12443TIP3    H158744   1.476   4.985  16.373  1.0078  1.3377  0.6110
12443TIP3    H258745   1.478   4.900  16.498 -1.8601 -1.2348 -0.9799
12444TIP3   OH258746   0.099   2.425   2.589  0.2439 -0.3325 -0.5207
12444TIP3    H158747   0.167   2.482   2.626  0.3629 -0.7479 -0.0824
12444TIP3    H258748   0.059   2.477   2.520 -0.3195  0.6747  0.5207
12445TIP3   OH258749   1.825   5.991   5.818  0.1425 -0.1015 -0.0917
12445TIP3    H158750   1.805   5.898   5.826 -0.9463  0.1137 -0.0830
12445TIP3    H258751   1.868   6.014   5.900 -2.2229  0.0164  1.2049
12446TIP3   OH258752   3.546   3.965   0.650  0.4936 -0.5868 -0.1694
12446TIP3    H158753   3.613   4.024   0.685  0.0799 -0.4995  0.5020
12446TIP3    H258754   3.492   4.021   0.594  0.1170 -0.3183  0.4473
12447TIP3   OH258755   6.105   0.970   3.593  0.2729  0.1557  0.0056
12447TIP3    H158756   6.011   0.954   3.597  0.4508 -0.7143  1.1645
12447TIP3    H258757   6.144   0.901   3.648  1.4125  1.8590  1.4547
12448TIP3   OH258758   1.939   3.506  12.934 -0.6501  0.1088  0.5299
12448TIP3    H158759   1.903   3.421  12.910  1.4041 -0.1491 -2.0885
12448TIP3    H258760   1.913   3.564  12.863  1.4264  0.5995  0.1051
12449TIP3   OH258761   2.380   1.149  16.916 -0.3367  0.7678  1.2081
12449TIP3    H158762   2.385   1.242  16.937  0.1784  1.4178 -1.3934
12449TIP3    H258763   2.369   1.147  16.821 -1.1125 -1.8367  1.2850
12450TIP3   OH258764   2.748   1.852   4.841  0.1029 -0.3071  0.1067
12450TIP3    H158765   2.764   1.772   4.791  0.0920 -0.6713  0.6702
12450TIP3    H258766   2.654   1.868   4.829  0.0376 -0.5644  0.2551
12451TIP3   OH258767   6.237   4.119  15.393  0.5206 -0.2318  0.0522
12451TIP3    H158768   6.225   4.123  15.488 -1.4849  0.2443 -0.1862
12451TIP3    H258769   6.220   4.207  15.362  0.6332 -0.5023 -0.8111
12452TIP3   OH258770   5.101   3.379  11.461  0.3967 -0.5362  0.2826
12452TIP3    H158771   5.176   3.325  11.436  0.2117 -0.4019 -0.6225
12452TIP3    H258772   5.026   3.338  11.418 -0.3481 -1.5766  2.4261
12453TIP3   OH258773   4.705   0.944   3.447 -0.4021  0.2399  0.0022
12453TIP3    H158774   4.751   1.026   3.428  0.2482  0.0923  0.8777
12453TIP3    H258775   4.681   0.950   3.539  0.0878 -0.7422  0.2151
12454TIP3   OH258776   6.192   3.805   4.815 -0.3189  0.0313 -0.3339
12454TIP3    H158777   6.154   3.867   4.877 -0.7141 -1.1132  0.6045
12454TIP3    H258778   6.274   3.777   4.856 -1.3357 -1.9312  0.5043
12455TIP3   OH258779   5.308   2.424  13.449 -0.1823  0.5428  0.1376
12455TIP3    H158780   5.291   2.514  13.478  0.6373  0.6657  0.2577
12455TIP3    H258781   5.388   2.431  13.397  0.0820 -0.1777  0.4428
12456TIP3   OH258782   2.777   0.656   1.336 -0.4197  0.5681 -0.3816
12456TIP3    H158783   2.817   0.640   1.421 -0.9813  3.4160  0.5029
12456TIP3    H258784   2.830   0.604   1.275  1.8815  0.7683  1.3111
12457TIP3   OH258785   4.385   3.920   4.625  0.1184  0.4825  0.0577
12457TIP3    H158786   4.380   3.936   4.720 -1.9497  1.3095 -0.1418
12457TIP3    H258787   4.391   3.825   4.617  0.4972  0.4126  1.0218
12458TIP3   OH258788   4.435   0.665  13.991  0.2059  0.2503 -0.2129
12458TIP3    H158789   4.433   0.647  13.897 -2.2968 -2.2203  0.1600
12458TIP3    H258790   4.386   0.746  14.002 -2.1755 -1.0190 -0.8872
12459TIP3   OH258791   0.367   4.382   5.436  0.7081 -0.2464  0.2136
12459TIP3    H158792   0.386   4.365   5.344  0.5229 -1.3616  0.3668
12459TIP3    H258793   0.398   4.303   5.481  1.2633  0.4944  1.1692
12460TIP3   OH258794   1.449   3.693  13.873 -0.3633  0.6402  1.0282
12460TIP3    H158795   1.539   3.660  13.877 -0.1438  1.1890  0.6384
12460TIP3    H258796   1.396   3.622  13.911 -0.0325 -0.7246 -0.9104
12461TIP3   OH258797   1.308   3.276   5.725 -0.4512 -0.8188 -0.8737
12461TIP3    H158798   1.230   3.285   5.670 -1.2734  1.5864  0.5233
12461TIP3    H258799   1.379   3.315   5.674 -0.7476 -0.5173 -1.0571
12462TIP3   OH258800   4.694   4.003   6.373  0.1415  0.6003  0.5629
12462TIP3    H158801   4.611   3.956   6.371  0.4084  0.1273 -1.7308
12462TIP3    H258802   4.669   4.094   6.389 -0.8909  0.5541 -0.6519
12463TIP3   OH258803   1.550   3.222  16.992  0.5696  1.0898 -0.2347
12463TIP3    H158804   1.557   3.297  17.051  0.3130  0.4384  0.6506
12463TIP3    H258805   1.459   3.193  17.000  0.6323  0.7592 -0.6614
12464TIP3   OH258806   3.444   2.448   1.380 -0.0322  0.4834  0.0559
12464TIP3    H158807   3.356   2.486   1.384 -0.8037 -0.5389 -3.7244
12464TIP3    H258808   3.430   2.354   1.380  0.9663  0.3058 -1.4151
12465TIP3   OH258809   1.047   3.319   5.587  0.0732 -0.4583 -0.3567
12465TIP3    H158810   1.039   3.272   5.504 -2.6838 -0.0721 -0.3878
12465TIP3    H258811   1.060   3.410   5.562  1.5853 -0.6285 -0.3012
12466TIP3   OH258812   1.308   0.507  15.185 -0.1817  0.5016  0.1857
12466TIP3    H158813   1.289   0.424  15.139 -2.3689  0.5253  0.9537
12466TIP3    H258814   1.383   0.486  15.240  1.1068 -0.1523 -1.7014
12467TIP3   OH258815   6.443   1.573  11.895 -0.7230  0.0525  0.1824
12467TIP3    H158816   6.483   1.609  11.975 -1.2152 -0.4898  0.6826
12467TIP3    H258817   6.500   1.500  11.871  0.2331  1.0759 -0.7901
12468TIP3   OH258818   6.425   0.529  17.066 -0.5837  0.7936 -0.1962
12468TIP3    H158819   6.446   0.556  16.977 -0.5207 -0.7088 -0.6688
12468TIP3    H258820   6.338   0.565  17.082 -1.7408 -1.0203 -1.8623
12469TIP3   OH258821   1.604   4.265  16.890 -0.2254 -0.4037  0.4859
12469TIP3    H158822   1.525   4.229  16.931 -1.2453 -0.8608 -1.7493
12469TIP3    H258823   1.672   4.201  16.907 -0.8039 -0.9350  0.8169
12470TIP3   OH258824   1.930   0.490  15.171 -0.3674  0.7392 -0.4999
12470TIP3    H158825   1.861   0.440  15.216 -0.8005  0.9540 -0.9152
12470TIP3    H258826   1.976   0.535  15.242  0.4963 -0.8011 -0.0451
12471TIP3   OH258827   6.727   1.256   4.443  0.4174  0.1885 -0.4099
12471TIP3    H158828   6.658   1.284   4.382 -0.5416  1.4058  1.1180
12471TIP3    H258829   6.702   1.167   4.468 -1.5239  1.0843  1.1958
12472TIP3   OH258830   4.427   4.540  14.724 -0.4083 -0.4266 -0.2419
12472TIP3    H158831   4.451   4.534  14.817 -0.7699 -0.7695 -0.1667
12472TIP3    H258832   4.338   4.576  14.725 -0.8177 -1.4003 -0.4016
12473TIP3   OH258833   1.209   6.308  13.967  0.1489  0.3648  0.1335
12473TIP3    H158834   1.271   6.347  14.029  0.5029 -0.8958  0.6179
12473TIP3    H258835   1.142   6.269  14.023  0.0413 -0.0915 -0.3072
12474TIP3   OH258836   4.703   4.234   0.519  0.2860  0.2961 -1.0003
12474TIP3    H158837   4.683   4.316   0.566  3.3175 -0.0905  1.2237
12474TIP3    H258838   4.796   4.239   0.501  0.4686 -2.5176 -1.1581
12475TIP3   OH258839   0.138   6.043  13.641  0.4491 -0.6755  0.4065
12475TIP3    H158840   0.157   6.043  13.735 -0.9652 -1.3551  0.7248
12475TIP3    H258841   0.222   6.026  13.599  0.8603 -1.8142  1.6282
12476TIP3   OH258842   0.638   6.479  15.696 -0.0156 -0.0937 -0.5459
12476TIP3    H158843   0.543   6.482  15.705  0.1456  1.6523  1.4858
12476TIP3    H258844   0.660   6.558  15.646  0.3919 -0.4542 -0.9472
12477TIP3   OH258845   6.537   4.429  11.422  0.0349 -0.0399 -0.3051
12477TIP3    H158846   6.555   4.337  11.442 -2.4107 -1.0360 -2.1373
12477TIP3    H258847   6.553   4.437  11.328 -0.1045  1.3258 -0.2349
12478TIP3   OH258848   3.008   2.988   1.564 -0.2603  0.4232  0.0374
12478TIP3    H158849   3.102   2.996   1.582 -0.0708  1.8485 -1.3462
12478TIP3    H258850   2.991   2.894   1.569  1.2890  0.1030  0.0565
12479TIP3   OH258851   5.014   3.532   4.867  0.3556 -0.2712 -0.5346
12479TIP3    H158852   5.096   3.581   4.868  0.8660 -1.0311 -1.7487
12479TIP3    H258853   4.971   3.560   4.786 -1.1955  1.0332  0.6858
12480TIP3   OH258854   1.087   4.577  13.039 -0.5203 -0.3157  0.2277
12480TIP3    H158855   0.993   4.584  13.022 -0.3744  0.1906 -0.4507
12480TIP3    H258856   1.093   4.547  13.129 -1.3306  0.8003  0.6829
12481TIP3   OH258857   0.652   5.883   4.064 -0.5605  0.2736  0.0674
12481TIP3    H158858   0.720   5.823   4.092  0.0359  0.4271 -0.9936
12481TIP3    H258859   0.662   5.959   4.122  0.9511  0.7884 -0.8127
12482TIP3   OH258860   0.835   3.012   1.618 -0.3246  0.5687 -0.2994
12482TIP3    H158861   0.772   3.067   1.663 -0.3997 -0.8715  1.4700
12482TIP3    H258862   0.866   2.951   1.685  0.4697 -0.9132 -1.9285
12483TIP3   OH258863   0.018   2.173   0.969 -0.1556  0.4927 -0.4847
12483TIP3    H158864   0.045   2.183   0.878  0.9928 -1.7108 -0.4540
12483TIP3    H258865  -0.076   2.154   0.965 -0.1312  0.5175 -1.1894
12484TIP3   OH258866   2.498   2.018   3.848 -0.1416  0.1752  0.2275
12484TIP3    H158867   2.589   2.022   3.877  0.2598  0.6298 -1.0245
12484TIP3    H258868   2.463   2.105   3.863  0.0380  0.3838 -0.5277
12485TIP3   OH258869   5.058   0.850  13.990  0.0562  0.2393  0.3579
12485TIP3    H158870   5.076   0.768  13.944 -0.4756 -0.8620  1.9936
12485TIP3    H258871   5.143   0.881  14.020  0.2088 -0.0107  0.1818
12486TIP3   OH258872   2.252   1.889  16.839  0.5114  0.1420 -0.7881
12486TIP3    H158873   2.282   1.880  16.748  2.4302  3.0182 -0.5689
12486TIP3    H258874   2.287   1.813  16.884  2.1314  0.1926 -1.8859
12487TIP3   OH258875   1.825   5.361   1.421 -0.0056 -0.4888  0.2193
12487TIP3    H158876   1.828   5.277   1.465  1.0144 -0.2065  0.7262
12487TIP3    H258877   1.911   5.371   1.381 -0.3789 -0.0334 -0.4952
12488TIP3   OH258878   3.528   5.226  17.033  0.4911  0.2144  0.2980
12488TIP3    H158879   3.582   5.214  16.955  2.2332 -0.5234  1.5308
12488TIP3    H258880   3.483   5.143  17.044  0.7097  0.1063  0.3918
12489TIP3   OH258881   5.757   3.823  16.614  0.1754  0.0721 -0.0638
12489TIP3    H158882   5.694   3.765  16.570  0.1621  0.3760 -0.4504
12489TIP3    H258883   5.769   3.896  16.553 -1.0081  1.2906  1.0975
12490TIP3   OH258884   3.708   2.406   2.939 -0.5356 -1.0680 -0.0218
12490TIP3    H158885   3.741   2.380   2.853  0.8949 -2.9874  1.0188
12490TIP3    H258886   3.772   2.371   3.001 -1.2568  0.6709  1.8374
12491TIP3   OH258887   3.376   1.955   0.396  0.3271  0.9665 -0.5820
12491TIP3    H158888   3.310   1.897   0.436  1.8723 -0.0785  0.5681
12491TIP3    H258889   3.423   1.899   0.335  1.1424  1.2831 -0.2541
12492TIP3   OH258890   6.190   0.166  13.188  0.2628 -0.2159  0.3757
12492TIP3    H158891   6.159   0.076  13.199 -0.5349  0.1991  1.7826
12492TIP3    H258892   6.285   0.158  13.182  0.0979 -1.3324 -1.8836
12493TIP3   OH258893   2.153   1.044   6.674  0.5306  0.5746 -0.0489
12493TIP3    H158894   2.183   1.029   6.585 -0.8013 -0.5607 -0.3241
12493TIP3    H258895   2.231   1.078   6.720  2.1336 -1.7785 -0.8327
12494TIP3   OH258896   0.547   6.782  13.389  0.1529  0.4056 -0.4671
12494TIP3    H158897   0.479   6.820  13.445  1.2692 -0.1827  1.3912
12494TIP3    H258898   0.506   6.774  13.303 -2.3313 -0.4569  0.6950
12495TIP3   OH258899   6.615   0.473  14.621 -0.3267 -0.0850  0.3491
12495TIP3    H158900   6.694   0.508  14.580  1.2630 -2.4450  1.1840
12495TIP3    H258901   6.545   0.491  14.558  1.6464 -1.8625 -2.5644
12496TIP3   OH258902   3.731   6.228  16.935 -0.3814 -1.2399  0.0036
12496TIP3    H158903   3.650   6.176  16.937 -0.2053 -1.5908 -1.0448
12496TIP3    H258904   3.774   6.210  17.019 -2.2424  0.3808  1.3862
12497TIP3   OH258905   0.397   4.943  13.374 -0.5812 -0.2014 -0.0008
12497TIP3    H158906   0.340   5.015  13.348  0.3620  0.8984  0.8508
12497TIP3    H258907   0.341   4.883  13.423 -0.9730  0.9717  1.0271
12498TIP3   OH258908   2.354   4.416   3.254  0.3466  0.0875 -0.5612
12498TIP3    H158909   2.282   4.456   3.205  0.7895  2.7701  0.7742
12498TIP3    H258910   2.427   4.478   3.244  2.0268 -1.7921 -0.5968
12499TIP3   OH258911   3.806   1.272   4.502  0.4622  0.3760  0.3375
12499TIP3    H158912   3.768   1.210   4.440  0.2294  1.2663 -0.4223
12499TIP3    H258913   3.784   1.236   4.588  1.1652 -1.1131 -0.0678
12500TIP3   OH258914   4.825   1.963  11.984 -0.2503 -0.2903 -0.0234
12500TIP3    H158915   4.899   1.919  12.028 -0.6519 -0.6687  0.2782
12500TIP3    H258916   4.790   1.898  11.924  0.0730  0.1114 -0.6634
12501TIP3   OH258917   0.442   2.439   2.857 -0.1641 -0.5787 -0.5417
12501TIP3    H158918   0.404   2.425   2.943  0.5742 -0.1934 -0.1443
12501TIP3    H258919   0.435   2.354   2.813  2.3204 -1.7260  1.0387
12502TIP3   OH258920   1.336   2.525   1.045  0.7039 -0.3880 -0.0892
12502TIP3    H158921   1.323   2.438   1.082  1.0621  0.4881  2.2523
12502TIP3    H258922   1.428   2.527   1.018  0.3820 -1.1058 -1.3474
12503TIP3   OH258923   2.078   4.942   2.195  0.3405  0.2764 -0.2362
12503TIP3    H158924   2.040   4.903   2.274  0.1375 -1.2761 -1.0647
12503TIP3    H258925   2.161   4.979   2.224  0.1817 -0.1118  0.7431
12504TIP3   OH258926   6.586   0.225  13.435 -0.0221 -0.1092 -1.2065
12504TIP3    H158927   6.494   0.223  13.463  0.3386  1.0321  0.1767
12504TIP3    H258928   6.601   0.315  13.406  0.4900 -0.4652 -2.0900
12505TIP3   OH258929   2.727   1.631   0.872  0.2846  0.6658 -0.2185
12505TIP3    H158930   2.634   1.644   0.892 -0.1950 -0.5609 -1.5062
12505TIP3    H258931   2.730   1.618   0.777  1.9631  2.0753 -0.4137
12506TIP3   OH258932   3.533   4.386  12.363 -0.0472 -0.0252  0.4301
12506TIP3    H158933   3.576   4.350  12.285  1.2438  2.3140 -0.0497
12506TIP3    H258934   3.549   4.322  12.432  1.0080 -0.9520 -0.6317
12507TIP3   OH258935   1.730   0.081   0.578  0.3639 -0.3390  0.0978
12507TIP3    H158936   1.681   0.081   0.495  1.3223 -2.3487 -0.5385
12507TIP3    H258937   1.663   0.087   0.645 -0.3858  2.7000 -0.7476
12508TIP3   OH258938   1.459   3.153   0.838  0.2667 -0.3504 -0.3471
12508TIP3    H158939   1.424   3.170   0.750  2.8072 -0.2954 -1.4315
12508TIP3    H258940   1.523   3.083   0.825  1.4444  0.3709  1.2646
12509TIP3   OH258941   4.048   5.593   0.756 -0.2157 -0.2681 -0.3492
12509TIP3    H158942   4.098   5.668   0.723  0.6824 -0.7917 -0.2125
12509TIP3    H258943   3.984   5.632   0.816 -0.8884  0.5460 -1.5446
12510TIP3   OH258944   1.623   3.621  12.735  0.1188  0.3102 -0.0656
12510TIP3    H158945   1.550   3.632  12.675  0.5477  0.7460 -0.5189
12510TIP3    H258946   1.588   3.568  12.806 -0.9818  1.5376  0.3414
12511TIP3   OH258947   4.370   2.518   5.181  0.8669  0.1252  0.5601
12511TIP3    H158948   4.330   2.469   5.109 -0.8990  0.9766  0.8947
12511TIP3    H258949   4.324   2.486   5.259  0.4999  1.4639  0.9114
12512TIP3   OH258950   5.619   1.139   3.488 -0.0845 -0.6157 -0.0796
12512TIP3    H158951   5.647   1.136   3.396 -3.9776  0.3935 -1.4961
12512TIP3    H258952   5.595   1.231   3.502 -0.5702 -0.9717  1.6341
12513TIP3   OH258953   6.664   0.518  12.590  0.2155  0.1273  0.1678
12513TIP3    H158954   6.685   0.611  12.592  0.7985  0.0318 -0.7914
12513TIP3    H258955   6.574   0.512  12.622 -0.2484  1.1457 -0.8917
12514TIP3   OH258956   3.230   0.689  15.452  0.0715  0.1285  0.5335
12514TIP3    H158957   3.319   0.701  15.418  0.6290 -0.5972  1.6950
12514TIP3    H258958   3.218   0.761  15.514  0.2306 -0.3517  1.1277
12515TIP3   OH258959   2.593   0.536   4.599 -0.3866 -0.8312  0.1737
12515TIP3    H158960   2.571   0.506   4.511  1.0033 -2.0759  0.2045
12515TIP3    H258961   2.600   0.631   4.591  0.6893 -0.9959 -1.3108
12516TIP3   OH258962   5.154   1.152  14.834 -0.8104 -0.0369  0.0958
12516TIP3    H158963   5.200   1.208  14.772 -1.1147 -0.2808 -0.3572
12516TIP3    H258964   5.129   1.210  14.906  1.8520 -0.2422  1.2963
12517TIP3   OH258965   1.688   3.514  13.908 -0.2129  0.0679  0.0144
12517TIP3    H158966   1.632   3.437  13.913  0.5356 -0.5503 -0.8260
12517TIP3    H258967   1.729   3.520  13.994 -0.1455 -0.5871  0.0308
12518TIP3   OH258968   3.893   5.347  12.561  0.1038  0.4247 -0.5451
12518TIP3    H158969   3.904   5.342  12.466  2.3109 -1.1570 -0.2979
12518TIP3    H258970   3.968   5.399  12.591  0.8784 -1.1952  0.4730
12519TIP3   OH258971   4.539   5.768  11.501  0.0533 -0.1720  0.2283
12519TIP3    H158972   4.472   5.747  11.437 -0.1200 -1.5835  0.8418
12519TIP3    H258973   4.616   5.791  11.449 -0.2974 -0.5573 -0.4738
12520TIP3   OH258974   6.288   1.029  14.498  0.4994  0.1675 -0.1600
12520TIP3    H158975   6.369   0.981  14.511  0.5174  0.6218  1.6109
12520TIP3    H258976   6.291   1.100  14.562 -2.1934 -0.9771  1.4018
12521TIP3   OH258977   5.367   2.929  16.093 -0.4790 -0.4392  0.0817
12521TIP3    H158978   5.360   2.950  16.186 -0.4008 -0.5406  0.1113
12521TIP3    H258979   5.360   3.013  16.048 -0.5740 -0.3960  0.1760
12522TIP3   OH258980   2.382   6.249  16.925  0.3411  0.6312  0.4124
12522TIP3    H158981   2.365   6.238  17.019  1.4215  1.7899  0.7769
12522TIP3    H258982   2.409   6.163  16.895  0.1581  0.2859  1.2048
12523TIP3   OH258983   5.994   6.404   4.740  0.8276  0.1531  0.0141
12523TIP3    H158984   6.059   6.335   4.755  1.0424  0.2428 -0.4901
12523TIP3    H258985   5.958   6.384   4.654 -0.5601 -0.4900  0.7138
12524TIP3   OH258986   6.483   4.927   4.064  0.5230 -0.0507  0.3949
12524TIP3    H158987   6.440   4.872   3.998 -2.2232 -1.2218  2.9476
12524TIP3    H258988   6.530   4.865   4.120  2.8991  0.9387 -0.3695
12525TIP3   OH258989   0.232   5.564   2.764 -0.3305  0.6865  0.1137
12525TIP3    H158990   0.267   5.614   2.838 -0.7625  2.0968 -0.5960
12525TIP3    H258991   0.287   5.590   2.690 -0.8777  0.4811 -0.3690
12526TIP3   OH258992   6.160   6.298  16.841  0.0563  0.6756 -0.6578
12526TIP3    H158993   6.113   6.376  16.812 -1.7787 -0.6938 -1.5867
12526TIP3    H258994   6.220   6.277  16.769 -0.9272  0.1062 -1.3385
12527TIP3   OH258995   1.663   4.242  15.859  0.5668  0.2144  0.5646
12527TIP3    H158996   1.605   4.310  15.893  0.0432 -0.2533  0.6221
12527TIP3    H258997   1.698   4.279  15.778  0.0706  0.4375  0.4513
12528TIP3   OH258998   5.198   5.333  13.648 -0.6353  0.6039  0.0652
12528TIP3    H158999   5.190   5.373  13.735 -0.6832  1.4025 -0.3008
12528TIP3    H259000   5.112   5.346  13.607 -0.4812  0.6104 -0.2612
12529TIP3   OH259001   1.471   2.074   6.559  0.1496 -0.2071  0.0513
12529TIP3    H159002   1.401   2.020   6.596 -0.2306  0.9360  1.0662
12529TIP3    H259003   1.535   2.081   6.629 -0.2837  1.4793  0.3212
12530TIP3   OH259004   3.667   5.744  14.045  0.0718  0.0377 -0.3495
12530TIP3    H159005   3.634   5.697  13.969 -0.0559  2.1816 -1.7134
12530TIP3    H259006   3.620   5.828  14.044 -0.9531 -0.3476  2.9298
12531TIP3   OH259007   3.129   4.676   4.788 -0.0041  0.4997  0.4823
12531TIP3    H159008   3.110   4.768   4.807  2.3230  2.1346 -3.7482
12531TIP3    H259009   3.190   4.649   4.856 -0.8777  1.9844  1.9128
12532TIP3   OH259010   1.948   1.801   0.272 -0.1899  0.3260 -0.0895
12532TIP3    H159011   1.927   1.872   0.211  0.8631  0.7813  0.0639
12532TIP3    H259012   1.941   1.721   0.219  2.5765  0.8305 -1.3891
12533TIP3   OH259013   1.146   0.866  13.745  0.4206 -0.4086  0.4206
12533TIP3    H159014   1.202   0.891  13.672  0.5633  0.8235  0.9278
12533TIP3    H259015   1.108   0.783  13.719  0.4036  0.0482 -1.1004
12534TIP3   OH259016   6.091   6.357   2.044 -0.3924 -0.4100 -0.6430
12534TIP3    H159017   6.155   6.328   1.979  0.6374 -1.3673  0.7208
12534TIP3    H259018   6.126   6.441   2.075 -1.2209  0.3639 -1.7293
12535TIP3   OH259019   2.463   4.674  15.854  0.2434 -0.7307  0.0013
12535TIP3    H159020   2.440   4.743  15.791  0.5129  0.5260  1.2225
12535TIP3    H259021   2.423   4.595  15.818  1.3829 -0.3315 -2.3575
12536TIP3   OH259022   3.393   2.168   1.521  0.2582 -0.5075 -0.0577
12536TIP3    H159023   3.305   2.206   1.526  0.0457 -0.8753 -0.9091
12536TIP3    H259024   3.432   2.188   1.606 -0.8449 -0.8144  0.5471
12537TIP3   OH259025   5.454   5.410   4.616  0.3390  0.0479 -0.1449
12537TIP3    H159026   5.489   5.474   4.678 -0.6984  1.7745 -1.2337
12537TIP3    H259027   5.360   5.422   4.619  0.1038 -1.6019 -0.2516
12538TIP3   OH259028   2.349   5.235   0.271  0.4416 -0.0906 -0.0872
12538TIP3    H159029   2.377   5.294   0.202  0.8632 -1.1337 -0.8374
12538TIP3    H259030   2.427   5.224   0.326  0.4534 -0.1717 -0.1191
12539TIP3   OH259031   6.471   2.159  16.489 -0.0287  0.1603 -0.3602
12539TIP3    H159032   6.453   2.213  16.567 -0.6579 -2.1038  1.1409
12539TIP3    H259033   6.552   2.113  16.511 -0.3359 -0.6720 -0.9329
12540TIP3   OH259034   3.316   4.186   1.351 -0.2234  0.1848  0.3897
12540TIP3    H159035   3.301   4.279   1.371 -0.8490 -0.5985  4.2206
12540TIP3    H259036   3.230   4.153   1.324 -0.1639  0.5172 -0.2360
12541TIP3   OH259037   4.757   2.716  11.269  0.8393 -0.6170 -0.0911
12541TIP3    H159038   4.699   2.673  11.332  0.3072  1.6837  1.0860
12541TIP3    H259039   4.706   2.719  11.188  0.5317 -1.3415  0.0681
12542TIP3   OH259040   1.610   0.282  16.821 -0.3152 -0.3412 -0.0225
12542TIP3    H159041   1.671   0.344  16.781 -0.6846  1.4904  2.0983
12542TIP3    H259042   1.640   0.273  16.911 -1.0787 -2.2673  0.0897
12543TIP3   OH259043   4.072   2.959  11.039 -0.3314  0.6009  0.1933
12543TIP3    H159044   4.132   2.898  10.996 -1.3884 -1.2904  1.2597
12543TIP3    H259045   4.106   3.046  11.018  1.5693 -0.3573 -0.9134
12544TIP3   OH259046   1.138   4.420   4.009 -0.0610 -0.3870 -0.0961
12544TIP3    H159047   1.233   4.411   4.021 -0.1184 -1.4349 -0.3173
12544TIP3    H259048   1.130   4.463   3.923  0.2139  0.3323  0.2274
12545TIP3   OH259049   2.296   0.605  14.254  0.2519  0.0602 -0.7036
12545TIP3    H159050   2.387   0.577  14.253  0.5632  0.9621  0.1616
12545TIP3    H259051   2.293   0.680  14.196  0.2719  0.6080 -0.0055
12546TIP3   OH259052   4.040   3.473   0.233 -0.0059  0.1716 -0.4748
12546TIP3    H159053   4.063   3.380   0.228  1.9748  0.6606 -2.0423
12546TIP3    H259054   4.084   3.505   0.311 -0.8225 -0.1997  0.1588
12547TIP3   OH259055   0.081   0.104   2.060  0.4049 -0.0672 -0.1739
12547TIP3    H159056   0.028   0.119   1.982 -0.7059 -0.1073  0.5568
12547TIP3    H259057   0.144   0.037   2.033 -1.3954 -1.7646 -0.4109
12548TIP3   OH259058   4.230   2.895   1.940 -0.6072  0.6267 -0.0468
12548TIP3    H159059   4.141   2.862   1.929 -0.5397  0.5821 -0.5061
12548TIP3    H259060   4.225   2.958   2.011 -0.9131  0.2645  0.2522
12549TIP3   OH259061   5.888   6.108   4.738 -0.1340 -0.2482  0.4394
12549TIP3    H159062   5.809   6.101   4.792 -0.1318  1.9984  0.8349
12549TIP3    H259063   5.928   6.022   4.742 -1.9561 -1.1013  1.1915
12550TIP3   OH259064   3.665   2.248  11.398  0.5085  1.0818  0.1121
12550TIP3    H159065   3.676   2.333  11.357  0.6654  0.5573 -0.9529
12550TIP3    H259066   3.734   2.244  11.465  1.4567  1.2041 -0.8366
12551TIP3   OH259067   0.642   3.802  15.797  0.4378 -0.5938 -0.7116
12551TIP3    H159068   0.733   3.797  15.825  0.8032  1.3036 -1.4197
12551TIP3    H259069   0.646   3.837  15.707 -0.9756 -0.4395 -0.7414
12552TIP3   OH259070   1.626   5.563   1.406  0.1385 -0.0048  0.1505
12552TIP3    H159071   1.693   5.497   1.421 -0.2818 -0.6561 -0.7428
12552TIP3    H259072   1.639   5.591   1.316 -0.0180  0.7608  0.3576
12553TIP3   OH259073   5.898   4.231  15.732  0.1363 -0.3052 -0.8015
12553TIP3    H159074   5.833   4.242  15.663 -0.6398 -0.6983 -0.1539
12553TIP3    H259075   5.973   4.190  15.689  0.4403  1.2402 -1.8151
12554TIP3   OH259076   5.792   6.627   1.991 -0.1003 -0.1029  0.1380
12554TIP3    H159077   5.809   6.591   2.078 -1.6660  0.3310  0.6631
12554TIP3    H259078   5.811   6.555   1.932 -3.4816 -2.0868  1.1880
12555TIP3   OH259079   5.124   2.201  12.231  0.1803 -0.5637 -0.3490
12555TIP3    H159080   5.172   2.136  12.179 -1.6941 -2.3185 -0.0406
12555TIP3    H259081   5.189   2.234  12.293  1.3129 -1.9170 -0.7422
12556TIP3   OH259082   2.423   6.026   0.666  0.5922  0.1469  0.2968
12556TIP3    H159083   2.352   6.010   0.604  1.8943  0.4212 -1.3386
12556TIP3    H259084   2.446   5.939   0.700  1.6369 -0.3947 -1.6829
12557TIP3   OH259085   4.913   2.131  13.471  0.2380 -0.4014  0.6607
12557TIP3    H159086   4.872   2.072  13.534  1.5000 -0.2747  1.6349
12557TIP3    H259087   4.842   2.187  13.441 -0.5968 -1.1751  1.1524
12558TIP3   OH259088   6.000   0.387  16.019  0.1614 -0.1662  0.0621
12558TIP3    H159089   6.028   0.419  16.105  1.9527 -0.6256 -0.2968
12558TIP3    H259090   6.070   0.415  15.960 -0.2965 -1.1307 -0.9754
12559TIP3   OH259091   4.103   6.454  14.253  0.0487  0.7707 -0.0743
12559TIP3    H159092   4.160   6.498  14.316  0.3981  0.5147 -0.2088
12559TIP3    H259093   4.051   6.525  14.215  1.3405  1.2570 -1.0616
12560TIP3   OH259094   5.670   0.258  13.560 -0.2149  0.2863  0.7662
12560TIP3    H159095   5.610   0.226  13.627 -0.8652 -0.3904 -0.1294
12560TIP3    H259096   5.675   0.352  13.577  1.5895 -0.1470  3.3195
12561TIP3   OH259097   3.120   1.024   5.785 -0.1736  0.0478  0.6842
12561TIP3    H159098   3.180   1.095   5.810  0.0487  0.5490 -1.1321
12561TIP3    H259099   3.151   0.948   5.833 -0.1924  1.0630  2.4101
12562TIP3   OH259100   5.401   1.730   6.034 -0.1838 -0.0806  0.2217
12562TIP3    H159101   5.405   1.653   6.091  1.3489 -0.1706  0.0180
12562TIP3    H259102   5.470   1.787   6.066  0.7500 -0.1508 -1.5584
12563TIP3   OH259103   0.417   0.923   3.045  0.1615  0.5895 -0.1731
12563TIP3    H159104   0.470   0.857   3.090 -1.5316 -0.9214 -0.3147
12563TIP3    H259105   0.481   0.974   2.995  1.4613 -1.7097 -1.0276
12564TIP3   OH259106   3.538   5.522  12.924  0.4140  0.4424 -0.5845
12564TIP3    H159107   3.512   5.614  12.934 -1.5003 -0.0371 -0.8795
12564TIP3    H259108   3.615   5.526  12.866  1.1522  1.9251  0.4305
12565TIP3   OH259109   3.426   6.280   3.801  0.1380 -0.6256  0.2995
12565TIP3    H159110   3.365   6.347   3.769 -0.9702 -1.6902  0.1047
12565TIP3    H259111   3.432   6.217   3.730  0.1726 -1.3813  0.9675
12566TIP3   OH259112   4.195   5.307   0.551 -0.0543  0.3319 -0.1027
12566TIP3    H159113   4.244   5.387   0.569  2.4733 -0.8833 -1.0756
12566TIP3    H259114   4.258   5.237   0.566 -2.2182 -1.5262  0.8513
12567TIP3   OH259115   3.115   5.101   6.344  0.3306 -0.3221  0.0990
12567TIP3    H159116   3.115   5.192   6.373 -0.4816 -0.3199  0.1309
12567TIP3    H259117   3.103   5.051   6.425  1.3202 -0.4876  0.1470
12568TIP3   OH259118   4.297   3.402   4.546 -0.2256 -0.3247 -0.0439
12568TIP3    H159119   4.308   3.381   4.453  0.8714  1.1482 -0.2841
12568TIP3    H259120   4.203   3.399   4.561 -0.4468 -0.1919 -1.3132
12569TIP3   OH259121   1.530   1.753   5.705 -0.0935 -0.4663 -0.2809
12569TIP3    H159122   1.454   1.731   5.651 -0.0357  0.3415 -0.7106
12569TIP3    H259123   1.499   1.824   5.762  0.6834  0.8229 -1.3968
12570TIP3   OH259124   4.240   0.714   1.970 -0.5784  0.3545 -0.1183
12570TIP3    H159125   4.237   0.665   1.888 -1.2753  0.2634 -0.0472
12570TIP3    H259126   4.333   0.715   1.994 -0.5262 -0.9056 -0.1543
12571TIP3   OH259127   2.732   0.585   2.598 -0.2738  0.1083  0.3145
12571TIP3    H159128   2.766   0.534   2.672  1.6397 -1.4737 -1.5207
12571TIP3    H259129   2.689   0.521   2.542  0.3500  0.8492 -1.0590
12572TIP3   OH259130   4.351   1.983  16.026 -0.2847  0.0109 -0.0378
12572TIP3    H159131   4.425   1.988  15.965  1.4276 -4.5541  1.2662
12572TIP3    H259132   4.373   2.045  16.095  0.0602  1.8405 -1.6888
12573TIP3   OH259133   6.381   1.954   0.803 -0.0484  0.3919 -0.2820
12573TIP3    H159134   6.417   1.887   0.746  1.4566  1.2897 -0.4406
12573TIP3    H259135   6.344   1.906   0.877  3.8201 -0.5867  1.2615
12574TIP3   OH259136   0.306   6.343   2.873 -0.0014 -0.0050  0.2533
12574TIP3    H159137   0.382   6.298   2.837  0.6220  0.8541  0.4554
12574TIP3    H259138   0.321   6.343   2.968 -0.2816  0.1228  0.2996
12575TIP3   OH259139   4.370   0.308  16.870 -0.2320  0.2182  0.6248
12575TIP3    H159140   4.305   0.239  16.879  0.5013 -0.9597 -2.1088
12575TIP3    H259141   4.319   0.389  16.859 -1.1198 -0.1675  1.6855
12576TIP3   OH259142   0.671   4.257   2.553  0.1131  0.3044  0.0770
12576TIP3    H159143   0.713   4.171   2.563 -0.3365  0.1619  0.7897
12576TIP3    H259144   0.734   4.319   2.590 -1.0168 -0.0939  2.8766
12577TIP3   OH259145   3.565   4.833  11.032 -0.2020 -0.8024  0.4568
12577TIP3    H159146   3.495   4.852  11.094  0.1334 -1.4450  1.0440
12577TIP3    H259147   3.527   4.767  10.973 -1.2840  1.3737 -1.4376
12578TIP3   OH259148   5.669   6.312  13.041  0.1738  0.2119  0.0849
12578TIP3    H159149   5.595   6.358  13.079 -0.5298 -1.0518  0.3191
12578TIP3    H259150   5.695   6.248  13.108  1.5185  0.6569  0.0299
12579TIP3   OH259151   3.640   4.140   4.710  0.3590  0.2352 -0.1148
12579TIP3    H159152   3.704   4.076   4.739  1.8107  2.3831  1.8152
12579TIP3    H259153   3.688   4.197   4.650 -0.2596  0.8423 -0.0519
12580TIP3   OH259154   3.821   5.212   3.683  0.2864 -0.4859  0.5774
12580TIP3    H159155   3.786   5.129   3.652 -1.2787  0.6449 -0.8341
12580TIP3    H259156   3.744   5.267   3.697  1.3131  0.8980  1.0223
12581TIP3   OH259157   2.322   5.611   5.426 -0.0090  0.2503 -0.4739
12581TIP3    H159158   2.417   5.616   5.430 -0.0818  0.6758  1.4988
12581TIP3    H259159   2.295   5.580   5.512 -1.7356  1.6272 -0.4534
12582TIP3   OH259160   4.229   1.891   0.953 -0.4015  0.1179  0.6016
12582TIP3    H159161   4.240   1.898   1.047 -0.7882  0.2074  0.6432
12582TIP3    H259162   4.143   1.931   0.936 -0.2020  0.3773  0.1776
12583TIP3   OH259163   6.294   5.442  13.770 -0.6821 -0.3918  0.8806
12583TIP3    H159164   6.340   5.364  13.801  0.8583  0.5667  1.0743
12583TIP3    H259165   6.322   5.512  13.829  0.4542  0.9782 -1.1559
12584TIP3   OH259166   2.565   5.375   2.126 -0.1367  0.1548  0.1357
12584TIP3    H159167   2.660   5.367   2.111  0.0786  0.6895  1.0756
12584TIP3    H259168   2.551   5.469   2.137 -1.2741  0.4126 -2.8040
12585TIP3   OH259169   3.781   0.051   0.979 -0.5225 -0.1935  0.4638
12585TIP3    H159170   3.816   0.137   1.001 -0.2372 -0.2193  0.1257
12585TIP3    H259171   3.741   0.019   1.060 -2.7793  1.2858  0.0189
12586TIP3   OH259172   5.779   1.353   0.309  0.2591 -0.1875 -0.1576
12586TIP3    H159173   5.775   1.449   0.309 -0.9515 -0.2184 -1.1553
12586TIP3    H259174   5.788   1.329   0.401  2.2753  0.9169  0.0071
12587TIP3   OH259175   5.253   4.158   6.014  0.3691 -0.3703 -0.1697
12587TIP3    H159176   5.236   4.160   5.919  0.5958  0.4173 -0.1960
12587TIP3    H259177   5.167   4.171   6.054  0.3205 -0.3759 -0.2705
12588TIP3   OH259178   3.357   2.917  12.847  0.4154  0.3741  0.4744
12588TIP3    H159179   3.442   2.898  12.885  0.4692  1.3046  0.8589
12588TIP3    H259180   3.369   2.904  12.753  1.1156  0.9197  0.4775
12589TIP3   OH259181   5.341   2.879  13.204  0.5791  0.3796  0.0716
12589TIP3    H159182   5.320   2.925  13.285 -0.9446 -3.1442  1.9070
12589TIP3    H259183   5.284   2.919  13.138  0.6787  2.2661  1.0771
12590TIP3   OH259184   1.871   3.466  16.479  0.5222  0.1778 -0.3586
12590TIP3    H159185   1.863   3.412  16.400 -0.7599 -1.7943  1.0176
12590TIP3    H259186   1.838   3.551  16.453 -1.3203 -0.8460 -1.6085
12591TIP3   OH259187   1.186   3.027  16.477 -0.0108 -0.0753 -0.6215
12591TIP3    H159188   1.255   2.997  16.535  1.5362  1.5317 -1.5408
12591TIP3    H259189   1.218   3.008  16.389 -1.1064 -0.0150 -1.0552
12592TIP3   OH259190   3.516   1.028  14.984  0.5420 -0.6408 -0.1551
12592TIP3    H159191   3.459   0.997  14.914 -0.6184 -1.1833  1.0011
12592TIP3    H259192   3.467   1.012  15.065  0.2770  3.2202  0.6423
12593TIP3   OH259193   3.619   6.624   0.006 -0.0025  0.2449 -0.1824
12593TIP3    H159194   3.588   6.540  -0.027  0.8727  0.4012 -1.4805
12593TIP3    H259195   3.548   6.686  -0.013  1.0567  0.6355 -3.2707
12594TIP3   OH259196   3.577   6.518   1.291 -0.4119 -0.0326  0.6246
12594TIP3    H159197   3.626   6.598   1.272 -0.2522 -0.3969 -0.5345
12594TIP3    H259198   3.497   6.549   1.334  0.4971  0.6089  1.9405
12595TIP3   OH259199   0.380   0.896   6.517  0.3121 -0.2836 -0.3251
12595TIP3    H159200   0.467   0.880   6.553  0.0034 -0.5992  0.3081
12595TIP3    H259201   0.320   0.870   6.587 -0.3094 -0.9133 -1.0603
12596TIP3   OH259202   0.617   3.495  16.149  0.8355 -0.0260  0.7943
12596TIP3    H159203   0.527   3.479  16.175  0.6771  0.1500  0.3580
12596TIP3    H259204   0.627   3.590  16.154 -0.3608  0.5373 -3.3967
12597TIP3   OH259205   0.999   4.240  12.264  0.1086 -0.5557 -0.0821
12597TIP3    H159206   1.056   4.198  12.327 -1.2650 -1.3408  0.6845
12597TIP3    H259207   0.912   4.203  12.281 -0.0194 -2.4323 -3.8215
12598TIP3   OH259208   5.101   0.781   3.430 -0.3481  0.3312 -0.2476
12598TIP3    H159209   5.157   0.735   3.368 -2.1408  0.2834 -1.9009
12598TIP3    H259210   5.157   0.793   3.507  0.8615 -2.7320 -0.4839
12599TIP3   OH259211   5.914   5.476  17.227  0.3101  0.1434  0.5499
12599TIP3    H159212   5.883   5.564  17.209  0.7013  0.4832  1.4839
12599TIP3    H259213   5.970   5.485  17.304  1.5541 -0.6787 -0.2129
12600TIP3   OH259214   2.767   3.376  15.385 -0.7310  0.5496  0.2798
12600TIP3    H159215   2.821   3.423  15.322 -0.1590 -1.1414 -0.5381
12600TIP3    H259216   2.782   3.421  15.468  1.3487  0.5809 -0.0752
12601TIP3   OH259217   4.075   1.195   5.510  0.7147 -0.7457  0.4571
12601TIP3    H159218   4.010   1.150   5.458  0.9554  0.0304 -0.5459
12601TIP3    H259219   4.154   1.194   5.456  1.4641 -1.4091  1.5268
12602TIP3   OH259220   2.965   0.876   1.050 -0.6433 -0.1999  0.2749
12602TIP3    H159221   2.939   0.787   1.075  1.7947 -1.5223 -1.4771
12602TIP3    H259222   3.058   0.881   1.072 -0.3849  1.3942 -1.0014
12603TIP3   OH259223   3.882   2.251  11.586 -0.1528  0.1022 -0.3016
12603TIP3    H159224   3.960   2.199  11.569 -0.3425 -0.3249  0.1056
12603TIP3    H259225   3.916   2.339  11.606  0.3188 -0.3532  1.0263
12604TIP3   OH259226   2.809   0.027   4.997  0.0013  0.2114  0.3409
12604TIP3    H159227   2.854  -0.035   4.939 -0.7156 -0.6555  0.6852
12604TIP3    H259228   2.857   0.021   5.079 -0.9393 -1.0175  0.8362
12605TIP3   OH259229   2.724   1.375  12.590 -0.0076  0.2199 -0.4295
12605TIP3    H159230   2.764   1.439  12.531  1.3889 -0.9633 -0.8321
12605TIP3    H259231   2.630   1.380  12.572 -0.0490  2.6692  0.1071
12606TIP3   OH259232   1.899   4.765   6.277 -0.3350 -0.2911  0.0361
12606TIP3    H159233   1.893   4.855   6.243 -1.2213 -0.7450 -1.0944
12606TIP3    H259234   1.973   4.727   6.231 -0.6634 -0.4756 -0.3477
12607TIP3   OH259235   4.491   2.369  12.672  0.1571 -0.3897  0.4105
12607TIP3    H159236   4.404   2.330  12.662  0.0331  0.0339 -0.1668
12607TIP3    H259237   4.491   2.446  12.615  0.7739 -0.1528  0.7115
12608TIP3   OH259238   6.710   4.080   3.403 -0.1241 -0.1440  0.5712
12608TIP3    H159239   6.726   4.031   3.484 -1.2965 -0.6887  0.4935
12608TIP3    H259240   6.795   4.116   3.380  1.5834 -4.4846 -0.9544
12609TIP3   OH259241   6.155   3.163  16.903 -0.0485 -0.2536 -0.3383
12609TIP3    H159242   6.208   3.153  16.824 -0.9591 -0.1108 -0.9778
12609TIP3    H259243   6.172   3.084  16.954 -0.7612 -1.1686 -1.4739
12610TIP3   OH259244   1.057   3.159  16.779  0.1648 -0.0789 -0.2075
12610TIP3    H159245   1.106   3.199  16.707  1.7559 -0.7108  0.4916
12610TIP3    H259246   1.054   3.066  16.758 -1.4418  0.0277 -0.6139
12611TIP3   OH259247   4.718   0.421  13.319 -0.0544 -0.2106 -0.0862
12611TIP3    H159248   4.642   0.458  13.274 -0.0344  1.2078  0.9870
12611TIP3    H259249   4.793   0.467  13.281  0.1116 -0.2642  0.1730
12612TIP3   OH259250   3.558   2.057  13.233  0.2343 -0.2206 -0.1866
12612TIP3    H159251   3.493   2.085  13.298 -0.9188  0.0961 -1.4199
12612TIP3    H259252   3.634   2.031  13.285 -0.7642 -0.3204  1.3028
12613TIP3   OH259253   5.846   2.437   0.873  0.4277  0.0539 -0.3462
12613TIP3    H159254   5.899   2.366   0.909  0.7552  0.2318 -0.4736
12613TIP3    H259255   5.758   2.423   0.910  0.5373 -0.2998 -0.2154
12614TIP3   OH259256   0.870   3.301   3.840  0.2648 -0.0071 -0.4455
12614TIP3    H159257   0.892   3.208   3.841 -0.1431 -0.1010 -0.1312
12614TIP3    H259258   0.930   3.340   3.904  0.9221  0.0652 -1.0839
12615TIP3   OH259259   5.837   2.743   3.511 -0.0365  0.1625  0.3646
12615TIP3    H159260   5.789   2.805   3.456  0.5662  1.1083  0.8735
12615TIP3    H259261   5.925   2.779   3.517  0.3162 -0.7289  0.7130
12616TIP3   OH259262   1.947   0.045  12.288  0.6590  0.7091 -1.1926
12616TIP3    H159263   1.934   0.100  12.365 -1.7061 -0.8102 -0.4241
12616TIP3    H259264   1.919   0.100  12.215 -2.4910  0.3812 -0.3545
12617TIP3   OH259265   0.675   4.441   5.743  0.3263  0.2454  0.0047
12617TIP3    H159266   0.713   4.460   5.828  0.5473 -1.2003  0.2494
12617TIP3    H259267   0.630   4.522   5.719  1.4283  1.1492  0.8421
12618TIP3   OH259268   5.026   5.449  12.252 -0.4673  0.1146 -0.0329
12618TIP3    H159269   5.035   5.374  12.310 -0.4393 -0.1977 -0.4340
12618TIP3    H259270   5.011   5.523  12.310  2.4736  0.3318  0.6213
12619TIP3   OH259271   5.156   1.325  12.868 -0.5531 -0.8254 -0.5928
12619TIP3    H159272   5.197   1.318  12.954  0.5975  0.6644 -0.9579
12619TIP3    H259273   5.076   1.273  12.874  0.3714 -2.1607  0.8123
12620TIP3   OH259274   1.117   2.806  15.087  0.5501 -0.1410  0.1197
12620TIP3    H159275   1.138   2.887  15.041  0.9731  0.6824  1.7035
12620TIP3    H259276   1.029   2.784  15.057  0.3490  1.0133 -0.1944
12621TIP3   OH259277   1.797   4.851   3.926 -0.7828  0.9017  0.2671
12621TIP3    H159278   1.840   4.863   3.841 -0.3650 -1.3914  0.0909
12621TIP3    H259279   1.705   4.869   3.909 -0.4217  2.5851 -0.1303
12622TIP3   OH259280   4.823   4.314  16.481  0.1681 -0.4804 -0.4199
12622TIP3    H159281   4.849   4.399  16.444 -0.2200  0.5656  1.5416
12622TIP3    H259282   4.904   4.277  16.516 -0.2400  1.4099  3.0289
12623TIP3   OH259283   3.415   3.074   5.423  0.0040 -0.3525  0.1002
12623TIP3    H159284   3.460   2.989   5.424  0.8771  0.0762 -0.8080
12623TIP3    H259285   3.468   3.128   5.365 -0.4391  0.8771  0.8046
12624TIP3   OH259286   4.390   3.349   1.070 -0.1100 -0.0947  0.0751
12624TIP3    H159287   4.395   3.434   1.026  1.1103 -0.2826 -0.1903
12624TIP3    H259288   4.324   3.300   1.022  0.8482 -0.1195 -1.2699
12625TIP3   OH259289   4.767   0.156   4.056  0.4944 -0.1508  0.2788
12625TIP3    H159290   4.698   0.136   3.993 -1.3099 -0.5297  2.2613
12625TIP3    H259291   4.813   0.073   4.068 -0.5844 -0.6479  1.0827
12626TIP3   OH259292   6.205   4.412   5.256  0.6012 -0.1257  0.0319
12626TIP3    H159293   6.233   4.373   5.339  1.8439  0.7867  0.0680
12626TIP3    H259294   6.169   4.338   5.206  1.6383 -1.0687  0.6235
12627TIP3   OH259295   5.482   5.872   4.236  0.6901 -0.5911  0.1096
12627TIP3    H159296   5.491   5.954   4.284  0.8833 -0.0324 -0.8613
12627TIP3    H259297   5.565   5.862   4.189  1.0459 -1.8299  0.9391
12628TIP3   OH259298   6.556   2.832  13.676  0.1035 -0.1246 -0.7008
12628TIP3    H159299   6.467   2.810  13.648  0.6529  0.2291 -2.9810
12628TIP3    H259300   6.546   2.911  13.729 -0.9780 -0.4259 -0.4213
12629TIP3   OH259301   6.278   6.378   0.441 -0.3172 -0.0034 -0.2787
12629TIP3    H159302   6.284   6.284   0.457  0.0560 -0.0446 -0.6423
12629TIP3    H259303   6.345   6.396   0.375 -0.5189  0.4827 -0.3619
12630TIP3   OH259304   5.585   2.070   2.742 -0.3077 -0.1633 -0.4751
12630TIP3    H159305   5.660   2.014   2.763  0.2367  0.1907 -1.4107
12630TIP3    H259306   5.624   2.147   2.700 -1.2232 -0.1198 -1.2832
12631TIP3   OH259307   0.640   1.418  12.648  0.0829  0.6419 -0.0681
12631TIP3    H159308   0.573   1.350  12.640  1.3434 -0.7644  0.9801
12631TIP3    H259309   0.664   1.439  12.557 -0.7394  0.1386 -0.4112
12632TIP3   OH259310   2.917   3.302   5.100 -0.2223  1.1595 -0.1908
12632TIP3    H159311   2.858   3.274   5.030  1.0144  1.6114 -1.4574
12632TIP3    H259312   2.966   3.223   5.123  0.9286  1.4775 -1.4304
12633TIP3   OH259313   0.696   3.824   3.816  0.2928 -0.3070  0.1672
12633TIP3    H159314   0.732   3.912   3.806  1.5461 -0.8773 -0.6004
12633TIP3    H259315   0.680   3.794   3.727 -1.2654 -0.4191  0.4639
12634TIP3   OH259316   5.682   4.281   5.338  0.1697 -0.4961 -0.7373
12634TIP3    H159317   5.600   4.284   5.288  0.2359  1.2549 -0.7910
12634TIP3    H259318   5.750   4.299   5.272  0.5162 -0.9218 -0.5020
12635TIP3   OH259319   2.817   2.345  15.917 -0.1652  0.5807  0.0837
12635TIP3    H159320   2.879   2.336  15.989  1.1915  2.0223 -0.8369
12635TIP3    H259321   2.750   2.405  15.949  0.1304  0.7740  0.3375
12636TIP3   OH259322   4.397   6.025   2.306 -0.3311  0.1653  0.1464
12636TIP3    H159323   4.416   5.931   2.305 -0.3977  0.1316 -1.4177
12636TIP3    H259324   4.306   6.031   2.275 -1.4139  0.6080  3.0618
12637TIP3   OH259325   4.196   6.187   0.786  0.0497 -0.0111  0.4659
12637TIP3    H159326   4.208   6.192   0.881  0.8110  1.2844  0.3317
12637TIP3    H259327   4.176   6.276   0.760  0.2007 -0.2896 -0.6375
12638TIP3   OH259328   2.352   0.912   4.533  0.3438  0.5403 -0.1596
12638TIP3    H159329   2.434   0.863   4.531  0.3089  0.4322  0.6574
12638TIP3    H259330   2.371   0.988   4.589 -0.5801 -0.3750  1.4625
12639TIP3   OH259331   4.163   3.998   0.427 -0.8254 -0.1485  0.4170
12639TIP3    H159332   4.109   4.076   0.429  1.4746  1.5604  0.2687
12639TIP3    H259333   4.231   4.018   0.362  0.0051 -2.1548  0.6002
12640TIP3   OH259334   2.742   2.895  16.785 -0.1701  0.5799 -0.3630
12640TIP3    H159335   2.724   2.812  16.828  1.4585  0.1830 -0.3788
12640TIP3    H259336   2.722   2.961  16.852  1.1783  0.0200  0.6534
12641TIP3   OH259337   4.241   0.853   5.423 -0.4292 -0.4200 -0.5416
12641TIP3    H159338   4.154   0.843   5.462 -0.4223  2.5837  0.4748
12641TIP3    H259339   4.287   0.772   5.446 -2.2840 -1.1783  0.6958
12642TIP3   OH259340   6.402   2.440   1.173 -0.0320  0.2885 -0.2858
12642TIP3    H159341   6.488   2.468   1.141 -0.3544 -0.4354 -1.8671
12642TIP3    H259342   6.397   2.474   1.262  2.3420 -0.5545  0.2331
12643TIP3   OH259343   5.106   6.540   4.962  0.6935 -0.1559  0.2624
12643TIP3    H159344   5.117   6.629   4.928  0.3846 -0.0845  0.3492
12643TIP3    H259345   5.045   6.550   5.035 -0.7476 -0.6974 -0.8307
12644TIP3   OH259346   4.622   6.787  14.373  0.3309  0.1101  0.3586
12644TIP3    H159347   4.712   6.764  14.347 -0.1993 -0.3496 -1.1824
12644TIP3    H259348   4.594   6.714  14.429  0.6911 -0.0839  0.2916
12645TIP3   OH259349   4.400   2.030   0.614  0.0769 -0.6631 -0.2605
12645TIP3    H159350   4.429   2.087   0.686  0.2039 -0.1462 -0.7084
12645TIP3    H259351   4.480   2.017   0.562  0.3402 -2.2552  0.4856
12646TIP3   OH259352   4.576   2.821   5.332 -0.3660  0.2699 -0.3249
12646TIP3    H159353   4.599   2.879   5.405 -0.0076 -0.0181 -0.2037
12646TIP3    H259354   4.490   2.851   5.303 -0.3819  0.5710  0.0299
12647TIP3   OH259355   0.989   2.997   0.735  0.3160  0.2272  0.5549
12647TIP3    H159356   1.071   3.045   0.747 -0.0673  1.2512 -0.7487
12647TIP3    H259357   0.934   3.025   0.808  0.3169  1.3179  0.1464
12648TIP3   OH259358   4.031   1.440   0.025  0.1792  0.2198 -0.2359
12648TIP3    H159359   4.112   1.418  -0.021  0.7979  0.4370  0.7150
12648TIP3    H259360   3.992   1.356   0.047  0.8711  0.0790  0.5161
12649TIP3   OH259361   5.696   1.125  12.762  0.1337  0.0476  0.0321
12649TIP3    H159362   5.714   1.124  12.668 -0.8356  1.2938 -0.1982
12649TIP3    H259363   5.757   1.061  12.799 -0.1125 -1.1819 -1.5476
12650TIP3   OH259364   6.782   3.390  12.611  0.3354  0.2775 -0.0967
12650TIP3    H159365   6.855   3.451  12.604 -0.3314  1.3393  1.4657
12650TIP3    H259366   6.724   3.413  12.539  0.6911  0.6303 -0.2745
12651TIP3   OH259367   2.762   3.055  14.040 -0.6296 -0.4811 -0.0731
12651TIP3    H159368   2.723   3.110  13.972 -2.2030 -0.3577  0.8821
12651TIP3    H259369   2.715   3.079  14.120  0.7336 -1.0797  0.9514
12652TIP3   OH259370   2.560   2.749  15.591  0.0699 -0.3060  0.0604
12652TIP3    H159371   2.560   2.827  15.537 -0.4287 -1.0473 -1.0431
12652TIP3    H259372   2.652   2.731  15.609  0.2175  0.1749 -0.2168
12653TIP3   OH259373   4.967   5.340   1.656  0.8475  0.1556 -0.3056
12653TIP3    H159374   4.992   5.248   1.656  0.2816 -0.0080  0.5754
12653TIP3    H259375   4.978   5.368   1.747 -0.8856  0.4118 -0.1425
12654TIP3   OH259376   4.434   5.933  12.617 -0.9639  0.6181 -0.1367
12654TIP3    H159377   4.518   5.931  12.571 -1.3775 -1.3394 -0.9112
12654TIP3    H259378   4.392   6.014  12.587 -0.2036  0.5929 -1.3356
12655TIP3   OH259379   0.375   4.388  11.280  0.2948  0.9637 -0.0029
12655TIP3    H159380   0.410   4.312  11.233 -1.2154 -0.4867  1.1099
12655TIP3    H259381   0.452   4.429  11.319  1.1492  0.0468 -0.6696
12656TIP3   OH259382   3.498   6.227   5.052  0.2868  0.0255  0.1610
12656TIP3    H159383   3.493   6.224   4.956 -0.0844 -1.5314  0.1996
12656TIP3    H259384   3.512   6.135   5.077  2.4887  0.6459  1.4925
12657TIP3   OH259385   5.548   5.043   3.451 -0.8026 -0.0505  0.3909
12657TIP3    H159386   5.631   5.056   3.496 -0.9494 -0.2337  0.7153
12657TIP3    H259387   5.557   4.960   3.405 -1.2131 -0.6322  1.3456
12658TIP3   OH259388   4.620   3.579  14.888  0.4448  0.8505  0.5484
12658TIP3    H159389   4.615   3.528  14.968  1.9905 -0.1258  0.0675
12658TIP3    H259390   4.672   3.656  14.912  0.6077  0.7318  0.5836
12659TIP3   OH259391   6.175   1.044  12.052  0.2511 -0.2320  0.2344
12659TIP3    H159392   6.109   1.113  12.040  0.4381  0.0133  0.5954
12659TIP3    H259393   6.137   0.967  12.010 -0.5889 -0.2964  1.0716
12660TIP3   OH259394   5.461   0.563  12.997  0.4420  0.1502 -0.2811
12660TIP3    H159395   5.472   0.573  12.903  0.4011  1.2361 -0.1772
12660TIP3    H259396   5.543   0.523  13.026  0.5458  0.0254 -0.7380
12661TIP3   OH259397   3.743   5.529  14.207 -0.9323 -1.3601 -0.6365
12661TIP3    H159398   3.660   5.557  14.245 -0.9559 -2.4915  0.1962
12661TIP3    H259399   3.752   5.580  14.127 -1.7870 -0.2705 -0.0510
12662TIP3   OH259400   3.957   2.775   4.520 -0.0456 -0.2758 -0.3417
12662TIP3    H159401   3.908   2.723   4.585 -1.2171  0.8204 -0.2985
12662TIP3    H259402   3.890   2.803   4.457  0.3041  2.0726  0.2446
12663TIP3   OH259403   1.869   1.060   4.469 -0.2068 -0.4729  0.1209
12663TIP3    H159404   1.891   1.126   4.404  0.5626 -0.7021  0.1438
12663TIP3    H259405   1.940   1.064   4.532 -0.9772 -0.1981  1.0053
12664TIP3   OH259406   0.424   3.621  15.765  0.1064 -0.1000 -0.5257
12664TIP3    H159407   0.507   3.651  15.801 -0.2003  0.1020  0.0137
12664TIP3    H259408   0.357   3.672  15.811 -0.3575 -0.7725 -0.4391
12665TIP3   OH259409   6.744   0.592  14.185  0.1771  0.5950 -0.0280
12665TIP3    H159410   6.712   0.510  14.149 -0.2188  1.3829 -1.5400
12665TIP3    H259411   6.805   0.625  14.119 -0.2753  1.8955  0.1770
12666TIP3   OH259412   2.364   4.207  12.925  0.1703 -0.2217  0.5202
12666TIP3    H159413   2.276   4.242  12.937 -0.0730 -1.2777  2.2465
12666TIP3    H259414   2.365   4.127  12.978  2.0372 -0.4635  0.1881
12667TIP3   OH259415   4.155   6.245  16.246 -0.3241  0.1930  0.4803
12667TIP3    H159416   4.119   6.156  16.240 -1.2541  0.6108 -0.4690
12667TIP3    H259417   4.079   6.301  16.262  0.3944  0.7233  2.2008
12668TIP3   OH259418   5.592   4.790   4.260  0.0203 -0.4088 -0.3418
12668TIP3    H159419   5.524   4.736   4.220  0.1360  0.2747 -1.4958
12668TIP3    H259420   5.665   4.787   4.199  0.7356 -0.4652  0.4949
12669TIP3   OH259421   1.116   3.504  17.026  0.0125  0.1124 -0.3348
12669TIP3    H159422   1.030   3.539  17.004 -0.5450  0.2239  1.7739
12669TIP3    H259423   1.177   3.576  17.009 -0.7168  1.0749  0.9219
12670TIP3   OH259424   3.616   2.942  11.024 -0.0192 -0.3855  0.3934
12670TIP3    H159425   3.649   2.853  11.014 -1.8581 -0.9068 -1.5062
12670TIP3    H259426   3.669   2.994  10.964 -0.7898 -0.7309 -0.6068
12671TIP3   OH259427   0.923   5.913  12.850 -0.0166 -0.0561 -0.1060
12671TIP3    H159428   0.918   5.999  12.891  0.8747 -0.3641  0.6654
12671TIP3    H259429   0.834   5.878  12.859  0.2352 -0.2890  1.9852
12672TIP3   OH259430   0.199   2.534   5.790 -0.0399  0.3020 -0.1439
12672TIP3    H159431   0.140   2.494   5.855 -0.1828  1.0848  0.2139
12672TIP3    H259432   0.263   2.465   5.771 -0.0174  0.0443  0.8084
12673TIP3   OH259433   3.661   2.816  15.764  0.3667 -0.4403  0.0821
12673TIP3    H159434   3.734   2.875  15.743  0.3620  0.1526  1.5915
12673TIP3    H259435   3.611   2.810  15.683  0.9233  0.8490 -0.3964
12674TIP3   OH259436   5.082   5.762  12.041  0.4561  0.6664  0.5479
12674TIP3    H159437   5.033   5.719  11.971 -0.9708  0.1918  1.7901
12674TIP3    H259438   5.162   5.710  12.050  0.2951  0.2706 -0.1887
12675TIP3   OH259439   1.848   4.416  12.697 -0.1808  0.2996  0.2683
12675TIP3    H159440   1.853   4.329  12.737  1.1950 -0.4668 -1.4339
12675TIP3    H259441   1.756   4.440  12.703 -1.2558 -2.6798 -1.9624
12676TIP3   OH259442   4.724   2.961  17.234  0.3959  0.2491 -0.0448
12676TIP3    H159443   4.685   3.031  17.285  0.9674 -0.0958  0.9091
12676TIP3    H259444   4.697   2.978  17.144  0.8840  1.9336  0.0961
12677TIP3   OH259445   2.186   3.272  11.977 -0.0095  0.0497  0.0470
12677TIP3    H159446   2.127   3.288  11.903 -1.8668 -1.3779  1.1131
12677TIP3    H259447   2.248   3.207  11.944  0.3189  0.7547 -0.7706
12678TIP3   OH259448   0.517   3.298   4.665 -0.0684 -0.0272 -0.3466
12678TIP3    H159449   0.558   3.211   4.661 -0.3623 -0.2426  0.8846
12678TIP3    H259450   0.534   3.328   4.754 -1.6800  0.3163 -0.1213
12679TIP3   OH259451   5.191   5.579  16.194 -0.0108 -0.3632 -0.2782
12679TIP3    H159452   5.154   5.501  16.236  1.5586  0.4016  2.7826
12679TIP3    H259453   5.260   5.545  16.137 -1.2329 -1.3557 -1.2225
12680TIP3   OH259454   6.275   5.003   6.044  0.0399  0.7373  0.0457
12680TIP3    H159455   6.252   5.092   6.071  0.0887  1.2312 -1.4679
12680TIP3    H259456   6.370   5.006   6.031  0.2364  0.1117  1.1884
12681TIP3   OH259457   0.521   3.840   1.499 -0.0318 -0.3816  0.0462
12681TIP3    H159458   0.546   3.790   1.577 -0.8920 -0.5683  0.2172
12681TIP3    H259459   0.592   3.902   1.486  0.5116 -0.9000  0.5000
12682TIP3   OH259460   5.021   5.771   1.756 -0.1644  0.1127  0.3761
12682TIP3    H159461   5.038   5.695   1.701 -1.5551  0.9778 -1.3337
12682TIP3    H259462   5.104   5.818   1.760 -0.2032  0.4033 -1.6318
12683TIP3   OH259463   6.106   2.287  11.780  0.3732  0.2846 -0.4239
12683TIP3    H159464   6.014   2.271  11.800  0.6127  0.9790  1.4722
12683TIP3    H259465   6.104   2.346  11.705 -0.7868  1.1482  0.2408
12684TIP3   OH259466   0.879   2.419   5.586 -0.3281  0.1975 -0.4352
12684TIP3    H159467   0.921   2.443   5.669  1.9930 -0.0013 -1.4575
12684TIP3    H259468   0.786   2.424   5.604  0.0258 -1.6341  2.7396
12685TIP3   OH259469   3.490   1.634   0.175  0.6615 -0.5488 -0.1409
12685TIP3    H159470   3.465   1.698   0.109 -0.5617  0.7028  1.4390
12685TIP3    H259471   3.580   1.611   0.154  0.8674  1.0971 -1.2257
12686TIP3   OH259472   1.412   2.935  11.820 -0.1485  0.0300  0.1038
12686TIP3    H159473   1.376   2.876  11.885  0.5173 -1.9246 -1.2122
12686TIP3    H259474   1.500   2.902  11.803 -0.2052  0.6276 -1.5812
12687TIP3   OH259475   0.535   0.703  11.784  0.2355 -0.1781  0.8460
12687TIP3    H159476   0.446   0.732  11.803 -0.1295 -0.3308 -0.5703
12687TIP3    H259477   0.535   0.681  11.691  1.2645 -1.9363  1.2021
12688TIP3   OH259478   4.216   6.414  16.747  0.1501 -0.6069 -0.0335
12688TIP3    H159479   4.297   6.466  16.747  1.4622 -2.4552 -1.9423
12688TIP3    H259480   4.193   6.407  16.654 -0.9909 -1.8981  0.3155
12689TIP3   OH259481   2.861   3.812   4.004 -0.1408 -0.1978 -0.0673
12689TIP3    H159482   2.914   3.890   4.017  0.2602 -0.3030 -1.0399
12689TIP3    H259483   2.923   3.745   3.975 -0.6473 -0.5896 -0.2644
12690TIP3   OH259484   6.582   5.818  12.219 -0.2277  0.4403  0.4271
12690TIP3    H159485   6.652   5.760  12.189 -0.4928  1.1175 -1.6318
12690TIP3    H259486   6.503   5.763  12.220 -0.1927  0.3796 -0.0472
12691TIP3   OH259487   4.857   5.122  16.800  0.0653 -0.0621 -0.5696
12691TIP3    H159488   4.822   5.118  16.889 -0.7351 -0.0787 -0.8706
12691TIP3    H259489   4.894   5.209  16.793 -1.0951  0.4455 -0.6456
12692TIP3   OH259490   4.884   1.762  14.417  0.5439  0.2126  0.3518
12692TIP3    H159491   4.829   1.814  14.358  1.5137  0.2367 -0.5716
12692TIP3    H259492   4.898   1.818  14.493  0.5301  0.7933 -0.0715
12693TIP3   OH259493   4.710   5.497  14.575 -0.3102 -0.2815 -0.1856
12693TIP3    H159494   4.757   5.551  14.639 -0.4487 -0.9274  0.4840
12693TIP3    H259495   4.758   5.414  14.574  0.9206  0.3693 -2.4415
12694TIP3   OH259496   3.233   5.017  16.057 -0.3136  0.2145  0.3269
12694TIP3    H159497   3.285   4.996  15.979  2.0742  0.4515  1.7806
12694TIP3    H259498   3.215   4.933  16.098 -2.5735 -0.0358 -0.9611
12695TIP3   OH259499   4.169   5.086  11.321  0.2337  0.2740 -0.2704
12695TIP3    H159500   4.133   5.173  11.337  0.7518  0.4051  0.2120
12695TIP3    H259501   4.248   5.102  11.269  0.8161  0.1686  0.5651
12696TIP3   OH259502   2.243   1.920   4.699 -0.1452 -0.5350 -0.3337
12696TIP3    H159503   2.262   2.011   4.721 -1.2877  0.2770 -2.4339
12696TIP3    H259504   2.157   1.903   4.737  0.0127 -0.7017 -0.0488
12697TIP3   OH259505   0.324   0.382   6.666  0.2976 -0.0538  0.0026
12697TIP3    H159506   0.245   0.363   6.615  1.7801 -1.7184 -1.8742
12697TIP3    H259507   0.341   0.475   6.650  0.4023 -0.3959 -2.1785
12698TIP3   OH259508   5.900   2.511   3.174 -0.0430  0.3553 -0.1483
12698TIP3    H159509   5.961   2.438   3.187  1.0876  1.4657  1.1575
12698TIP3    H259510   5.815   2.470   3.160  0.4034 -1.2196  1.4170
12699TIP3   OH259511   2.471   0.866  12.817 -0.3555  0.0265 -0.3820
12699TIP3    H159512   2.517   0.946  12.791 -1.1878  0.4040 -0.7219
12699TIP3    H259513   2.463   0.815  12.737  0.9192 -0.8008 -0.0061
12700TIP3   OH259514   2.935   2.149   3.606  0.2655 -0.0616 -0.1873
12700TIP3    H159515   2.922   2.058   3.633 -2.5537  0.4022  0.3325
12700TIP3    H259516   2.847   2.185   3.599  1.2965  2.9128  0.5501
12701TIP3   OH259517   1.596   5.101  11.367 -0.7928  0.5302  0.0851
12701TIP3    H159518   1.523   5.042  11.385 -0.2793 -0.4493 -0.9577
12701TIP3    H259519   1.592   5.118  11.273 -1.1025  2.4298  0.3870
12702TIP3   OH259520   3.032   0.117  15.925 -0.3674  0.7190 -0.2422
12702TIP3    H159521   3.005   0.187  15.865  0.3822  0.8317 -0.4547
12702TIP3    H259522   3.115   0.086  15.890 -0.6395 -0.2085 -0.0823
12703TIP3   OH259523   0.439   0.603   3.671  0.0442  0.1909  0.1423
12703TIP3    H159524   0.361   0.560   3.636 -0.4182  0.6944  0.5255
12703TIP3    H259525   0.512   0.550   3.640 -0.3804  0.2998 -1.0989
12704TIP3   OH259526   5.073   0.124   0.771  0.1157 -0.1661  0.5002
12704TIP3    H159527   5.065   0.180   0.693  0.6977  0.5791  0.9591
12704TIP3    H259528   5.137   0.169   0.826 -0.2130 -0.7350  1.3682
12705TIP3   OH259529   2.766   1.965   1.531  0.0887 -0.3703 -0.0104
12705TIP3    H159530   2.782   1.898   1.597  0.8851  0.8151  1.0464
12705TIP3    H259531   2.850   1.976   1.488 -0.0643 -0.1220 -0.2462
12706TIP3   OH259532   6.497   5.348  14.986 -0.2175  0.1841  0.0710
12706TIP3    H159533   6.560   5.398  14.933  1.0541 -0.5723  0.8138
12706TIP3    H259534   6.515   5.256  14.965 -0.1540 -0.0997  1.2779
12707TIP3   OH259535   5.352   6.535   4.709 -0.2984  0.3743  0.2584
12707TIP3    H159536   5.365   6.548   4.615  2.4889  1.2534  0.6685
12707TIP3    H259537   5.399   6.608   4.749 -1.6225  0.1324  2.3436
12708TIP3   OH259538   2.398   5.831  12.723 -0.0967  0.8525  0.2868
12708TIP3    H159539   2.374   5.739  12.734 -0.7202  0.7580 -1.4889
12708TIP3    H259540   2.494   5.829  12.715 -0.0678  0.4157  0.6867
12709TIP3   OH259541   4.201   4.486   3.363 -0.4129  0.2255  0.0982
12709TIP3    H159542   4.229   4.524   3.280 -0.1104  0.2190  0.1947
12709TIP3    H259543   4.236   4.397   3.362  3.4485  1.4755  2.0503
12710TIP3   OH259544   0.486   5.289  11.405  0.2695  0.3968 -0.0698
12710TIP3    H159545   0.566   5.245  11.376 -0.1027  0.3387 -1.0263
12710TIP3    H259546   0.515   5.378  11.427  0.5688  0.4335 -0.6016
12711TIP3   OH259547   6.246   2.145   3.311  0.1641  0.2132  0.6332
12711TIP3    H159548   6.209   2.120   3.395 -0.4642  0.6900  0.5032
12711TIP3    H259549   6.222   2.073   3.252 -1.4199  0.9646  0.3198
12712TIP3   OH259550   2.068   6.551   5.669 -0.3714 -0.3246  0.0367
12712TIP3    H159551   2.041   6.493   5.597  1.7075 -1.3404 -0.0136
12712TIP3    H259552   2.146   6.508   5.706 -1.8519 -0.3586  3.5392
12713TIP3   OH259553   0.673   4.184   5.686  0.2053  0.5220 -0.0394
12713TIP3    H159554   0.611   4.183   5.759 -0.9761 -0.1655 -1.0257
12713TIP3    H259555   0.701   4.276   5.680  0.7130  0.5092  1.5669
12714TIP3   OH259556   2.140   4.945  12.643 -0.1023 -0.2358  0.0873
12714TIP3    H159557   2.093   5.010  12.591  0.3879  0.9212  1.0426
12714TIP3    H259558   2.081   4.926  12.717 -0.2932 -0.9765 -0.2476
12715TIP3   OH259559   1.409   6.352   1.494  0.8492  0.2412 -0.1551
12715TIP3    H159560   1.502   6.329   1.487  0.7135 -0.2551 -0.3739
12715TIP3    H259561   1.377   6.301   1.567  0.0756 -1.8941 -1.8888
12716TIP3   OH259562   5.087   2.102  12.700  0.6224 -0.0901 -0.1925
12716TIP3    H159563   5.055   2.186  12.668  0.9262  0.1433  0.1050
12716TIP3    H259564   5.009   2.056  12.730  0.5149  0.3094  0.1554
12717TIP3   OH259565   5.420   6.692   5.759  0.2291  0.6997 -0.0882
12717TIP3    H159566   5.444   6.775   5.718  2.2909 -0.7898 -2.1304
12717TIP3    H259567   5.487   6.678   5.826  1.7885 -0.6952 -1.8432
12718TIP3   OH259568   4.783   0.122  13.954 -0.3103  0.4100  0.2862
12718TIP3    H159569   4.806   0.039  13.913  1.0901  1.0453 -0.2706
12718TIP3    H259570   4.703   0.103  14.002 -0.3368 -1.1132 -0.2979
12719TIP3   OH259571   6.284   4.361   1.845 -0.1269  0.2231  0.1145
12719TIP3    H159572   6.287   4.378   1.751 -0.6591 -2.1638 -0.3978
12719TIP3    H259573   6.197   4.390   1.872 -1.6505 -2.8303 -1.0468
12720TIP3   OH259574   4.336   3.027   1.230  0.2841  0.3864 -0.4420
12720TIP3    H159575   4.255   3.063   1.192  1.3849  1.9063 -1.4545
12720TIP3    H259576   4.310   2.941   1.263 -1.7285  0.7922 -0.8033
12721TIP3   OH259577   3.711   6.068   2.372 -0.0179 -0.6005  0.2066
12721TIP3    H159578   3.778   6.114   2.322  1.7686 -0.4978  2.5304
12721TIP3    H259579   3.750   5.982   2.389 -0.0884 -0.2487  2.2982
12722TIP3   OH259580   2.091   3.365   6.044 -0.6060 -0.2009  0.2162
12722TIP3    H159581   2.034   3.347   5.969 -0.0125  0.3458 -0.3857
12722TIP3    H259582   2.047   3.437   6.090 -0.5707  0.0074 -0.0691
12723TIP3   OH259583   2.931   4.136  16.998  0.0348  0.1209  0.4703
12723TIP3    H159584   2.955   4.203  16.934  0.0674  0.5449  0.9180
12723TIP3    H259585   2.860   4.176  17.049 -0.2626 -0.3636  0.4404
12724TIP3   OH259586   1.753   2.528  14.746 -0.4775  0.0072 -0.2104
12724TIP3    H159587   1.724   2.601  14.692  0.2357  0.5338  0.0963
12724TIP3    H259588   1.681   2.466  14.744 -1.4435  1.0757  0.1827
12725TIP3   OH259589   3.450   3.269  12.648  0.0909  0.3488  0.4107
12725TIP3    H159590   3.394   3.225  12.712  2.0176 -1.1613  1.1508
12725TIP3    H259591   3.391   3.289  12.575 -1.3293 -1.6235  0.9130
12726TIP3   OH259592   1.013   0.343  12.629  0.2809  0.1320 -0.5828
12726TIP3    H159593   1.017   0.376  12.539 -1.3191 -0.6466 -0.9830
12726TIP3    H259594   0.983   0.418  12.680 -0.8554  0.0329 -1.0681
12727TIP3   OH259595   5.641   1.025   2.508 -0.0225 -0.5163  0.0238
12727TIP3    H159596   5.581   1.085   2.464  1.6154  0.9688 -0.2791
12727TIP3    H259597   5.699   0.994   2.438  0.5508 -0.7072  0.5745
12728TIP3   OH259598   0.032   3.511   5.099  0.4160 -0.1273 -0.6069
12728TIP3    H159599   0.095   3.440   5.108 -0.5376 -0.8043  1.3570
12728TIP3    H259600   0.069   3.581   5.153 -0.2329 -0.3357  0.1169
12729TIP3   OH259601   5.620   3.067  10.652  0.2389  0.0368 -0.2496
12729TIP3    H159602   5.628   3.097  10.562  0.5371  2.1971  0.4416
12729TIP3    H259603   5.705   3.087  10.691 -0.5046  0.9221  0.9920
12730TIP3   OH259604   2.792   1.756   2.465  0.0635  0.2817  0.0358
12730TIP3    H159605   2.759   1.732   2.379 -0.5187 -0.2512  0.4011
12730TIP3    H259606   2.795   1.851   2.464  0.2836  0.2727 -0.6529
12731TIP3   OH259607   2.218   4.844  15.436 -0.0115  0.4202  0.5083
12731TIP3    H159608   2.159   4.917  15.419 -0.8231 -0.3049  0.1098
12731TIP3    H259609   2.164   4.779  15.481  0.7329  0.1156  0.9892
12732TIP3   OH259610   0.588   4.807   1.258 -0.3496  0.5093 -0.6488
12732TIP3    H159611   0.594   4.855   1.176  1.0309  2.7461  0.6508
12732TIP3    H259612   0.562   4.873   1.323  1.8844 -0.3379  1.2955
12733TIP3   OH259613   1.379   2.372   3.365 -0.2814  0.0520 -0.1693
12733TIP3    H159614   1.368   2.426   3.443 -1.9019 -2.4598  1.5055
12733TIP3    H259615   1.291   2.365   3.328  0.0534 -0.6579 -0.8531
12734TIP3   OH259616   3.389   5.191  12.413  0.6368 -0.2494 -0.1306
12734TIP3    H159617   3.330   5.119  12.435  0.5084  0.2468  1.2634
12734TIP3    H259618   3.412   5.230  12.498  0.2902  1.6727 -0.8604
12735TIP3   OH259619   1.826   0.676  15.499  0.7474 -0.4116  0.0815
12735TIP3    H159620   1.749   0.710  15.453  0.3402  0.4790  1.3766
12735TIP3    H259621   1.868   0.754  15.536 -0.2220 -1.2131  3.1778
12736TIP3   OH259622   4.489   0.214  16.623  0.2240 -0.0816 -0.0441
12736TIP3    H159623   4.473   0.235  16.715  0.5973  2.5429 -0.5169
12736TIP3    H259624   4.544   0.285  16.591 -1.5043  0.1530 -2.8045
12737TIP3   OH259625   2.263   0.260   1.822 -0.2225 -0.0613 -0.4080
12737TIP3    H159626   2.177   0.218   1.826 -0.0969 -0.2250  1.7276
12737TIP3    H259627   2.271   0.308   1.905 -0.3597  4.3273 -2.6788
12738TIP3   OH259628   5.440   2.486   4.155  0.2276  0.0724 -0.5983
12738TIP3    H159629   5.533   2.491   4.134 -0.1433 -0.0747 -2.4347
12738TIP3    H259630   5.412   2.577   4.161  0.6388  0.1244  0.7733
12739TIP3   OH259631   4.690   0.677   3.437 -0.5735 -0.0768 -0.4026
12739TIP3    H159632   4.686   0.772   3.446  2.9575  0.1853  0.0979
12739TIP3    H259633   4.630   0.643   3.503 -0.6245  1.8242  0.5805
12740TIP3   OH259634   0.567   2.718   5.295  0.2517  0.4242 -0.0127
12740TIP3    H159635   0.526   2.637   5.322  0.4885  0.4045  0.2921
12740TIP3    H259636   0.597   2.759   5.376 -0.0334  0.9090 -0.1460
12741TIP3   OH259637   2.282   6.760   2.478  0.3321  0.3053  0.1753
12741TIP3    H159638   2.350   6.718   2.530  0.9448  3.2090  1.9951
12741TIP3    H259639   2.210   6.773   2.540 -1.3588 -1.3499 -1.3241
12742TIP3   OH259640   0.477   3.981   4.580  0.1457 -0.0880 -0.0577
12742TIP3    H159641   0.479   4.060   4.525 -0.7220 -0.0134  0.0170
12742TIP3    H259642   0.407   3.996   4.642  0.4274 -0.6332  0.4029
12743TIP3   OH259643   3.845   4.984   4.941  0.2054 -0.5357  0.3659
12743TIP3    H159644   3.796   4.976   4.859  2.2897 -0.7694 -0.9393
12743TIP3    H259645   3.841   4.897   4.981 -1.6361 -0.1699  1.0576
12744TIP3   OH259646   0.627   6.277  11.514  0.4540  0.4531 -0.3958
12744TIP3    H159647   0.656   6.227  11.591 -0.4512 -0.7570 -0.8016
12744TIP3    H259648   0.594   6.359  11.549 -0.2342 -0.2059  0.5593
12745TIP3   OH259649   3.600   3.122   2.447  0.5026 -0.2216 -0.1927
12745TIP3    H159650   3.653   3.198   2.471 -1.0552  0.4516  1.3057
12745TIP3    H259651   3.571   3.086   2.530  0.7603 -2.1673 -0.9082
12746TIP3   OH259652   4.037   1.890  15.863 -0.3783  0.6222 -0.2984
12746TIP3    H159653   4.095   1.907  15.789 -0.0725  1.2881  0.0865
12746TIP3    H259654   4.064   1.805  15.896 -1.3316 -0.2751 -1.7017
12747TIP3   OH259655   3.899   1.137  14.361  0.3200 -0.4593 -0.5554
12747TIP3    H159656   3.844   1.214  14.379  0.4710  0.2539 -2.9234
12747TIP3    H259657   3.844   1.080  14.308  0.6343 -1.4674  0.1677
12748TIP3   OH259658   1.862   5.226  14.880  0.3188 -0.9433  0.0218
12748TIP3    H159659   1.868   5.134  14.905  1.8612 -1.4161 -1.8367
12748TIP3    H259660   1.952   5.258  14.886 -0.0426  0.1815 -0.3126
12749TIP3   OH259661   2.098   2.063   1.276 -0.4713  0.0469  0.1133
12749TIP3    H159662   2.065   2.046   1.188 -2.1750  1.6602  0.3712
12749TIP3    H259663   2.061   1.992   1.329 -1.2308  0.2471 -0.1225
12750TIP3   OH259664   1.513   3.782   1.105  0.0317  0.2110  0.5990
12750TIP3    H159665   1.498   3.786   1.200  1.2489  0.9587  0.7715
12750TIP3    H259666   1.450   3.845   1.069 -2.3076 -1.9620  0.6278
12751TIP3   OH259667   6.506   4.971   1.676 -0.1882 -0.2877 -0.3893
12751TIP3    H159668   6.412   4.960   1.666 -0.0641 -1.5492 -0.3171
12751TIP3    H259669   6.523   4.949   1.768 -0.2144  3.0397  0.5301
12752TIP3   OH259670   0.003   2.275   4.274 -0.4629  0.3642 -0.0531
12752TIP3    H159671   0.028   2.200   4.328  1.4261 -0.2279 -1.6208
12752TIP3    H259672  -0.092   2.271   4.270 -0.4232 -2.7888 -1.1179
12753TIP3   OH259673   4.375   2.064   3.773 -0.4412  0.0043  0.4280
12753TIP3    H159674   4.322   2.091   3.698 -2.7626 -2.2402  1.1414
12753TIP3    H259675   4.445   2.011   3.735  0.2195  1.4005 -0.3697
12754TIP3   OH259676   0.704   0.028  15.069 -0.6397 -0.4712  0.2292
12754TIP3    H159677   0.791   0.068  15.059 -0.9443 -0.1088 -1.2385
12754TIP3    H259678   0.678   0.004  14.980 -2.6266  0.6944  0.4244
12755TIP3   OH259679   2.321   5.837   0.933  0.7276 -0.0936 -0.4266
12755TIP3    H159680   2.377   5.897   0.983  2.3567 -0.5338 -1.6358
12755TIP3    H259681   2.380   5.768   0.903 -0.5370 -0.7772 -1.4829
12756TIP3   OH259682   2.543   2.026  11.179  0.0507  0.1690  0.0107
12756TIP3    H159683   2.481   2.020  11.106  0.3419 -1.8663 -0.1335
12756TIP3    H259684   2.625   2.055  11.139 -0.7391  2.9789  0.2175
12757TIP3   OH259685   3.967   4.813   0.576 -0.5067 -0.0084  0.2782
12757TIP3    H159686   3.955   4.763   0.496  1.1429 -0.9787  0.5967
12757TIP3    H259687   4.053   4.787   0.608  0.4007  2.9505  0.5426
12758TIP3   OH259688   0.727   3.468  11.201  0.0745 -0.5758  0.1325
12758TIP3    H159689   0.790   3.539  11.183 -1.0982  0.5033  0.1274
12758TIP3    H259690   0.740   3.448  11.294 -0.9231  1.0613  0.6668
12759TIP3   OH259691   4.282   3.948  11.428 -0.0295 -0.1246  0.0069
12759TIP3    H159692   4.226   3.937  11.504  0.0636 -0.0895  0.0816
12759TIP3    H259693   4.265   4.037  11.399  2.2726  1.0599  1.9203
12760TIP3   OH259694   5.267   3.473  15.094 -0.8321 -0.3405 -0.1301
12760TIP3    H159695   5.309   3.467  15.180 -1.7088  0.3977  0.3654
12760TIP3    H259696   5.322   3.535  15.045 -1.4723  0.8354  0.6072
12761TIP3   OH259697   3.750   6.269   3.759 -0.7403  0.3417 -0.1233
12761TIP3    H159698   3.659   6.296   3.746 -0.6333  0.5411 -0.4501
12761TIP3    H259699   3.801   6.349   3.752 -0.4839  0.1501 -0.4712
12762TIP3   OH259700   3.178   3.714  12.469 -0.3337 -0.5234 -0.0963
12762TIP3    H159701   3.110   3.663  12.514  0.4172 -0.1143  1.5723
12762TIP3    H259702   3.260   3.679  12.503  0.2311  0.7112 -0.1521
12763TIP3   OH259703   2.346   5.591   3.098 -0.5065  0.9105 -0.5728
12763TIP3    H159704   2.270   5.649   3.095 -0.8425  0.4575 -1.0699
12763TIP3    H259705   2.365   5.573   3.006  0.8213  1.8009 -0.4955
12764TIP3   OH259706   4.024   1.761   5.358  0.1638 -0.1687 -0.1863
12764TIP3    H159707   3.956   1.705   5.321  0.2531 -0.5950  0.2816
12764TIP3    H259708   4.043   1.722   5.443 -1.1988  1.6997  1.0538
12765TIP3   OH259709   6.553   3.162   6.397  0.1416  0.1606  0.3672
12765TIP3    H159710   6.616   3.214   6.448  0.0066  1.1891 -0.4757
12765TIP3    H259711   6.579   3.175   6.306 -2.3511  2.2014 -0.1925
12766TIP3   OH259712   4.155   0.375   5.360  0.2828 -0.3163 -0.3808
12766TIP3    H159713   4.090   0.313   5.329  0.3781  0.2256 -1.6958
12766TIP3    H259714   4.153   0.365   5.456 -2.0164 -0.0014 -0.3443
12767TIP3   OH259715   5.609   4.029  12.689 -0.9824  0.3462  0.3120
12767TIP3    H159716   5.587   3.973  12.614  1.9439  0.9418 -1.1220
12767TIP3    H259717   5.618   3.968  12.762 -0.8187 -0.6726 -0.5274
12768TIP3   OH259718   4.646   3.161  13.084  0.9794 -0.1190 -0.1195
12768TIP3    H159719   4.735   3.163  13.048  1.6500 -4.1811  0.8959
12768TIP3    H259720   4.641   3.079  13.133 -1.8107  2.1656  4.0299
12769TIP3   OH259721   2.830   3.212  11.115  0.2328  0.6946  0.0148
12769TIP3    H159722   2.761   3.235  11.053  1.4550 -0.7629 -2.0189
12769TIP3    H259723   2.890   3.287  11.113  0.4783  0.4820 -0.9136
12770TIP3   OH259724   5.745   1.728  15.631 -0.3421 -0.3672 -0.1725
12770TIP3    H159725   5.739   1.762  15.721 -1.7083  0.1846 -0.4505
12770TIP3    H259726   5.697   1.791  15.578 -1.2530 -1.7116 -1.0053
12771TIP3   OH259727   6.017   1.865   5.323 -0.3476  0.4443 -0.1553
12771TIP3    H159728   5.972   1.920   5.259 -0.9387  0.0500 -0.0861
12771TIP3    H259729   6.057   1.927   5.384  0.2131  0.8288 -0.8887
12772TIP3   OH259730   4.185   0.531  11.371 -0.4907 -0.7665 -0.8056
12772TIP3    H159731   4.269   0.577  11.380 -0.3906 -1.0488 -0.2495
12772TIP3    H259732   4.209   0.439  11.361 -0.7554 -1.0598  0.9160
12773TIP3   OH259733   6.722   1.246   5.406  0.0593 -0.1604  0.0232
12773TIP3    H159734   6.789   1.179   5.422 -0.8378 -1.4345 -1.2913
12773TIP3    H259735   6.768   1.329   5.419  1.8073 -1.0019 -0.4882
12774TIP3   OH259736   5.631   4.805  15.189  0.1032  0.2234  0.2609
12774TIP3    H159737   5.667   4.777  15.105 -1.5922  0.4383 -0.5744
12774TIP3    H259738   5.554   4.857  15.167 -0.0805  0.7428  1.9413
12775TIP3   OH259739   4.376   2.919   2.938 -0.1290 -0.3781 -0.2359
12775TIP3    H159740   4.326   2.840   2.920  0.0987 -0.6594  0.3595
12775TIP3    H259741   4.310   2.989   2.942 -0.2776 -0.4307 -1.3094
12776TIP3   OH259742   3.707   1.988   5.442  0.2645 -0.1054  0.6711
12776TIP3    H159743   3.676   1.907   5.400  2.0319 -0.5800  0.2007
12776TIP3    H259744   3.627   2.037   5.462 -0.8888 -2.1918  1.4518
12777TIP3   OH259745   2.098   3.767  14.666 -0.2152 -0.4645  0.3365
12777TIP3    H159746   2.181   3.730  14.696 -0.2839 -1.6098 -0.7830
12777TIP3    H259747   2.116   3.799  14.578 -1.3315 -2.4087 -0.6939
12778TIP3   OH259748   4.825   3.762   6.348 -0.1888  0.1419  0.0014
12778TIP3    H159749   4.803   3.854   6.360  0.3328  0.1418  1.0690
12778TIP3    H259750   4.885   3.742   6.420  2.4345 -0.1487 -2.1242
12779TIP3   OH259751   3.100   5.789   3.652 -0.5023 -0.2120 -0.4233
12779TIP3    H159752   3.039   5.740   3.707  0.9995 -0.9310  0.6891
12779TIP3    H259753   3.121   5.730   3.580 -1.3271  0.1602 -0.9879
12780TIP3   OH259754   0.845   4.632   5.864 -0.5365  0.0896 -0.8665
12780TIP3    H159755   0.800   4.716   5.874  0.3138  0.3775  1.1901
12780TIP3    H259756   0.904   4.628   5.940  0.5619 -1.6854 -1.7542
12781TIP3   OH259757   1.331   1.311   2.338  0.4642 -0.5161 -0.4118
12781TIP3    H159758   1.256   1.329   2.395  1.4012  0.3854  0.5893
12781TIP3    H259759   1.297   1.252   2.271 -1.3310  0.4810 -0.4298
12782TIP3   OH259760   3.774   0.629  13.733 -0.1563 -0.1017 -0.1154
12782TIP3    H159761   3.818   0.590  13.657  2.3521 -0.7772  1.5620
12782TIP3    H259762   3.796   0.571  13.805 -0.6347  1.6892  1.5382
12783TIP3   OH259763   3.791   6.391   4.862  0.1548  0.4650 -0.1577
12783TIP3    H159764   3.725   6.327   4.837  2.1680 -1.0408 -2.0080
12783TIP3    H259765   3.762   6.473   4.823 -1.4943  0.2910  0.6224
12784TIP3   OH259766   2.755   3.941   2.834 -0.6290  0.0614  0.4837
12784TIP3    H159767   2.844   3.916   2.861 -0.4428 -1.7192 -1.4738
12784TIP3    H259768   2.703   3.863   2.848 -1.2871  0.2377 -0.7903
12785TIP3   OH259769   4.807   1.613   5.917  0.0834 -0.2457 -0.0806
12785TIP3    H159770   4.793   1.706   5.938  1.7832 -0.0339  0.2860
12785TIP3    H259771   4.879   1.614   5.854 -1.0224 -1.2430 -1.3989
12786TIP3   OH259772   2.521   4.893  13.183 -0.2388 -0.0077 -0.2721
12786TIP3    H159773   2.515   4.979  13.142  0.1250 -0.8358 -2.1661
12786TIP3    H259774   2.615   4.875  13.187 -0.1734  0.5524  2.1262
12787TIP3   OH259775   2.612   4.895   5.468 -0.0687  0.0169  0.7160
12787TIP3    H159776   2.542   4.887   5.533  0.3857 -2.1316  0.9963
12787TIP3    H259777   2.692   4.903   5.519  0.5850 -4.0510  0.6381
12788TIP3   OH259778   3.555   2.650   3.149 -0.3879 -1.3107 -0.0901
12788TIP3    H159779   3.629   2.608   3.107  0.8943  0.7662 -0.0744
12788TIP3    H259780   3.487   2.652   3.082  0.5081 -0.9124 -1.0082
12789TIP3   OH259781   4.029   5.169   4.674  0.9900 -0.2745  0.3384
12789TIP3    H159782   3.942   5.199   4.646  0.5284 -2.9174 -1.4200
12789TIP3    H259783   4.062   5.118   4.600  3.3696 -0.6869  1.5793
12790TIP3   OH259784   5.458   3.520  16.599  0.6792 -0.2122  0.1106
12790TIP3    H159785   5.390   3.476  16.648  0.9045 -0.2083  0.4283
12790TIP3    H259786   5.442   3.613  16.614  1.7562 -0.2373  1.5708
12791TIP3   OH259787   0.879   5.326   2.202 -0.8656 -0.6101  0.9170
12791TIP3    H159788   0.896   5.401   2.260 -1.6782 -1.3368  2.1536
12791TIP3    H259789   0.877   5.364   2.114 -0.5166  0.6891  1.4340
12792TIP3   OH259790   4.483   4.403  16.806  0.2727  0.2395 -0.3405
12792TIP3    H159791   4.512   4.423  16.717 -0.5668  1.5156 -0.3506
12792TIP3    H259792   4.449   4.486  16.840 -0.2267 -0.4238  0.8639
12793TIP3   OH259793   0.734   0.958   4.589 -0.1235  0.6723 -1.0210
12793TIP3    H159794   0.726   1.046   4.626  1.7203  0.3802  0.2254
12793TIP3    H259795   0.659   0.910   4.623  0.2052  1.1036  0.3637
12794TIP3   OH259796   4.781   3.557   5.602  0.1172 -0.8011 -0.2090
12794TIP3    H159797   4.795   3.570   5.508 -0.6644 -2.7761 -0.6352
12794TIP3    H259798   4.701   3.504   5.608 -0.3553  0.0173  1.6253
12795TIP3   OH259799   0.115   5.826   4.851  0.2845  0.3936 -0.1575
12795TIP3    H159800   0.118   5.812   4.756  1.1533 -0.1612 -0.0563
12795TIP3    H259801   0.158   5.910   4.864  0.5113  0.2918 -0.2315
12796TIP3   OH259802   6.627   2.234   4.973 -0.3811  0.0250 -0.4238
12796TIP3    H159803   6.614   2.296   5.045  0.0781  0.5077 -0.7476
12796TIP3    H259804   6.561   2.166   4.988 -1.4514  1.0105 -0.5397
12797TIP3   OH259805   5.954   6.336  13.512 -0.5716 -0.3826 -0.3288
12797TIP3    H159806   5.932   6.253  13.469 -0.5525  0.5026 -2.1375
12797TIP3    H259807   5.960   6.314  13.605  1.1475 -2.7731 -0.9116
12798TIP3   OH259808   2.564   1.086   6.018 -0.8012 -0.1409  0.3430
12798TIP3    H159809   2.617   1.155   5.979 -1.0419 -1.1172 -1.8640
12798TIP3    H259810   2.620   1.048   6.086 -0.6086  2.0550  1.4905
12799TIP3   OH259811   4.270   5.551  10.653  0.2670  0.3507  0.0955
12799TIP3    H159812   4.252   5.561  10.559 -2.6239  0.5116  0.5641
12799TIP3    H259813   4.342   5.488  10.658  0.1459 -0.0410 -2.2171
12800TIP3   OH259814   5.130   4.277   0.647  0.0238 -0.4459 -0.2923
12800TIP3    H159815   5.057   4.339   0.646 -0.5722 -1.1471 -1.5753
12800TIP3    H259816   5.197   4.321   0.700 -1.2558  0.2688  0.7798
12801TIP3   OH259817   4.627   2.231  10.769 -0.4316 -0.0256 -0.2047
12801TIP3    H159818   4.712   2.205  10.805 -0.2894  0.2161 -0.3597
12801TIP3    H259819   4.570   2.156  10.784 -0.6429  0.4108  1.3918
12802TIP3   OH259820   4.917   1.245  14.641  0.6914 -0.2266 -0.5151
12802TIP3    H159821   4.975   1.196  14.583 -1.2552 -0.0195 -2.8413
12802TIP3    H259822   4.917   1.334  14.605 -2.7202 -0.7223 -2.1520
12803TIP3   OH259823   4.455   0.116  10.302  0.1824 -0.0654  0.2409
12803TIP3    H159824   4.373   0.097  10.348  0.8820 -1.6614  0.8971
12803TIP3    H259825   4.521   0.065  10.349  1.5049  0.8871 -0.5114
12804TIP3   OH259826   1.108   1.690   4.441  0.2527 -0.1304 -0.1711
12804TIP3    H159827   1.138   1.599   4.438  0.9762  0.1434 -1.8496
12804TIP3    H259828   1.179   1.737   4.485 -0.6411 -0.5183  1.8204
12805TIP3   OH259829   4.535   5.255   1.731  0.2348  0.4760  0.0578
12805TIP3    H159830   4.537   5.337   1.782 -0.1003  0.6036 -0.1296
12805TIP3    H259831   4.616   5.210   1.755 -0.6184 -0.1824  1.8876
12806TIP3   OH259832   5.496   4.346   2.325  0.4854 -0.3172 -0.2920
12806TIP3    H159833   5.479   4.267   2.275 -0.5265 -0.8488  0.8333
12806TIP3    H259834   5.441   4.413   2.285  0.4671 -0.4776 -0.5324
12807TIP3   OH259835   6.239   0.674   4.055 -0.3005  0.0059 -0.4889
12807TIP3    H159836   6.208   0.587   4.080 -0.2401 -0.2735 -1.3632
12807TIP3    H259837   6.202   0.733   4.121  0.1418 -0.7517  0.4545
12808TIP3   OH259838   5.490   4.403   3.308 -0.2661 -0.1754 -0.2601
12808TIP3    H159839   5.567   4.455   3.286 -0.7909  0.2905 -1.0969
12808TIP3    H259840   5.519   4.312   3.301  0.8169 -0.0282  1.7947
12809TIP3   OH259841   1.185   4.577  13.850  1.0523  0.2144  0.1551
12809TIP3    H159842   1.197   4.483  13.858 -0.8720 -0.2145 -1.4292
12809TIP3    H259843   1.092   4.592  13.866  1.3173  1.8532  0.3773
12810TIP3   OH259844   3.033   3.416   2.037 -0.3024  0.1098  0.0397
12810TIP3    H159845   3.091   3.492   2.032  1.0033 -0.8531 -0.1376
12810TIP3    H259846   3.042   3.384   2.127  0.2189 -0.5983 -0.2461
12811TIP3   OH259847   5.496   0.102  11.440 -0.1819  0.2978  0.1375
12811TIP3    H159848   5.440   0.028  11.414  0.1865 -0.2023  0.7308
12811TIP3    H259849   5.499   0.158  11.362 -0.2721 -0.4341 -0.4060
12812TIP3   OH259850   5.413   2.888  13.658  0.4991 -0.1300 -0.3172
12812TIP3    H159851   5.383   2.915  13.745 -1.5216 -2.6100 -0.1155
12812TIP3    H259852   5.492   2.836  13.675  0.9444  0.5862 -0.1421
12813TIP3   OH259853   1.940   1.672   5.204 -0.2159 -0.0287 -0.7551
12813TIP3    H159854   1.909   1.755   5.241  0.5691  0.3601 -0.9469
12813TIP3    H259855   2.034   1.685   5.192 -0.2638 -0.5455 -1.8269
12814TIP3   OH259856   6.428   0.051   1.553  0.1152  0.3252  0.2388
12814TIP3    H159857   6.452  -0.012   1.486 -1.0025  0.2973 -0.1495
12814TIP3    H259858   6.349   0.016   1.594  0.3907  0.6775  1.1187
12815TIP3   OH259859   5.329   3.093   2.487 -0.4577 -0.1276  0.1932
12815TIP3    H159860   5.318   3.015   2.543 -0.1192 -0.7200 -0.5473
12815TIP3    H259861   5.240   3.124   2.472 -0.6157 -0.5273  0.2853
12816TIP3   OH259862   2.756   6.421  14.541 -0.0911 -0.2081 -0.1610
12816TIP3    H159863   2.751   6.515  14.523  0.0008 -0.1246  0.2331
12816TIP3    H259864   2.730   6.413  14.633  1.3479 -0.4091  0.2436
12817TIP3   OH259865   2.998   4.723  16.097  0.3617 -0.3967  0.5275
12817TIP3    H159866   3.081   4.728  16.145  0.7411 -0.7488 -0.0733
12817TIP3    H259867   2.983   4.629  16.086  0.5009 -0.3101 -0.4130
12818TIP3   OH259868   4.528   2.832  14.559 -0.1005 -0.1422 -0.4895
12818TIP3    H159869   4.579   2.881  14.624  0.7519  1.9921 -2.6075
12818TIP3    H259870   4.443   2.817  14.602  0.9189 -0.2233  1.6387
12819TIP3   OH259871   4.443   1.467   3.444  0.5054  0.2782  0.6044
12819TIP3    H159872   4.479   1.536   3.388 -3.6975  2.0120 -0.3731
12819TIP3    H259873   4.413   1.513   3.522 -4.0804  0.2883 -0.8334
12820TIP3   OH259874   5.659   3.779   2.493 -0.4287  0.2064 -0.1480
12820TIP3    H159875   5.741   3.734   2.472 -0.2215  0.8204 -0.6615
12820TIP3    H259876   5.645   3.840   2.421 -0.4392  1.3423  0.7998
12821TIP3   OH259877   5.721   2.488   3.464  0.5579  0.6088  0.7788
12821TIP3    H159878   5.764   2.448   3.388  0.3974  2.5903 -0.4243
12821TIP3    H259879   5.767   2.571   3.477 -1.8805  2.1063  0.3837
12822TIP3   OH259880   0.583   2.542   6.368 -0.2263 -0.8360 -0.1894
12822TIP3    H159881   0.588   2.465   6.424 -1.3839 -0.9777 -0.2580
12822TIP3    H259882   0.670   2.580   6.371  0.1656 -1.7595  0.4020
12823TIP3   OH259883   1.635   2.329   0.898 -0.0986  0.5202 -0.8225
12823TIP3    H159884   1.575   2.385   0.850  0.6839  1.3032 -0.9127
12823TIP3    H259885   1.685   2.284   0.829  2.0673  2.7552 -0.8593
12824TIP3   OH259886   6.591   0.212  15.563  0.0469  0.6599  0.1229
12824TIP3    H159887   6.593   0.183  15.472  1.2605 -0.0274  0.3468
12824TIP3    H259888   6.501   0.199  15.591 -0.2702  0.6208 -0.8958
12825TIP3   OH259889   4.623   5.452  16.021  0.0352 -0.6502 -0.0930
12825TIP3    H159890   4.665   5.373  16.054  0.9076 -0.2466 -0.1933
12825TIP3    H259891   4.565   5.480  16.092  0.8849 -0.5315  0.5799
12826TIP3   OH259892   1.582   6.359   0.822  0.1802  0.0111 -0.2332
12826TIP3    H159893   1.547   6.401   0.901 -1.8841  2.1768 -2.1613
12826TIP3    H259894   1.643   6.424   0.786 -0.4143 -0.1037 -1.4667
12827TIP3   OH259895   2.302   3.179  12.379  0.1439 -0.5617  0.7315
12827TIP3    H159896   2.349   3.116  12.324 -0.0934  1.4752 -2.0118
12827TIP3    H259897   2.367   3.246  12.400 -0.2175 -0.4424  1.5173
12828TIP3   OH259898   0.634   4.619   5.275 -0.3766  0.0298 -0.0096
12828TIP3    H159899   0.620   4.705   5.314  1.0355 -0.0217  0.6583
12828TIP3    H259900   0.675   4.567   5.344  1.6319 -0.2552 -1.3337
12829TIP3   OH259901   1.218   6.723  15.916 -0.0446 -0.1413 -0.3575
12829TIP3    H159902   1.147   6.774  15.877 -0.8236 -1.0099 -0.1353
12829TIP3    H259903   1.290   6.785  15.926 -0.8287  0.8167 -0.4392
12830TIP3   OH259904   2.360   4.577   5.444  0.3735 -0.6139 -0.6645
12830TIP3    H159905   2.412   4.604   5.368 -1.0907  0.3723 -1.3519
12830TIP3    H259906   2.297   4.648   5.456 -0.4762 -1.5333  0.4697
12831TIP3   OH259907   2.876   5.063   2.276  0.5084 -0.2802 -0.1293
12831TIP3    H159908   2.829   5.108   2.346  0.2812 -0.4406 -0.1758
12831TIP3    H259909   2.808   5.039   2.213  0.7318 -0.0135 -0.4729
12832TIP3   OH259910   5.371   4.668   5.982  0.5444 -0.0815 -0.0419
12832TIP3    H159911   5.322   4.687   5.902  0.2304 -0.7902 -0.0303
12832TIP3    H259912   5.399   4.753   6.014  0.1176  0.2600 -0.5573
12833TIP3   OH259913   4.465   4.087  12.604  0.4706 -0.1005 -0.5616
12833TIP3    H159914   4.423   4.125  12.682 -0.6182 -2.9229  0.3519
12833TIP3    H259915   4.444   4.149  12.534 -3.4619 -0.1779  0.2999
12834TIP3   OH259916   4.402   4.037   1.774 -0.6139  0.2611  0.0983
12834TIP3    H159917   4.310   4.060   1.763 -1.5009 -2.4743  0.8161
12834TIP3    H259918   4.404   3.942   1.759  2.0762  0.2143  0.2863
12835TIP3   OH259919   1.432   2.331   2.645 -0.8326  0.0669 -0.0897
12835TIP3    H159920   1.417   2.416   2.688 -0.1385  0.6196 -0.9103
12835TIP3    H259921   1.350   2.283   2.658 -0.9218  0.5102  1.1617
12836TIP3   OH259922   4.189   0.585   0.278 -0.3490 -0.0809 -0.2885
12836TIP3    H159923   4.201   0.555   0.188  0.1685  2.3066 -1.0679
12836TIP3    H259924   4.264   0.641   0.295 -1.7579  1.6082  0.6819
12837TIP3   OH259925   2.923   2.251  16.824 -0.2954  0.1639 -0.3565
12837TIP3    H159926   2.875   2.263  16.906 -1.5844  0.1123 -1.0711
12837TIP3    H259927   2.980   2.176  16.840  0.7655  1.2303  1.0455
12838TIP3   OH259928   0.088   4.778   4.464  0.0590 -0.1175 -0.3063
12838TIP3    H159929   0.170   4.762   4.417  0.5575 -2.1911  1.1325
12838TIP3    H259930   0.020   4.741   4.408  0.0101  1.8040 -1.6089
12839TIP3   OH259931   2.753   5.111   0.620  0.0806 -0.3061  0.4169
12839TIP3    H159932   2.671   5.100   0.668 -0.6148 -0.4983 -0.7709
12839TIP3    H259933   2.809   5.163   0.678 -0.2503 -1.5780  1.9487
12840TIP3   OH259934   4.309   1.130   2.692  0.3430 -0.6743 -0.0616
12840TIP3    H159935   4.349   1.217   2.687  0.8800 -0.9784 -1.6903
12840TIP3    H259936   4.307   1.110   2.786  0.6801  0.8697  0.3002
12841TIP3   OH259937   2.979   5.730   0.198  0.0502 -0.3113 -0.5480
12841TIP3    H159938   3.041   5.779   0.253 -0.9779  1.6529 -1.0469
12841TIP3    H259939   2.899   5.726   0.250 -0.4481  0.1894 -1.2610
12842TIP3   OH259940   0.417   0.383   4.516  0.1122  0.7186  0.5203
12842TIP3    H159941   0.404   0.337   4.599 -2.1849 -0.7501 -0.5481
12842TIP3    H259942   0.357   0.340   4.455  0.3133  2.9979 -1.4326
12843TIP3   OH259943   1.464   2.306   3.964 -0.2241 -0.6626 -0.7874
12843TIP3    H159944   1.482   2.315   3.871  0.6696 -1.6151 -0.7214
12843TIP3    H259945   1.397   2.372   3.982  0.4748  0.3614 -1.8448
12844TIP3   OH259946   4.343   0.367  17.247  0.6122 -0.2720 -0.5906
12844TIP3    H159947   4.378   0.291  17.201  1.7815  0.1652 -0.4560
12844TIP3    H259948   4.306   0.332  17.328  1.4698 -0.6710 -0.3600
12845TIP3   OH259949   1.784   1.722  16.507  0.1289  0.3951  0.6573
12845TIP3    H159950   1.840   1.764  16.441  0.0971  0.6790  0.8110
12845TIP3    H259951   1.841   1.656  16.548 -0.5601 -1.6497 -1.4229
12846TIP3   OH259952   2.667   2.249  16.350 -0.3944  0.2341  0.4395
12846TIP3    H159953   2.680   2.226  16.442  1.6419  0.0475  0.1651
12846TIP3    H259954   2.655   2.165  16.306 -0.2065  0.2372  0.3832
12847TIP3   OH259955   0.210   1.738  13.599  0.3182 -0.1587  0.0211
12847TIP3    H159956   0.244   1.826  13.583 -0.8288  0.5218  1.1699
12847TIP3    H259957   0.287   1.682  13.596  1.1457  0.9540 -0.2197
12848TIP3   OH259958   1.667   3.362   3.351 -0.4944  0.5465 -0.3702
12848TIP3    H159959   1.705   3.295   3.408 -2.5997  0.4623  1.0359
12848TIP3    H259960   1.718   3.441   3.371  0.1985  0.0172  0.0208
12849TIP3   OH259961   3.963   1.125   6.547  0.2148  0.4570 -0.3192
12849TIP3    H159962   3.896   1.155   6.609  1.6131  3.7354 -0.1810
12849TIP3    H259963   4.031   1.086   6.603 -0.4009 -0.5661 -0.2491
12850TIP3   OH259964   4.439   5.005  14.067  0.0374  0.1009 -0.7642
12850TIP3    H159965   4.408   5.090  14.098  1.6006  0.0005  1.2472
12850TIP3    H259966   4.360   4.950  14.067 -0.7236  1.1471 -0.7336
12851TIP3   OH259967   2.029   5.412   3.737 -1.1631 -0.3768 -0.1784
12851TIP3    H159968   2.089   5.414   3.663 -1.8799 -1.8480 -0.8492
12851TIP3    H259969   2.047   5.328   3.780 -1.0965  0.2385  1.0311
12852TIP3   OH259970   2.991   0.612   0.771 -0.2491  0.4870 -0.1552
12852TIP3    H159971   3.077   0.653   0.769 -0.3796  0.8011  0.4694
12852TIP3    H259972   3.007   0.523   0.803  0.3664 -0.8511 -3.6959
12853TIP3   OH259973   0.376   2.875  12.580 -0.0032 -0.3416  0.1185
12853TIP3    H159974   0.290   2.863  12.621 -0.5517  0.3517 -0.7968
12853TIP3    H259975   0.357   2.882  12.486  1.0068  0.2884 -0.0472
12854TIP3   OH259976   2.275   3.562   3.304  0.9199 -0.6372 -0.3119
12854TIP3    H159977   2.258   3.564   3.399  1.4932  0.8187 -0.2170
12854TIP3    H259978   2.220   3.632   3.269  5.1714  3.2462 -0.1772
12855TIP3   OH259979   3.444   1.492  12.995  1.0002 -0.5379 -0.1340
12855TIP3    H159980   3.365   1.452  12.959  0.5377  1.2021 -1.2019
12855TIP3    H259981   3.516   1.445  12.953  0.5376 -1.5021  0.1228
12856TIP3   OH259982   6.128   3.035  15.774  0.5103  0.0916 -0.1507
12856TIP3    H159983   6.211   2.987  15.764  0.0737 -0.8284  0.4246
12856TIP3    H259984   6.063   2.980  15.730  0.3667  1.3414 -1.5456
12857TIP3   OH259985   5.232   0.127   5.347 -0.1680 -0.1941 -0.1657
12857TIP3    H159986   5.251   0.048   5.298 -0.3676 -0.4462  0.1596
12857TIP3    H259987   5.225   0.098   5.438  0.8833  0.3703  0.1119
12858TIP3   OH259988   2.287   2.922  12.067  0.1224  0.3346  0.8204
12858TIP3    H159989   2.277   2.827  12.065  0.2823  0.3240  0.3109
12858TIP3    H259990   2.358   2.937  12.130  0.7487  0.0472  0.2018
12859TIP3   OH259991   1.905   5.635   4.366  0.4850  0.3459 -0.7259
12859TIP3    H159992   1.820   5.640   4.410  0.7055  0.2080 -0.2790
12859TIP3    H259993   1.962   5.691   4.419  1.0362 -0.7100 -0.1811
12860TIP3   OH259994   4.950   1.746   4.557 -0.1101  0.2515  0.2795
12860TIP3    H159995   5.001   1.789   4.626 -0.2318 -2.3435  2.1499
12860TIP3    H259996   4.863   1.735   4.595 -0.5021 -0.2432 -0.7283
12861TIP3   OH259997   5.374   6.586   0.627  0.3926  0.7174 -0.4555
12861TIP3    H159998   5.423   6.503   0.622 -0.3297 -0.0418  2.7077
12861TIP3    H259999   5.437   6.648   0.664  0.3424  1.0815 -0.9667
12862TIP3   OH260000   1.854   0.220  13.418 -0.0341 -0.3493  0.1410
12862TIP3    H160001   1.852   0.244  13.511  0.0797  0.3213 -0.0262
12862TIP3    H260002   1.814   0.294  13.373 -0.9305 -1.0664 -0.2752
12863TIP3   OH260003   0.802   3.126   4.131 -0.2839  0.3404 -0.0740
12863TIP3    H160004   0.708   3.136   4.113 -0.5948 -1.5934  0.2022
12863TIP3    H260005   0.805   3.073   4.211  1.0568  0.1159 -0.2583
12864TIP3   OH260006   4.141   4.592  16.680  0.2312 -0.1539 -0.5657
12864TIP3    H160007   4.201   4.610  16.607  0.8730  1.1702  0.2529
12864TIP3    H260008   4.199   4.582  16.756 -0.4340 -1.4691 -0.2046
12865TIP3   OH260009   2.651   1.834   2.694 -0.4061  0.2588  0.1767
12865TIP3    H160010   2.705   1.796   2.625 -1.9497 -1.3011 -0.2440
12865TIP3    H260011   2.699   1.817   2.775  0.5976  0.5623 -0.3456
12866TIP3   OH260012   3.468   0.258   1.361 -0.2393  0.0353  0.3153
12866TIP3    H160013   3.442   0.180   1.312  0.6094  0.1067 -0.2716
12866TIP3    H260014   3.502   0.318   1.294  4.3219 -1.1876  1.1751
12867TIP3   OH260015   5.830   6.308   0.209  0.8511  0.4099 -0.3931
12867TIP3    H160016   5.896   6.357   0.160 -1.1448  1.9998 -1.6733
12867TIP3    H260017   5.762   6.288   0.145  0.1212 -1.3149  0.8250
12868TIP3   OH260018   5.270   0.912  16.129 -0.2940  0.0058 -0.2457
12868TIP3    H160019   5.244   0.947  16.043 -1.3063 -1.0260 -0.3828
12868TIP3    H260020   5.199   0.938  16.187  0.1268  0.2273  0.1741
12869TIP3   OH260021   5.959   5.672   5.642  0.0371 -0.0600  0.5048
12869TIP3    H160022   5.876   5.630   5.664  0.7855 -2.1183 -0.3662
12869TIP3    H260023   5.971   5.654   5.549  0.7466  1.5690  0.2413
12870TIP3   OH260024   1.584   5.024  16.248  0.4957 -0.1408 -0.0705
12870TIP3    H160025   1.678   5.041  16.247  0.8996 -1.7260  2.1274
12870TIP3    H260026   1.558   5.026  16.156  2.5315  1.0078 -0.6772
12871TIP3   OH260027   4.273   5.193  12.152 -0.0758  0.4121 -0.2889
12871TIP3    H160028   4.195   5.248  12.142 -1.2973 -1.2421 -0.1570
12871TIP3    H260029   4.346   5.254  12.143 -1.3793  2.2628  0.9717
12872TIP3   OH260030   1.027   4.159  13.000  0.1859 -0.2517  0.8297
12872TIP3    H160031   1.017   4.069  12.967 -0.9567  0.0022  0.4204
12872TIP3    H260032   1.010   4.214  12.924  2.0519  0.3289  0.7975
12873TIP3   OH260033   5.016   4.843   0.977  0.4733  0.0735  0.5741
12873TIP3    H160034   4.945   4.782   0.957 -0.3003  1.3286 -0.6797
12873TIP3    H260035   5.085   4.788   1.014 -1.4077 -1.0923  2.5836
12874TIP3   OH260036   0.017   2.338  14.738 -0.7643  0.3732 -0.1982
12874TIP3    H160037   0.063   2.328  14.821  0.4231 -0.0508 -0.8962
12874TIP3    H260038   0.062   2.279  14.678 -0.9327  1.4471 -1.4156
12875TIP3   OH260039   4.236   1.233   4.878 -0.2797 -0.0869  0.0366
12875TIP3    H160040   4.229   1.187   4.794 -1.6597 -1.6986  0.9726
12875TIP3    H260041   4.169   1.193   4.933  0.4615  1.0576  1.8689
12876TIP3   OH260042   0.334   4.827  14.244 -0.2050 -0.7290 -0.8268
12876TIP3    H160043   0.291   4.912  14.234  2.0620  0.4181 -1.4472
12876TIP3    H260044   0.352   4.799  14.154  1.2191 -0.6704 -0.5755
12877TIP3   OH260045   5.009   5.413  12.972 -0.3845 -0.2583  0.4280
12877TIP3    H160046   4.936   5.433  13.031  1.7255  0.6441  2.9404
12877TIP3    H260047   5.058   5.345  13.018  0.6076 -0.5440 -1.0009
12878TIP3   OH260048   2.631   4.322   1.619  0.1751 -0.4964  0.0948
12878TIP3    H160049   2.643   4.416   1.609  0.3555 -0.5656 -0.3728
12878TIP3    H260050   2.633   4.288   1.529  0.8430 -1.0305  0.3050
12879TIP3   OH260051   5.584   3.830  12.458 -0.1405  0.7646 -1.4686
12879TIP3    H160052   5.669   3.787  12.449 -0.1616  0.2710  0.3715
12879TIP3    H260053   5.520   3.760  12.447 -0.1652 -0.3200  3.3365
12880TIP3   OH260054   6.108   0.145   5.213 -0.0012  0.0499  0.0879
12880TIP3    H160055   6.017   0.173   5.213  0.0462  0.3978  2.4306
12880TIP3    H260056   6.105   0.054   5.182 -0.7681  0.8647 -2.4211
12881TIP3   OH260057   5.879   3.158   4.291  0.7321  0.1675 -0.0714
12881TIP3    H160058   5.893   3.067   4.268 -0.3160  0.2294 -1.0923
12881TIP3    H260059   5.917   3.207   4.218  1.0698  0.5439  0.3503
12882TIP3   OH260060   4.754   3.548  15.936  0.1515 -0.5155  0.0925
12882TIP3    H160061   4.769   3.564  16.029  0.4149  0.8777 -0.1774
12882TIP3    H260062   4.820   3.482  15.913  1.2171  0.3580  0.5242
12883TIP3   OH260063   1.562   4.786   4.792  0.2729 -0.5840  0.6589
12883TIP3    H160064   1.624   4.859   4.799  0.7566 -0.5952 -2.4251
12883TIP3    H260065   1.478   4.824   4.821  1.2582 -0.0925  3.2027
12884TIP3   OH260066   6.587   1.478  15.056  0.2659 -0.4328  0.0360
12884TIP3    H160067   6.513   1.490  15.116 -2.0604 -0.4055 -2.6188
12884TIP3    H260068   6.598   1.564  15.016  1.5578 -0.5329  0.1448
12885TIP3   OH260069   1.838   5.112  13.289  0.3930  0.1842 -0.3649
12885TIP3    H160070   1.916   5.140  13.336  0.3360  0.7262 -0.5834
12885TIP3    H260071   1.861   5.123  13.196  0.5071 -0.8750 -0.4801
12886TIP3   OH260072   0.760   3.744  16.138  0.0792 -0.3785  0.4863
12886TIP3    H160073   0.777   3.823  16.087  1.5536 -0.1545  1.2803
12886TIP3    H260074   0.839   3.691  16.126 -0.1940 -0.9874  1.3159
12887TIP3   OH260075   0.050   5.660   4.032  0.0507 -0.3900 -0.1581
12887TIP3    H160076  -0.028   5.605   4.036  0.3167 -0.8404 -1.0007
12887TIP3    H260077   0.058   5.683   3.939  0.0923  0.8599  0.1382
12888TIP3   OH260078   2.171   3.684   1.498 -0.1861  0.7064  0.2190
12888TIP3    H160079   2.187   3.684   1.403 -0.6104  0.4576  0.1414
12888TIP3    H260080   2.244   3.733   1.535  0.9076 -0.6169 -0.0801
12889TIP3   OH260081   2.522   1.249  13.485 -0.5957  0.0064 -0.6202
12889TIP3    H160082   2.427   1.259  13.488 -0.6578 -0.6730 -0.0627
12889TIP3    H260083   2.551   1.271  13.574 -0.0320  2.0021 -1.2565
12890TIP3   OH260084   3.397   5.987  11.676  0.2074 -0.6928 -0.3030
12890TIP3    H160085   3.353   5.924  11.620  0.5018 -0.7730 -0.4452
12890TIP3    H260086   3.356   5.976  11.762  0.9188 -1.7679 -0.0788
12891TIP3   OH260087   6.121   1.135  13.961  0.4007  0.6011 -0.1428
12891TIP3    H160088   6.100   1.215  14.010  0.6112 -0.3727  1.6288
12891TIP3    H260089   6.072   1.067  14.006 -0.1300 -0.2271 -1.9085
12892TIP3   OH260090   3.011   1.492   4.549 -0.6045 -0.6526 -0.0097
12892TIP3    H160091   3.052   1.574   4.521 -0.6720  0.0105  1.7287
12892TIP3    H260092   3.084   1.430   4.556 -0.1750 -0.0583  1.0080
12893TIP3   OH260093   4.498   2.032   5.296 -0.0221 -0.1391  0.1598
12893TIP3    H160094   4.517   1.941   5.273 -1.6809 -0.7672  1.0767
12893TIP3    H260095   4.470   2.072   5.214  1.6122 -0.1600 -0.4477
12894TIP3   OH260096   4.182   4.280  11.978 -0.7832 -0.2615  0.3353
12894TIP3    H160097   4.218   4.344  12.040  1.6380 -0.7083 -0.4764
12894TIP3    H260098   4.129   4.333  11.918 -0.2408  0.7328  0.6986
12895TIP3   OH260099   3.166   3.917   6.618 -0.1800 -0.1412 -0.0316
12895TIP3    H160100   3.201   3.993   6.665  0.6698 -1.0502  0.8487
12895TIP3    H260101   3.107   3.955   6.553 -1.1549  1.1743  1.5501
12896TIP3   OH260102   1.561   4.672   3.306 -0.3674 -0.3582  0.0227
12896TIP3    H160103   1.541   4.744   3.247 -0.6594 -0.0956  0.4307
12896TIP3    H260104   1.623   4.709   3.369 -2.4877  0.3415  1.8119
12897TIP3   OH260105   5.053   3.092  11.102  0.7948  0.5181  0.4032
12897TIP3    H160106   5.052   3.106  11.007  1.5604 -2.6142 -0.1755
12897TIP3    H260107   5.145   3.076  11.123  0.4023 -0.6866  1.3183
12898TIP3   OH260108   4.534   4.597  10.460 -0.3842 -0.4653  0.0858
12898TIP3    H160109   4.484   4.667  10.418  0.5853 -0.6428 -1.4226
12898TIP3    H260110   4.473   4.559  10.523 -1.5258  0.5339 -0.3738
12899TIP3   OH260111   2.562   4.603  13.723  0.8379  0.4317  0.1587
12899TIP3    H160112   2.497   4.651  13.672  0.6452 -0.8135 -0.8285
12899TIP3    H260113   2.528   4.514  13.728  0.3641  0.6966  3.3810
12900TIP3   OH260114   3.731   2.329  16.878 -0.5950  0.2472 -0.3190
12900TIP3    H160115   3.824   2.347  16.893 -0.9563  1.2387  0.9631
12900TIP3    H260116   3.727   2.298  16.787  1.0088 -0.0758 -0.3136
12901TIP3   OH260117   3.481   1.422   2.966 -0.8041 -0.1261  0.2731
12901TIP3    H160118   3.406   1.370   2.936  0.4172 -1.0072 -1.4506
12901TIP3    H260119   3.468   1.507   2.923 -0.4141 -0.5473 -0.7142
12902TIP3   OH260120   4.126   2.484  16.885  0.7423  0.1156 -0.1663
12902TIP3    H160121   4.147   2.511  16.796  1.2061  0.7360  0.1229
12902TIP3    H260122   4.212   2.470  16.926  0.5251 -1.1101 -0.0943
12903TIP3   OH260123   4.007   4.225   0.372  0.1405 -0.7560 -0.1751
12903TIP3    H160124   4.030   4.318   0.375 -0.5585 -0.5973  0.5670
12903TIP3    H260125   3.918   4.222   0.405 -0.5719 -1.4659 -2.0202
12904TIP3   OH260126   1.597   2.792  14.373 -0.7654 -0.2501 -0.2441
12904TIP3    H160127   1.677   2.820  14.329 -2.1012  1.3307 -1.8469
12904TIP3    H260128   1.589   2.849  14.449 -0.4504 -0.3216 -0.1574
12905TIP3   OH260129   5.952   3.202  17.108 -0.7345  0.2431 -0.7820
12905TIP3    H160130   5.890   3.253  17.056  0.8458  2.3081 -0.7598
12905TIP3    H260131   6.016   3.169  17.045 -1.5451 -1.5283 -0.7481
12906TIP3   OH260132   4.749   4.484   5.010 -0.0225 -0.2227 -0.7229
12906TIP3    H160133   4.718   4.573   4.992 -0.5797 -0.5118 -1.2162
12906TIP3    H260134   4.816   4.468   4.944 -0.2625 -0.3421 -0.9405
12907TIP3   OH260135   4.554   6.705  14.961 -0.0253  0.1115 -0.0528
12907TIP3    H160136   4.591   6.726  14.875 -0.0479 -1.0383 -0.3605
12907TIP3    H260137   4.523   6.789  14.995  0.9402  0.7548 -0.7066
12908TIP3   OH260138   6.043   2.098  11.516  0.1786 -0.8558 -0.6770
12908TIP3    H160139   6.109   2.029  11.503  1.5109  0.0616  0.8711
12908TIP3    H260140   6.094   2.177  11.535 -1.3559  0.1340 -0.4915
12909TIP3   OH260141   5.108   3.392   3.216  0.2718 -0.3055  0.4688
12909TIP3    H160142   5.012   3.395   3.212  0.2684 -0.4069  0.4530
12909TIP3    H260143   5.136   3.426   3.131  0.2169 -1.7262 -0.1482
12910TIP3   OH260144   0.525   3.362   2.717  0.3943 -0.6415  0.4251
12910TIP3    H160145   0.590   3.292   2.720  0.3197 -1.0372 -3.1150
12910TIP3    H260146   0.572   3.439   2.749  1.5651 -1.5539  1.0034
12911TIP3   OH260147   6.240   2.778   0.631  0.0962 -0.0154  0.3185
12911TIP3    H160148   6.261   2.685   0.639 -0.6687 -0.3746 -1.5011
12911TIP3    H260149   6.323   2.822   0.646  0.0913 -0.8112  3.3904
12912TIP3   OH260150   4.745   0.712  15.756 -0.2713  0.6825 -0.2174
12912TIP3    H160151   4.794   0.633  15.732 -1.6864 -0.4761  0.5046
12912TIP3    H260152   4.676   0.719  15.690 -1.4909  0.0113  0.9319
12913TIP3   OH260153   0.803   1.366  15.403  0.0548 -0.1363  0.5014
12913TIP3    H160154   0.783   1.459  15.392  1.5247  0.0778 -0.8377
12913TIP3    H260155   0.895   1.359  15.376 -0.0396 -1.9850  0.5565
12914TIP3   OH260156   1.818   3.945   0.102 -0.1535 -0.2622  0.1905
12914TIP3    H160157   1.859   3.862   0.127  0.2270 -0.3390 -0.6719
12914TIP3    H260158   1.891   4.000   0.074 -0.4385  0.2729  0.4795
12915TIP3   OH260159   6.211   3.264  10.797 -0.5908 -0.5228  0.0615
12915TIP3    H160160   6.255   3.342  10.765 -2.1635  0.6384  0.6225
12915TIP3    H260161   6.278   3.219  10.850  0.2198  0.6451  0.0707
12916TIP3   OH260162   4.724   2.406  15.147  0.3368  0.1677  0.3566
12916TIP3    H160163   4.768   2.348  15.086  0.8751  0.0072  0.8955
12916TIP3    H260164   4.757   2.381  15.233 -1.4176 -0.5366  0.8743
12917TIP3   OH260165   1.983   2.099  16.430 -0.4698 -0.9590  0.0602
12917TIP3    H160166   2.002   2.089  16.523 -0.4146  1.1492  0.3118
12917TIP3    H260167   2.063   2.138  16.393 -1.1889  0.0480 -0.4744
12918TIP3   OH260168   3.028   4.670  16.509 -0.2546 -0.3472 -0.1532
12918TIP3    H160169   3.050   4.584  16.545  2.5918 -0.0418 -0.9094
12918TIP3    H260170   2.970   4.651  16.436  0.0404 -1.6257 -0.0864
12919TIP3   OH260171   3.890   2.636   4.939  0.0038  0.8556  0.5019
12919TIP3    H160172   3.825   2.706   4.950 -0.9346 -0.0374  0.6939
12919TIP3    H260173   3.892   2.619   4.845  1.7089  2.4923  0.1736
12920TIP3   OH260174   4.419   3.043   4.961 -0.3092 -0.3826  0.0145
12920TIP3    H160175   4.394   2.963   4.915  1.3842 -1.0068  0.1090
12920TIP3    H260176   4.428   3.108   4.891 -1.7768 -0.2050 -0.0523
12921TIP3   OH260177   2.176   0.152  14.846  0.4826 -0.3455 -0.4679
12921TIP3    H160178   2.130   0.235  14.864  1.7099  0.6065 -1.5411
12921TIP3    H260179   2.109   0.085  14.857  0.1974  0.3599  4.0465
12922TIP3   OH260180   5.198   2.908   3.103  0.5911 -0.0492  0.1877
12922TIP3    H160181   5.124   2.964   3.128 -0.7251 -0.7205 -1.9694
12922TIP3    H260182   5.259   2.967   3.059 -0.2033 -0.0488 -0.9444
12923TIP3   OH260183   0.769   0.798   0.853  0.2185 -0.7049  0.8619
12923TIP3    H160184   0.679   0.768   0.844  0.4259 -1.1454  0.1326
12923TIP3    H260185   0.796   0.818   0.763  0.7637 -0.3412  1.1048
12924TIP3   OH260186   5.807   2.346  11.200  0.3734  0.8538  0.3280
12924TIP3    H160187   5.823   2.301  11.116  1.0605 -0.8894  1.3448
12924TIP3    H260188   5.733   2.404  11.182  1.2166  1.3904 -1.7816
12925TIP3   OH260189   2.395   3.955  12.479  0.0997 -0.0732  0.1126
12925TIP3    H160190   2.371   3.902  12.555 -0.5034  0.4023  0.2620
12925TIP3    H260191   2.485   3.985  12.498  0.5531 -1.2519 -0.1063
12926TIP3   OH260192   3.200   3.596  16.639 -0.4385  0.4060  0.7139
12926TIP3    H160193   3.246   3.529  16.588 -0.8399 -0.4876  1.5075
12926TIP3    H260194   3.254   3.674  16.628  0.4330 -0.2226  0.3541
12927TIP3   OH260195   5.961   3.822  14.150  0.0281 -0.2159 -0.4096
12927TIP3    H160196   5.895   3.891  14.156  0.2762 -0.0209  0.1747
12927TIP3    H260197   6.025   3.844  14.217 -0.0972 -1.2311  0.0741
12928TIP3   OH260198   3.543   0.967  16.282 -0.2766 -0.3299 -0.5085
12928TIP3    H160199   3.636   0.951  16.295 -0.1269  1.4305  1.2611
12928TIP3    H260200   3.500   0.886  16.311  0.6503 -0.3912  0.8126
12929TIP3   OH260201   6.019   1.354   3.409  0.0130  0.2475  0.4320
12929TIP3    H160202   5.982   1.410   3.477  1.8611  1.5618  0.4233
12929TIP3    H260203   6.082   1.299   3.455  0.3528  0.2601 -0.0079
12930TIP3   OH260204   1.101   2.156  16.408  0.1028 -0.1193  0.2024
12930TIP3    H160205   1.159   2.205  16.466  0.4550 -1.5301  1.0935
12930TIP3    H260206   1.078   2.218  16.338  2.9041  0.4293 -0.3615
12931TIP3   OH260207   6.109   1.732   2.123  0.2453 -0.5104  0.3063
12931TIP3    H160208   6.127   1.639   2.110  0.3610 -0.4598  0.1018
12931TIP3    H260209   6.124   1.771   2.037 -0.8545 -0.4717  0.1109
12932TIP3   OH260210   4.261   0.146  11.803 -0.0430  0.0428 -0.5957
12932TIP3    H160211   4.312   0.066  11.815  1.5552  1.0338 -0.4272
12932TIP3    H260212   4.235   0.172  11.891  2.5120  1.5736 -0.2057
12933TIP3   OH260213   0.774   6.756  11.281 -0.0015 -0.1717 -0.0882
12933TIP3    H160214   0.709   6.690  11.304  1.0554 -0.9137  0.8961
12933TIP3    H260215   0.723   6.832  11.252 -1.2415 -1.3308 -1.0395
12934TIP3   OH260216   3.285   6.320   1.415 -0.0638 -0.1035  0.4685
12934TIP3    H160217   3.252   6.384   1.478  0.7141 -0.1301  0.9221
12934TIP3    H260218   3.275   6.236   1.460  2.2018  0.0403  1.3534
12935TIP3   OH260219   4.585   0.892   2.033 -0.2697  0.4118 -0.0582
12935TIP3    H160220   4.579   0.956   1.963  1.0270  3.4473  2.3534
12935TIP3    H260221   4.513   0.914   2.092  0.8321  0.4384  1.3511
12936TIP3   OH260222   2.850   3.092  14.369  0.7005  0.0609  0.3304
12936TIP3    H160223   2.866   3.185  14.387 -0.8388  0.3817  0.1726
12936TIP3    H260224   2.762   3.076  14.403  0.6150 -1.1298 -0.4094
12937TIP3   OH260225   3.544   5.769  14.363  0.2900 -0.0680 -0.5465
12937TIP3    H160226   3.619   5.822  14.336  1.1950 -0.5735  0.9113
12937TIP3    H260227   3.476   5.791  14.299  1.1724  1.5739 -0.9806
12938TIP3   OH260228   0.967   0.733  15.848  0.6496  0.3232 -0.3493
12938TIP3    H160229   1.007   0.815  15.877 -0.9611  1.5060 -1.2621
12938TIP3    H260230   0.935   0.752  15.760 -1.5707 -0.5988  0.1872
12939TIP3   OH260231   6.486   0.299   0.643 -0.6426 -0.0136 -0.0743
12939TIP3    H160232   6.425   0.329   0.710  0.6419  2.1899  0.2094
12939TIP3    H260233   6.463   0.207   0.629 -2.9081  0.2872  1.1813
12940TIP3   OH260234   0.818   6.673   3.748 -0.3247 -0.1835 -0.3053
12940TIP3    H160235   0.799   6.581   3.764 -1.1320  0.2909  1.7810
12940TIP3    H260236   0.749   6.720   3.795 -0.2858  1.4893 -1.8421
12941TIP3   OH260237   2.404   3.996  16.897  0.7337  0.2858  0.2856
12941TIP3    H160238   2.456   3.996  16.977 -1.7408  0.1900  2.0296
12941TIP3    H260239   2.317   4.025  16.925 -0.1730  0.5512 -2.4520
12942TIP3   OH260240   1.488   1.426   5.949  0.4872  0.4080  0.2646
12942TIP3    H160241   1.529   1.445   6.033  2.3259 -0.2686 -0.4239
12942TIP3    H260242   1.558   1.435   5.885 -0.6357 -0.0182 -1.0941
12943TIP3   OH260243   5.766   4.738  11.539 -0.1303 -0.2209  0.3090
12943TIP3    H160244   5.762   4.643  11.542  2.5996 -0.4268 -0.0201
12943TIP3    H260245   5.827   4.762  11.610  1.3057  1.0092 -1.2437
12944TIP3   OH260246   1.204   1.696  14.447  0.5796 -0.1378  0.3151
12944TIP3    H160247   1.235   1.622  14.500  0.8500 -0.6651 -0.5578
12944TIP3    H260248   1.109   1.692  14.452  0.5788  1.1012  2.4864
12945TIP3   OH260249   1.278   3.993  16.457 -0.5720  0.2913  0.2018
12945TIP3    H160250   1.327   3.973  16.536 -1.6791  1.5378  1.2379
12945TIP3    H260251   1.345   4.018  16.393  0.5519 -2.7692 -0.0275
12946TIP3   OH260252   4.317   3.818   5.446  0.4054 -0.2976  0.0052
12946TIP3    H160253   4.367   3.848   5.370  0.1854 -2.2952 -1.0064
12946TIP3    H260254   4.383   3.802   5.513  0.8458 -0.4232 -0.4488
12947TIP3   OH260255   5.504   4.527  13.751 -0.1491 -0.4668  0.0251
12947TIP3    H160256   5.524   4.595  13.816  1.2275 -1.0284  0.2287
12947TIP3    H260257   5.484   4.576  13.671  0.8606  0.2019  0.1597
12948TIP3   OH260258   0.080   0.284  17.062  0.6443 -0.2071  0.5346
12948TIP3    H160259  -0.005   0.289  17.106  0.1758 -2.0381 -0.0826
12948TIP3    H260260   0.094   0.371  17.026 -1.3511 -0.0717 -0.0080
12949TIP3   OH260261   3.833   1.057  15.356  0.2864 -0.3086  0.2202
12949TIP3    H160262   3.918   1.091  15.385  0.3404 -0.4620  0.2460
12949TIP3    H260263   3.856   0.983  15.299  0.1563 -1.1256  1.1987
12950TIP3   OH260264   0.133   1.557  11.050 -0.2893  0.4377 -0.1289
12950TIP3    H160265   0.219   1.578  11.015 -0.3436  1.6598  0.4019
12950TIP3    H260266   0.084   1.639  11.046 -1.2774 -0.1156  0.0268
12951TIP3   OH260267   3.851   3.229  14.992  0.0871 -0.2205  0.4797
12951TIP3    H160268   3.821   3.159  15.050 -1.3597 -1.8655 -2.0379
12951TIP3    H260269   3.942   3.206  14.971  0.1018 -0.4900  0.8368
12952TIP3   OH260270   1.671   4.618   6.338 -0.0538 -0.4952  0.5734
12952TIP3    H160271   1.752   4.669   6.329 -0.3567  0.0094  0.6420
12952TIP3    H260272   1.601   4.682   6.325 -0.4423 -1.0327 -0.0387
12953TIP3   OH260273   6.181   2.834  12.048  0.0451  0.0622 -0.5357
12953TIP3    H160274   6.206   2.924  12.070 -1.7292  0.6048 -0.5332
12953TIP3    H260275   6.258   2.797  12.004  1.2543  1.1528  0.5983
12954TIP3   OH260276   0.970   4.220   3.874 -0.1210  0.8781  1.0320
12954TIP3    H160277   1.064   4.204   3.871 -0.2344  0.3667 -0.6514
12954TIP3    H260278   0.950   4.224   3.967  1.5725  1.0622  1.4209
12955TIP3   OH260279   6.261   6.354   5.001  0.5154  0.1811 -0.3500
12955TIP3    H160280   6.224   6.268   4.982 -1.9265  0.5704  1.9122
12955TIP3    H260281   6.297   6.345   5.090  2.1681  0.9686 -0.9097
12956TIP3   OH260282   2.038   4.366  17.051  0.5344  0.0059 -0.6929
12956TIP3    H160283   2.118   4.407  17.083  0.3329  1.1402 -1.5825
12956TIP3    H260284   2.069   4.300  16.988  0.8589 -1.3112  0.7869
12957TIP3   OH260285   3.704   0.206  17.037  0.1482  0.0212  0.0093
12957TIP3    H160286   3.757   0.126  17.037 -0.7242 -0.5686 -0.1021
12957TIP3    H260287   3.640   0.192  16.968 -1.6166 -0.2786  1.6457
12958TIP3   OH260288   5.017   0.725   2.849  0.0720 -0.2464 -0.7290
12958TIP3    H160289   5.039   0.740   2.757  1.2646 -1.5392 -0.6862
12958TIP3    H260290   4.934   0.771   2.862 -0.0073  0.1264 -2.3921
12959TIP3   OH260291   2.865   5.001   2.758 -0.6744 -0.8033 -0.6679
12959TIP3    H160292   2.917   4.922   2.742  0.9081  0.1566 -0.4902
12959TIP3    H260293   2.922   5.073   2.731 -1.6017  0.3461  0.3380
12960TIP3   OH260294   1.385   6.009   4.617 -0.1765  0.3319 -0.2071
12960TIP3    H160295   1.373   6.000   4.712  0.6615 -4.5739 -0.3184
12960TIP3    H260296   1.300   5.984   4.581  0.7400 -2.4626 -0.6548
12961TIP3   OH260297   2.668   3.165  13.523 -0.1990 -0.1666  0.2270
12961TIP3    H160298   2.710   3.249  13.506 -0.6857  0.2216  0.8863
12961TIP3    H260299   2.635   3.137  13.438  0.6767 -0.0911 -0.1533
12962TIP3   OH260300   1.382   6.697  16.272 -0.6987  0.5755 -0.2208
12962TIP3    H160301   1.464   6.744  16.259 -0.7622  0.7483  0.0069
12962TIP3    H260302   1.397   6.612  16.230  0.8767 -0.8097  2.8410
12963TIP3   OH260303   5.788   1.093  17.169 -0.0148  0.2604  1.3148
12963TIP3    H160304   5.813   1.003  17.191  1.0144  0.6072  1.6132
12963TIP3    H260305   5.854   1.147  17.212  0.5350  1.0853 -0.4871
12964TIP3   OH260306   1.657   0.607   5.923  0.2065 -0.1489  0.5382
12964TIP3    H160307   1.590   0.544   5.896  0.1428  0.8378 -1.8510
12964TIP3    H260308   1.612   0.662   5.988 -0.6931 -0.6937  0.4010
12965TIP3   OH260309   1.852   2.968   5.149 -0.1386 -0.5816  0.0803
12965TIP3    H160310   1.876   3.040   5.207  2.6505 -0.6425 -0.8500
12965TIP3    H260311   1.883   2.890   5.194  2.3680 -0.6003 -1.5167
12966TIP3   OH260312   5.687   3.661  13.930 -0.6307  0.4842  0.1075
12966TIP3    H160313   5.650   3.683  14.016 -0.3208 -1.2201  0.7147
12966TIP3    H260314   5.762   3.605  13.950 -0.5337  0.0812 -1.2905
12967TIP3   OH260315   0.521   4.128   5.462 -0.7125 -0.6029 -0.0971
12967TIP3    H160316   0.471   4.083   5.530  1.8945 -2.4511  0.7836
12967TIP3    H260317   0.609   4.137   5.499 -0.3880  2.9561 -1.3370
12968TIP3   OH260318   0.319   1.981   1.723  0.2988  0.5741  0.1104
12968TIP3    H160319   0.285   2.031   1.649 -1.0079  0.3191  0.5074
12968TIP3    H260320   0.377   1.916   1.684 -1.0213 -0.1082 -0.8016
12969TIP3   OH260321   1.811   0.122  13.844 -0.1973  0.1951  0.2207
12969TIP3    H160322   1.882   0.115  13.781  0.7639 -1.2699  1.3819
12969TIP3    H260323   1.839   0.191  13.905 -1.7116  2.5422 -1.5505
12970TIP3   OH260324   3.985   6.450  15.370 -0.0630 -0.0714  0.5313
12970TIP3    H160325   3.906   6.493  15.401  0.5231  1.1762  0.3530
12970TIP3    H260326   4.015   6.399  15.445 -0.2946  0.5386  1.0478
12971TIP3   OH260327   0.849   5.106   3.483 -0.3222 -0.2613  0.2405
12971TIP3    H160328   0.832   5.189   3.438 -0.9125 -0.5681 -0.1185
12971TIP3    H260329   0.911   5.128   3.552  0.0143  0.3629 -0.2515
12972TIP3   OH260330   4.173   0.884  13.659 -0.5706 -0.2112  0.2354
12972TIP3    H160331   4.209   0.823  13.724 -1.4101  0.3068  1.2249
12972TIP3    H260332   4.079   0.885  13.677 -0.5115  1.8009  0.6450
12973TIP3   OH260333   3.477   3.832  14.275  0.5609 -0.1419  0.4746
12973TIP3    H160334   3.419   3.888  14.326 -0.3467  0.1293 -0.8014
12973TIP3    H260335   3.425   3.806  14.199  1.7151 -0.8798 -0.0983
12974TIP3   OH260336   3.602   6.257   4.721  0.2407 -0.1330  0.1566
12974TIP3    H160337   3.579   6.326   4.659  0.7737 -0.0383  0.0520
12974TIP3    H260338   3.520   6.214   4.742 -0.0689  0.4068  0.0627
12975TIP3   OH260339   0.026   5.710  11.694  0.1377  0.2771  0.2550
12975TIP3    H160340   0.029   5.665  11.609 -1.2093  2.3551 -1.0070
12975TIP3    H260341   0.034   5.803  11.671  0.2841  0.8599  2.4842
12976TIP3   OH260342   2.294   1.512  16.481 -0.2810 -0.1111  0.1234
12976TIP3    H160343   2.367   1.455  16.456 -1.6315 -0.7521 -2.7022
12976TIP3    H260344   2.228   1.499  16.413 -1.4250  3.5015  0.3063
12977TIP3   OH260345   2.190   4.128  14.553  0.1361 -0.1211  0.6793
12977TIP3    H160346   2.231   4.133  14.639  0.4673 -1.9311  0.6576
12977TIP3    H260347   2.244   4.184  14.497  2.8121 -2.5608  0.5990
12978TIP3   OH260348   0.538   6.230   2.844  0.1793  0.9262  0.1570
12978TIP3    H160349   0.566   6.200   2.757 -0.0032  0.3227  0.2987
12978TIP3    H260350   0.615   6.218   2.899 -0.3270 -0.8044  0.5634
12979TIP3   OH260351   3.398   3.041  16.484  0.8340 -0.2135 -0.2104
12979TIP3    H160352   3.309   3.059  16.513  0.9136  1.8727 -1.1173
12979TIP3    H260353   3.394   3.042  16.389  2.0101  1.1919 -0.2886
12980TIP3   OH260354   1.602   3.009   0.558 -0.1071  0.4896 -0.0407
12980TIP3    H160355   1.527   3.057   0.523 -0.9182 -2.1650 -2.3467
12980TIP3    H260356   1.678   3.063   0.536 -0.9094  0.5811 -3.0534
12981TIP3   OH260357   2.174   2.409  11.947  0.1295  0.0731 -0.5752
12981TIP3    H160358   2.166   2.379  11.857  2.0820 -0.2636 -0.6702
12981TIP3    H260359   2.153   2.332  12.000 -1.3210  0.3504 -0.6950
12982TIP3   OH260360   3.230   1.214   0.010  0.4559 -0.2365  0.1081
12982TIP3    H160361   3.198   1.127   0.033  1.3031 -0.7183 -0.5021
12982TIP3    H260362   3.315   1.199  -0.031  0.1844  0.8044 -0.8908
12983TIP3   OH260363   4.678   5.309  11.715  0.1711  0.3876 -0.4710
12983TIP3    H160364   4.765   5.349  11.710  0.1583  0.3290 -1.2383
12983TIP3    H260365   4.617   5.382  11.711  0.1805  0.5264  1.1672
12984TIP3   OH260366   1.468   4.372   4.641  0.0178 -0.6177 -0.2017
12984TIP3    H160367   1.512   4.407   4.718  0.1926 -1.2170 -0.0232
12984TIP3    H260368   1.376   4.364   4.667  0.0489 -0.6730 -0.1103
12985TIP3   OH260369   6.424   5.053  14.154  0.2926 -0.1021 -0.1300
12985TIP3    H160370   6.368   5.126  14.127  0.2261 -0.2448 -0.3857
12985TIP3    H260371   6.417   5.051  14.249 -1.3500 -1.0917 -0.2453
12986TIP3   OH260372   4.407   0.758   0.569  0.3326  0.0034 -0.2477
12986TIP3    H160373   4.406   0.842   0.615  1.4876 -0.3376  0.4299
12986TIP3    H260374   4.465   0.703   0.621  0.1293 -1.0057 -1.0656
12987TIP3   OH260375   6.349   4.811  15.092  0.4125  0.5223 -0.0342
12987TIP3    H160376   6.336   4.722  15.125  0.3897  0.5061 -0.0862
12987TIP3    H260377   6.382   4.800  15.003  0.3074  0.5656 -0.0798
12988TIP3   OH260378   3.109   2.177  15.093 -0.0342  0.2101  0.0332
12988TIP3    H160379   3.018   2.151  15.101  0.3140 -0.5427  1.9379
12988TIP3    H260380   3.155   2.098  15.064 -0.0539  0.7824 -1.6859
12989TIP3   OH260381   3.092   4.423   5.483  0.0345 -0.0896  0.4182
12989TIP3    H160382   3.048   4.500   5.448 -1.2260 -1.0338 -0.1846
12989TIP3    H260383   3.183   4.431   5.454  0.0155  1.3099  0.6606
12990TIP3   OH260384   2.911   2.472  12.027 -0.3621 -0.4563 -0.1124
12990TIP3    H160385   2.886   2.563  12.014 -2.0531 -0.4805  2.3381
12990TIP3    H260386   2.871   2.425  11.954 -0.4568  0.6140 -0.7625
12991TIP3   OH260387   5.444   3.303  16.849 -0.0712  0.4266  0.6688
12991TIP3    H160388   5.442   3.208  16.852 -1.8653  0.3930 -0.3340
12991TIP3    H260389   5.514   3.324  16.787 -0.6486 -0.2927 -0.2455
12992TIP3   OH260390   3.144   4.698   3.094 -0.0762  0.4439  0.1021
12992TIP3    H160391   3.130   4.735   3.007  0.5338  0.8316  0.1600
12992TIP3    H260392   3.137   4.603   3.081 -2.7382  0.5728  0.1518
12993TIP3   OH260393   1.592   5.570   2.041 -0.1279 -0.0692 -0.0008
12993TIP3    H160394   1.545   5.507   2.095  1.0159 -1.1520 -0.2262
12993TIP3    H260395   1.629   5.518   1.970  0.4235  0.9363 -0.4740
12994TIP3   OH260396   0.114   1.437  16.510 -0.3661 -0.1094 -0.0066
12994TIP3    H160397   0.206   1.413  16.507 -0.4375 -0.2855 -1.2521
12994TIP3    H260398   0.108   1.521  16.465 -0.8308 -0.1571 -0.0473
12995TIP3   OH260399   5.776   4.069   5.512  0.1463  0.6463 -0.0452
12995TIP3    H160400   5.747   4.141   5.456  0.3474  0.3886 -0.4878
12995TIP3    H260401   5.713   4.067   5.584 -1.4675 -0.4447 -1.4091
12996TIP3   OH260402   2.662   2.276   3.798  0.0744  0.5752  0.1132
12996TIP3    H160403   2.599   2.347   3.811  0.7538  1.1896  0.1629
12996TIP3    H260404   2.660   2.260   3.703 -0.1348  0.6145  0.1112
12997TIP3   OH260405   4.217   0.432  16.388 -0.4904  0.0296  0.0870
12997TIP3    H160406   4.266   0.357  16.355  1.2372  0.8314  0.6640
12997TIP3    H260407   4.283   0.486  16.431 -1.4686  2.3623 -1.1303
12998TIP3   OH260408   0.292   6.087   3.446  0.1961  0.2723 -0.3130
12998TIP3    H160409   0.237   6.163   3.466  0.2436 -0.1229  1.4471
12998TIP3    H260410   0.373   6.102   3.494  0.2790 -0.7990 -0.0864
12999TIP3   OH260411   4.163   1.340   1.788 -0.8826 -0.0254  0.2093
12999TIP3    H160412   4.175   1.295   1.704 -0.1864  0.2811  0.1395
12999TIP3    H260413   4.084   1.302   1.825 -2.4607  1.3117 -1.5803
13000TIP3   OH260414   2.694   0.801   0.443 -0.2560 -0.6131  0.2278
13000TIP3    H160415   2.741   0.721   0.468  0.0009 -0.7658 -0.7074
13000TIP3    H260416   2.763   0.867   0.432 -0.3782 -0.5222  0.0163
13001TIP3   OH260417   1.184   1.206  10.339  0.2911  0.3459 -0.7746
13001TIP3    H160418   1.191   1.272  10.408  3.0191  0.5491 -1.1582
13001TIP3    H260419   1.258   1.148  10.354 -1.6845 -2.3970 -0.8120
13002TIP3   OH260420   2.221   2.414   3.296 -0.0054 -0.3048  0.1999
13002TIP3    H160421   2.187   2.358   3.365  1.2795 -0.6436  0.5946
13002TIP3    H260422   2.146   2.466   3.267 -1.3662 -2.5835 -0.5597
13003TIP3   OH260423   2.641   4.325   4.811 -0.5381  0.2335  0.4357
13003TIP3    H160424   2.691   4.270   4.750 -0.9670 -0.8706  1.0521
13003TIP3    H260425   2.706   4.358   4.873 -0.1805  0.9495 -0.2990
13004TIP3   OH260426   2.511   4.653   4.127 -0.4675  0.6729  0.1462
13004TIP3    H160427   2.465   4.619   4.204 -0.1404 -0.5759 -0.1824
13004TIP3    H260428   2.450   4.716   4.089 -0.4939  1.5736  1.6000
13005TIP3   OH260429   4.588   5.590  12.613 -0.5724  0.0211 -0.6334
13005TIP3    H160430   4.623   5.634  12.691 -2.0464 -0.9392  0.6458
13005TIP3    H260431   4.654   5.525  12.590 -1.2621 -1.6089  1.5954
13006TIP3   OH260432   2.898   1.103  15.795  0.4252  0.5342  0.4391
13006TIP3    H160433   2.829   1.084  15.859 -0.7382 -0.2302 -0.9757
13006TIP3    H260434   2.918   1.018  15.756 -0.2945  1.2173 -1.5529
13007TIP3   OH260435   1.489   0.351   5.577  0.0921 -0.0010  0.1320
13007TIP3    H160436   1.537   0.364   5.495  1.2604  0.1337  0.8272
13007TIP3    H260437   1.401   0.385   5.558  0.2234 -0.3274 -1.1827
13008TIP3   OH260438   1.593   2.264  16.459 -0.4100 -0.0212  0.0139
13008TIP3    H160439   1.616   2.310  16.540 -0.4870 -0.3394  0.2178
13008TIP3    H260440   1.635   2.179  16.467 -2.8280 -1.2169  1.0980
13009TIP3   OH260441   1.016   5.809   0.762  0.0134 -0.8492  0.2547
13009TIP3    H160442   1.016   5.845   0.851  2.3855 -0.5157  0.1918
13009TIP3    H260443   1.024   5.715   0.774  0.3246 -0.8051  0.4018
13010TIP3   OH260444   5.588   3.423   2.467  0.0499  0.1049 -0.3587
13010TIP3    H160445   5.679   3.401   2.449  0.4717  1.9627 -0.7075
13010TIP3    H260446   5.555   3.349   2.518  2.2487  0.1493  1.2760
13011TIP3   OH260447   0.354   3.974   5.292  0.3829 -0.1651 -0.2041
13011TIP3    H160448   0.267   3.996   5.325  0.5718 -2.1321  1.9166
13011TIP3    H260449   0.414   4.021   5.350  0.7178 -0.9401  0.0923
13012TIP3   OH260450   3.172   0.394  12.233 -0.1230 -0.0234  0.2143
13012TIP3    H160451   3.113   0.418  12.303 -2.1252 -0.4149 -1.2617
13012TIP3    H260452   3.223   0.320  12.269 -0.6729  0.1741  1.4349
13013TIP3   OH260453   6.096   0.588   5.935  0.3638 -0.1122  0.5280
13013TIP3    H160454   6.146   0.548   6.007  0.1213  0.0037  0.7654
13013TIP3    H260455   6.007   0.598   5.971 -0.4876 -2.4901 -0.6275
13014TIP3   OH260456   4.472   1.135  13.258 -0.0161 -0.4625 -0.2567
13014TIP3    H160457   4.446   1.085  13.335  2.6160  0.0250  1.0790
13014TIP3    H260458   4.402   1.199  13.246 -0.0982  0.0538  2.3455
13015TIP3   OH260459   0.034   6.046  11.915 -0.0701 -0.2243  0.2946
13015TIP3    H160460   0.024   5.951  11.921  1.3750 -0.4073  0.1584
13015TIP3    H260461   0.083   6.070  11.994  2.0108  0.0025 -1.0012
13016TIP3   OH260462   5.291   1.787  13.327  0.4001 -0.5203 -0.4605
13016TIP3    H160463   5.322   1.824  13.244  1.9691  0.3626  0.4633
13016TIP3    H260464   5.279   1.863  13.384  1.0757 -1.2129  0.6462
13017TIP3   OH260465   0.546   0.530  12.650  0.2401  0.0771  0.1390
13017TIP3    H160466   0.505   0.566  12.729 -1.9005  0.6360 -1.1414
13017TIP3    H260467   0.593   0.604  12.612 -1.6462  0.8407 -0.8829
13018TIP3   OH260468   0.513   1.475  14.386  0.0549 -0.1808  0.6214
13018TIP3    H160469   0.456   1.449  14.459 -0.4129  1.1144  0.7514
13018TIP3    H260470   0.579   1.405  14.380  1.2012  0.5288  3.4621
13019TIP3   OH260471   1.741   3.652   0.889 -0.5516  0.1859  0.2165
13019TIP3    H160472   1.802   3.596   0.937 -1.0053 -0.9494 -0.4956
13019TIP3    H260473   1.654   3.624   0.918 -0.7777  1.4915  0.8964
13020TIP3   OH260474   4.393   5.061   2.237  0.4284  0.7560  0.1709
13020TIP3    H160475   4.323   5.043   2.299  1.6427  0.8926  1.6299
13020TIP3    H260476   4.374   5.005   2.162 -0.1510 -0.7122  1.3624
13021TIP3   OH260477   4.616   6.109   6.119  0.7150  0.0490  0.3646
13021TIP3    H160478   4.565   6.153   6.050  0.1397 -1.8789 -0.5082
13021TIP3    H260479   4.594   6.157   6.199 -0.1925  1.0865 -0.4718
13022TIP3   OH260480   5.157   6.364   5.502  0.0273 -0.0218  0.2379
13022TIP3    H160481   5.229   6.427   5.515 -0.4816  0.3136  1.6185
13022TIP3    H260482   5.191   6.282   5.537  0.4005 -0.3365 -0.8315
13023TIP3   OH260483   1.246   4.140   4.195  0.2435 -0.4015 -0.1702
13023TIP3    H160484   1.288   4.061   4.228 -0.9408 -0.6843  0.7373
13023TIP3    H260485   1.229   4.193   4.274  0.1663  0.3235 -0.6585
13024TIP3   OH260486   6.764   0.650  14.464  0.0976  0.4551  0.1758
13024TIP3    H160487   6.773   0.589  14.391 -0.0907  0.3842  0.2103
13024TIP3    H260488   6.799   0.732  14.432  0.1933  0.3726  0.0707
13025TIP3   OH260489   5.496   0.022  11.698  0.3365 -0.2757 -0.6354
13025TIP3    H160490   5.559   0.081  11.740 -0.9364 -0.1674  1.1917
13025TIP3    H260491   5.481   0.061  11.612 -0.2736  1.9692  0.4192
13026TIP3   OH260492   4.624   4.088   3.990 -0.7044 -0.2013  0.2386
13026TIP3    H160493   4.622   4.023   3.920 -1.2359 -0.4538  0.4853
13026TIP3    H260494   4.656   4.168   3.947  2.4856 -1.2367  0.4870
13027TIP3   OH260495   3.062   3.514   2.971 -0.4871  0.6576 -0.4023
13027TIP3    H160496   2.997   3.450   2.943  1.0832 -1.2851  0.1679
13027TIP3    H260497   3.091   3.483   3.057  1.0147  1.6062 -0.5202
13028TIP3   OH260498   2.532   5.460   3.703 -0.1785  0.7436  0.1241
13028TIP3    H160499   2.615   5.413   3.704 -0.8493 -0.5157 -0.6169
13028TIP3    H260500   2.541   5.524   3.632  0.0168  0.3269 -0.2283
13029TIP3   OH260501   0.130   5.275   2.747  0.0956 -0.4338 -0.2784
13029TIP3    H160502   0.200   5.301   2.808 -1.5811  0.7389  1.2762
13029TIP3    H260503   0.121   5.350   2.688 -1.4753  0.5554  1.1292
13030TIP3   OH260504   6.289   5.820  16.786 -0.1772  0.1715 -0.1082
13030TIP3    H160505   6.360   5.756  16.784  0.1801  0.5787 -0.6719
13030TIP3    H260506   6.210   5.768  16.801  0.2854 -0.2307  1.0973
13031TIP3   OH260507   0.870   4.077  11.893 -0.3925 -0.1445 -0.2749
13031TIP3    H160508   0.814   4.072  11.815 -2.8088  1.9783  1.1920
13031TIP3    H260509   0.841   4.004  11.948 -0.2764 -0.2790 -0.3927
13032TIP3   OH260510   6.712   3.938  13.902  0.2846 -0.4051  0.7784
13032TIP3    H160511   6.803   3.966  13.894  0.1426 -0.1437 -0.0037
13032TIP3    H260512   6.666   3.984  13.831 -0.4002 -0.7576  0.9811
13033TIP3   OH260513   3.360   3.719   3.685  0.2251  0.1193 -0.0360
13033TIP3    H160514   3.341   3.740   3.776 -1.1330 -1.7358  0.1645
13033TIP3    H260515   3.292   3.765   3.635 -0.6488 -0.9476  0.1311
13034TIP3   OH260516   2.093   1.692  10.954 -0.0534  0.3143 -0.5538
13034TIP3    H160517   2.109   1.598  10.951  0.5465  0.4217 -0.8197
13034TIP3    H260518   2.023   1.706  10.890 -0.5919 -0.0303 -0.0562
13035TIP3   OH260519   5.270   4.885   1.255  0.1551 -0.3029 -0.2012
13035TIP3    H160520   5.320   4.824   1.309  0.6820  0.6624  0.4262
13035TIP3    H260521   5.211   4.829   1.204 -0.6264 -1.2466  1.6258
13036TIP3   OH260522   1.342   4.380  12.314 -0.4035 -0.4337 -0.1663
13036TIP3    H160523   1.271   4.406  12.373  0.2226 -3.5130  2.1940
13036TIP3    H260524   1.419   4.423  12.351 -0.5233  0.4441 -0.9020
13037TIP3   OH260525   2.811   2.440   4.004  0.3752  0.2951  0.2774
13037TIP3    H160526   2.782   2.404   3.920  2.2983 -0.2844 -0.2017
13037TIP3    H260527   2.737   2.491   4.036 -0.8324 -0.4718 -1.1871
13038TIP3   OH260528   0.868   2.686  15.063  0.7881 -0.6789  0.4526
13038TIP3    H160529   0.818   2.762  15.093  1.0492  0.0463 -0.8499
13038TIP3    H260530   0.812   2.611  15.083 -0.5166  0.0554 -0.3116
13039TIP3   OH260531   5.235   4.739  16.877  0.2978 -0.1811 -0.0550
13039TIP3    H160532   5.287   4.666  16.844  1.1495 -0.0263  0.8788
13039TIP3    H260533   5.264   4.750  16.968  2.0008  2.8687 -0.8326
13040TIP3   OH260534   6.574   4.261   0.073 -0.2811  0.9190  0.3926
13040TIP3    H160535   6.564   4.351   0.105 -0.0927  0.6079  1.3729
13040TIP3    H260536   6.668   4.250   0.058 -0.4626  1.3419 -1.1599
13041TIP3   OH260537   0.539   6.135  16.907  0.0256  0.1484  0.5499
13041TIP3    H160538   0.498   6.080  16.841  1.0236  0.5689 -0.4550
13041TIP3    H260539   0.500   6.107  16.990  0.4607 -2.0028  0.0688
13042TIP3   OH260540   6.498   6.264  14.955  0.6700  0.4858 -0.4595
13042TIP3    H160541   6.516   6.352  14.922 -2.1667  1.4521  0.2476
13042TIP3    H260542   6.455   6.279  15.039  1.5826 -1.6722  0.4428
13043TIP3   OH260543   6.383   5.134   2.148 -0.0540  0.4353  0.2925
13043TIP3    H160544   6.370   5.063   2.211  1.5928  0.5377  0.8079
13043TIP3    H260545   6.470   5.168   2.169 -0.0979  1.4639 -1.0825
13044TIP3   OH260546   5.609   6.025  14.693 -0.4127  0.8779  0.0757
13044TIP3    H160547   5.585   5.945  14.740  0.8329  0.7540  0.5229
13044TIP3    H260548   5.670   6.070  14.751 -0.1578  1.5604 -0.7038
13045TIP3   OH260549   3.003   5.205  14.823  0.4694 -0.0053 -0.5415
13045TIP3    H160550   3.000   5.217  14.728 -0.6124 -1.0825 -0.6694
13045TIP3    H260551   2.926   5.253  14.855  0.2667 -0.4735 -0.3199
13046TIP3   OH260552   0.953   6.411   2.002 -0.6900 -0.2484  0.0733
13046TIP3    H160553   0.920   6.408   1.913 -1.7009  3.5907  0.1468
13046TIP3    H260554   1.048   6.399   1.993 -0.8282 -0.3508 -1.4547
13047TIP3   OH260555   6.141   1.446   5.944 -0.0253  0.4030  0.4901
13047TIP3    H160556   6.229   1.426   5.911  0.2598  1.1503  0.7757
13047TIP3    H260557   6.124   1.377   6.008  0.2523  0.1135  0.2572
13048TIP3   OH260558   0.985   5.517   4.749  0.3141  0.2752 -0.2159
13048TIP3    H160559   0.932   5.532   4.827  0.6525  1.7801 -0.2325
13048TIP3    H260560   1.064   5.474   4.781  0.3333  0.6437  0.2436
13049TIP3   OH260561   3.836   2.853  12.733  0.3023  0.8644  0.4862
13049TIP3    H160562   3.898   2.808  12.676  0.7908  2.6720 -0.5090
13049TIP3    H260563   3.829   2.797  12.810  2.5004  0.1532  0.2487
13050TIP3   OH260564   4.495   5.711  14.018  0.2469  0.9713  0.7172
13050TIP3    H160565   4.428   5.777  13.999 -0.1082  0.8029  1.3238
13050TIP3    H260566   4.503   5.713  14.114 -0.0407 -0.1111  0.7862
13051TIP3   OH260567   5.752   5.839   1.395  0.1996 -0.0968 -0.5432
13051TIP3    H160568   5.722   5.750   1.376  2.0838 -1.5595  2.5792
13051TIP3    H260569   5.696   5.868   1.467  0.0890  0.9800 -1.0538
13052TIP3   OH260570   2.537   0.464   5.876 -0.2571 -1.1672  0.2057
13052TIP3    H160571   2.540   0.485   5.783 -1.3192 -1.2764  0.1237
13052TIP3    H260572   2.596   0.390   5.886  2.6304  0.9964  0.2898
13053TIP3   OH260573   4.446   4.435   2.550  0.2438 -0.1812 -0.1621
13053TIP3    H160574   4.417   4.457   2.639  2.7303  1.4903  0.3518
13053TIP3    H260575   4.407   4.350   2.532 -1.0137 -0.1837  2.2065
13054TIP3   OH260576   2.775   6.016   0.603  0.1393 -0.6076 -0.1555
13054TIP3    H160577   2.705   6.021   0.537  0.6490 -2.0100 -0.8535
13054TIP3    H260578   2.769   5.926   0.635 -0.2275  0.1073  1.9003
13055TIP3   OH260579   1.354   4.640   0.495  0.0554 -0.8237  0.1153
13055TIP3    H160580   1.397   4.569   0.448 -0.5189 -0.6841 -0.6442
13055TIP3    H260581   1.393   4.639   0.582  2.4868  0.0540 -0.8708
13056TIP3   OH260582   4.656   4.090  17.150 -0.3495 -0.2604  1.1535
13056TIP3    H160583   4.712   4.014  17.132  1.0697  0.9623  0.1651
13056TIP3    H260584   4.579   4.076  17.095 -0.5011 -1.3912  1.6244
13057TIP3   OH260585   4.179   1.081   6.358 -0.5853 -0.4797 -0.3829
13057TIP3    H160586   4.238   1.130   6.415 -1.2856  1.3174 -1.1600
13057TIP3    H260587   4.095   1.081   6.405 -0.7178 -0.5097 -0.6169
13058TIP3   OH260588   4.574   0.395  11.247 -0.1177 -0.3523 -0.1448
13058TIP3    H160589   4.615   0.381  11.333 -0.7522 -3.3191 -0.2108
13058TIP3    H260590   4.483   0.367  11.260 -0.5255  0.2733 -1.5276
13059TIP3   OH260591   3.484   3.589   3.952 -0.3933  0.2520 -0.1380
13059TIP3    H160592   3.519   3.626   3.871 -0.0205 -2.0707 -1.1315
13059TIP3    H260593   3.403   3.638   3.968 -0.4965  0.7467 -1.9577
13060TIP3   OH260594   4.829   3.913   5.028 -0.3567 -0.0485 -0.4215
13060TIP3    H160595   4.752   3.954   5.068 -1.9468  0.4042 -3.5941
13060TIP3    H260596   4.891   3.985   5.017  0.5485 -0.3845  2.0167
13061TIP3   OH260597   1.978   2.307   3.767 -0.6455 -0.2872  0.4897
13061TIP3    H160598   1.958   2.279   3.857 -2.8855  1.8305  0.7706
13061TIP3    H260599   1.903   2.361   3.742  0.7634  0.6710 -2.0192
13062TIP3   OH260600   2.313   2.217  15.928  0.0304  0.4492 -0.6136
13062TIP3    H160601   2.365   2.150  15.972  1.5390  2.1501  0.3466
13062TIP3    H260602   2.225   2.181  15.923  0.5477 -1.1179  0.9136
13063TIP3   OH260603   3.733   3.559  12.430 -0.1829 -0.1858  0.1849
13063TIP3    H160604   3.755   3.597  12.346  2.2470  0.9333  1.2030
13063TIP3    H260605   3.728   3.465  12.413  0.3061  0.0153 -1.2048
13064TIP3   OH260606   0.555   4.959  14.415  0.4115 -0.0348  0.1047
13064TIP3    H160607   0.616   4.903  14.463  1.3085 -0.1449 -1.0944
13064TIP3    H260608   0.505   4.898  14.360  0.5576  0.2250 -0.3208
13065TIP3   OH260609   5.918   6.335  12.710  0.2927 -0.2939 -0.5574
13065TIP3    H160610   5.993   6.307  12.761 -0.6287 -0.1799  0.9038
13065TIP3    H260611   5.916   6.430  12.719 -0.5656 -0.3672  0.2393
13066TIP3   OH260612   1.915   1.957   4.700  0.4552 -0.4461  0.1866
13066TIP3    H160613   1.850   1.894   4.733  0.8209 -1.9744 -1.7929
13066TIP3    H260614   1.958   1.990   4.778 -2.2761  0.2005  1.5622
13067TIP3   OH260615   3.467   1.627  15.719 -0.6693 -0.3060  0.3431
13067TIP3    H160616   3.502   1.709  15.754 -1.1296 -0.1014  0.3292
13067TIP3    H260617   3.441   1.578  15.797 -1.8943  0.2395  0.2854
13068TIP3   OH260618   1.681   5.166   4.426  0.1830  0.3096 -0.4469
13068TIP3    H160619   1.728   5.174   4.509  0.6481  0.7495 -0.7481
13068TIP3    H260620   1.657   5.255   4.403  0.4371  0.2347 -1.0042
13069TIP3   OH260621   0.712   5.158   1.254  0.0634  0.4306  0.0712
13069TIP3    H160622   0.771   5.212   1.306 -0.1296 -0.5898  1.3856
13069TIP3    H260623   0.676   5.094   1.316 -1.6705  0.4021 -0.8920
13070TIP3   OH260624   1.211   6.698   0.110 -0.1328  0.0548 -0.3837
13070TIP3    H160625   1.175   6.633   0.050  0.2175  0.2770 -0.8487
13070TIP3    H260626   1.135   6.743   0.146 -0.3508 -0.0720 -0.6818
13071TIP3   OH260627   4.427   5.453  15.191 -0.3659  0.4952 -0.3074
13071TIP3    H160628   4.415   5.546  15.170 -1.0321  0.5094  0.1093
13071TIP3    H260629   4.515   5.449  15.229 -0.7268  1.1504  0.6482
13072TIP3   OH260630   0.293   6.207   4.168 -0.1819 -0.4282  0.0929
13072TIP3    H160631   0.329   6.135   4.117 -1.2234 -1.3437  0.6274
13072TIP3    H260632   0.207   6.176   4.198 -1.1166  1.3878 -0.5102
13073TIP3   OH260633   1.518   2.785   1.308  0.1819 -0.7265 -0.0862
13073TIP3    H160634   1.601   2.829   1.328 -0.7875  1.1093  0.0557
13073TIP3    H260635   1.510   2.791   1.213  0.8438 -2.1811 -0.2743
13074TIP3   OH260636   1.236   1.223   6.450  0.2493 -0.3215  0.1147
13074TIP3    H160637   1.183   1.267   6.383  1.4792 -0.4391 -0.9812
13074TIP3    H260638   1.176   1.210   6.524 -0.5417  1.8551 -0.0853
13075TIP3   OH260639   4.713   0.101  17.242  0.7364 -0.1263  0.3264
13075TIP3    H160640   4.739   0.015  17.274  2.2447  0.3855  0.5658
13075TIP3    H260641   4.712   0.093  17.147  1.0014 -0.3875  0.3451
13076TIP3   OH260642   6.758   2.641  11.612 -0.6029 -0.0390  0.1967
13076TIP3    H160643   6.785   2.558  11.574 -0.7176 -0.4220  0.9329
13076TIP3    H260644   6.689   2.618  11.674 -0.9909  0.6654  0.0317
13077TIP3   OH260645   3.642   1.333   5.917  0.1478 -0.3827  0.4983
13077TIP3    H160646   3.566   1.292   5.958 -0.4892 -1.7983 -1.9057
13077TIP3    H260647   3.706   1.262   5.910  0.7583  0.1835  0.3115
13078TIP3   OH260648   0.473   2.192   1.466 -0.0260 -0.3865  0.4696
13078TIP3    H160649   0.475   2.245   1.545 -1.4302 -0.3269  0.4981
13078TIP3    H260650   0.433   2.248   1.400  1.5602 -0.2722 -0.4469
13079TIP3   OH260651   2.939   0.985  15.429 -0.1316 -0.0639 -0.5991
13079TIP3    H160652   2.945   1.009  15.336  0.7759  0.1007 -0.5062
13079TIP3    H260653   2.928   0.890  15.428  2.1120 -0.3949 -0.8661
13080TIP3   OH260654   0.162   2.080   6.435 -0.0112 -1.0026 -0.5155
13080TIP3    H160655   0.196   2.160   6.395 -0.2087 -0.3535  0.5767
13080TIP3    H260656   0.240   2.031   6.462  0.1339  0.1590  1.3585
13081TIP3   OH260657   5.222   6.287  15.895 -0.3419 -0.0683 -0.1541
13081TIP3    H160658   5.209   6.358  15.957 -0.8403  0.0169 -0.3482
13081TIP3    H260659   5.282   6.227  15.939 -0.1760  0.3110  0.1400
13082TIP3   OH260660   0.622   5.950  11.174  0.2079 -0.1786 -0.6285
13082TIP3    H160661   0.546   5.912  11.130 -0.4387  0.0642  0.2384
13082TIP3    H260662   0.585   6.021  11.227  1.1693  0.5564 -0.9218
13083TIP3   OH260663   1.850   1.046   1.282  0.6496  0.1863 -0.7023
13083TIP3    H160664   1.911   0.978   1.310 -0.2769 -0.8662 -1.1839
13083TIP3    H260665   1.774   0.998   1.251 -0.6176  1.4770  0.2946
13084TIP3   OH260666   5.349   4.169  12.585  0.0393 -0.1060 -0.1475
13084TIP3    H160667   5.350   4.101  12.517  1.4819 -0.1884 -0.0530
13084TIP3    H260668   5.387   4.127  12.662  1.8078  1.0352 -0.3446
13085TIP3   OH260669   0.638   3.217  11.123 -0.0707 -0.8271  0.1060
13085TIP3    H160670   0.648   3.303  11.164 -0.4616 -1.0045  0.5819
13085TIP3    H260671   0.545   3.213  11.098 -0.3700 -1.6157  1.2598
13086TIP3   OH260672   5.324   3.778  15.257 -0.3054 -0.4542  0.5527
13086TIP3    H160673   5.289   3.867  15.255  1.2874  0.2181  0.3639
13086TIP3    H260674   5.378   3.772  15.178  0.5026 -1.1890  1.1370
13087TIP3   OH260675   3.507   0.565  13.807 -0.3197  0.1609  0.5038
13087TIP3    H160676   3.569   0.551  13.735  1.4459  0.7038  1.8405
13087TIP3    H260677   3.425   0.587  13.764  0.6476  0.3463 -1.3509
13088TIP3   OH260678   1.325   1.670   2.327 -0.2328 -0.0766  0.0270
13088TIP3    H160679   1.293   1.758   2.349  1.0859  0.6577 -0.8382
13088TIP3    H260680   1.245   1.621   2.305 -1.2646  0.1196  2.9119
13089TIP3   OH260681   3.878   3.382  12.899  0.4692  0.6327 -0.1272
13089TIP3    H160682   3.849   3.307  12.951  2.2437  0.0656  0.1291
13089TIP3    H260683   3.954   3.349  12.850 -0.4445  1.4606 -2.2408
13090TIP3   OH260684   6.571   6.245  17.090 -0.8414  0.3487  0.1893
13090TIP3    H160685   6.632   6.186  17.135 -0.6605  0.3063 -0.1118
13090TIP3    H260686   6.617   6.271  17.010 -1.1074  0.5371  0.0977
13091TIP3   OH260687   4.331   3.724  11.694 -0.2768 -0.1576  0.2087
13091TIP3    H160688   4.269   3.792  11.669 -0.4361 -0.7855 -1.1739
13091TIP3    H260689   4.281   3.643  11.690  0.7504 -0.7599 -1.6008
13092TIP3   OH260690   6.615   4.815  13.062 -0.0424  0.3835 -0.0306
13092TIP3    H160691   6.541   4.767  13.098  0.1437  0.5399  0.5684
13092TIP3    H260692   6.642   4.875  13.132  0.4527  0.5448 -0.3515
13093TIP3   OH260693   4.678   1.907   2.536 -0.6100  0.3194  0.1992
13093TIP3    H160694   4.671   1.827   2.588  0.1180  0.1266 -0.0003
13093TIP3    H260695   4.588   1.923   2.505 -1.2570  0.9529  2.2570
13094TIP3   OH260696   4.027   6.397  13.846 -0.8232  0.4967 -0.2361
13094TIP3    H160697   3.965   6.454  13.891 -1.0540  0.8061 -0.9223
13094TIP3    H260698   4.068   6.346  13.915 -1.2598  0.8676  0.3044
13095TIP3   OH260699   4.417   4.152  15.081 -0.4369 -0.0795  0.0462
13095TIP3    H160700   4.460   4.089  15.024  3.3557  3.2707 -1.2632
13095TIP3    H260701   4.358   4.201  15.023 -0.1125  0.3321  0.0620
13096TIP3   OH260702   2.919   3.006   1.887  0.3002 -0.6329  0.1535
13096TIP3    H160703   2.956   2.920   1.865 -0.4310 -0.5839 -1.3616
13096TIP3    H260704   2.994   3.056   1.920  1.4864 -0.7687 -2.1430
13097TIP3   OH260705   0.434   1.124   4.890  0.0893  0.0467  0.2029
13097TIP3    H160706   0.501   1.135   4.823  0.4282  1.3599  0.7256
13097TIP3    H260707   0.481   1.093   4.967 -0.0386  0.1666  0.3302
13098TIP3   OH260708   4.580   4.150   1.981 -0.2620  0.2797 -0.2043
13098TIP3    H160709   4.533   4.114   1.906  0.5600 -2.7165  0.6028
13098TIP3    H260710   4.623   4.228   1.947 -0.0034 -0.9150 -2.8302
13099TIP3   OH260711   3.210   0.222  15.590 -0.0515 -0.2241 -0.1681
13099TIP3    H160712   3.128   0.272  15.596 -0.7232 -1.1778 -1.0866
13099TIP3    H260713   3.273   0.284  15.555 -0.2593  0.6363  0.9035
13100TIP3   OH260714   5.616   5.213   0.157  0.1417  0.0776  0.0821
13100TIP3    H160715   5.614   5.130   0.109 -0.9731 -0.8478  1.6585
13100TIP3    H260716   5.626   5.187   0.248  0.8274  1.7441  0.5002
13101TIP3   OH260717   1.052   1.014  16.319 -0.0756 -0.7144  0.2009
13101TIP3    H160718   1.070   1.000  16.226  0.8787  0.1713  0.2313
13101TIP3    H260719   0.980   0.954  16.339  0.6979 -2.0165 -0.7505
13102TIP3   OH260720   2.797   1.289   2.069 -0.2548  1.0889 -0.0392
13102TIP3    H160721   2.781   1.230   2.142  1.7244  0.1921 -0.2457
13102TIP3    H260722   2.764   1.241   1.992 -1.2682  1.5281  0.1067
13103TIP3   OH260723   0.402   4.306   6.007 -0.5012  0.3052 -0.5983
13103TIP3    H160724   0.392   4.346   6.093 -0.2273 -1.8736  0.5054
13103TIP3    H260725   0.496   4.292   5.998 -0.7337 -1.9962  0.0170
13104TIP3   OH260726   6.107   4.461   3.464 -0.1399  0.0140 -0.0320
13104TIP3    H160727   6.133   4.553   3.457 -0.1386  0.1655  1.5569
13104TIP3    H260728   6.122   4.439   3.556 -2.4319 -0.8821  0.1927
13105TIP3   OH260729   5.998   2.485  12.846 -0.0077 -0.2380 -0.6052
13105TIP3    H160730   5.975   2.576  12.828  1.4055 -0.0762 -1.7792
13105TIP3    H260731   5.977   2.472  12.938 -0.0443  1.3337 -0.3731
13106TIP3   OH260732   4.497   2.063  11.264 -0.1767 -0.6021  0.1872
13106TIP3    H160733   4.465   2.016  11.186  1.5474 -0.4720 -0.6436
13106TIP3    H260734   4.555   2.130  11.229 -2.5148  2.2290  1.3415
13107TIP3   OH260735   3.291   2.824   0.934  0.1543  0.2199  0.4043
13107TIP3    H160736   3.303   2.755   0.869  0.4680 -0.4856  1.1875
13107TIP3    H260737   3.329   2.788   1.015  1.6277  1.8656  0.5089
13108TIP3   OH260738   6.627   2.947  14.278  0.0051 -0.2939  0.0595
13108TIP3    H160739   6.683   2.989  14.212 -0.1410  1.3628  0.9306
13108TIP3    H260740   6.675   2.868  14.304  1.4178  0.4967 -0.0289
13109TIP3   OH260741   0.938   5.533  11.658  0.3261 -0.4433 -0.0266
13109TIP3    H160742   0.971   5.577  11.736  0.9153 -0.2910 -0.3493
13109TIP3    H260743   0.995   5.565  11.588 -0.6444 -0.0286 -0.6410
13110TIP3   OH260744   3.409   1.862   0.709 -0.2876 -0.0004 -0.0553
13110TIP3    H160745   3.483   1.918   0.685 -0.5262  0.4399  0.2233
13110TIP3    H260746   3.382   1.894   0.795 -0.7875 -0.1690 -0.1467
13111TIP3   OH260747   1.183   0.372   0.819 -0.0954  0.4188  0.0227
13111TIP3    H160748   1.172   0.467   0.831 -0.4324  0.4689 -0.6341
13111TIP3    H260749   1.242   0.364   0.745 -0.1738  0.1093 -0.0068
13112TIP3   OH260750   3.224   5.840   6.430 -0.1805 -0.0603  0.0098
13112TIP3    H160751   3.222   5.936   6.434 -1.5244  0.0626 -2.2163
13112TIP3    H260752   3.270   5.820   6.349  1.0806 -1.3708  0.9999
13113TIP3   OH260753   3.399   6.259  11.922 -0.5195  0.0775 -0.5494
13113TIP3    H160754   3.342   6.334  11.907 -0.2501  0.8154  1.6538
13113TIP3    H260755   3.487   6.290  11.902 -0.3898  0.4299  0.5122
13114TIP3   OH260756   3.663   0.016  14.975  0.0025  0.2303  0.6143
13114TIP3    H160757   3.589   0.024  14.915  0.9819  1.1706 -0.5034
13114TIP3    H260758   3.675  -0.079  14.985 -0.2776  0.0582 -0.5432
13115TIP3   OH260759   4.046   3.693   3.975  0.1208 -0.4662  0.0105
13115TIP3    H160760   3.999   3.617   4.010 -0.4623 -0.1788 -0.1238
13115TIP3    H260761   3.985   3.767   3.989  1.1098  0.1810  1.1410
13116TIP3   OH260762   4.791   3.275  14.038  0.1755  0.8522 -1.1193
13116TIP3    H160763   4.736   3.348  14.009 -0.4966  0.5532 -0.6216
13116TIP3    H260764   4.878   3.314  14.050 -0.1632  1.5612 -0.9049
13117TIP3   OH260765   2.193   2.663  15.761  0.2712 -0.1124 -0.0580
13117TIP3    H160766   2.115   2.718  15.752  0.7398  0.2469 -2.8410
13117TIP3    H260767   2.159   2.576  15.779 -0.7626  0.1683 -0.5346
13118TIP3   OH260768   3.630   1.290   1.393 -0.4888  0.0841  0.1645
13118TIP3    H160769   3.538   1.263   1.388 -0.3960 -0.2647  0.3349
13118TIP3    H260770   3.639   1.355   1.323 -1.1845  1.0933  0.9858
13119TIP3   OH260771   1.131   2.691   2.394 -0.4973 -0.5702 -0.6784
13119TIP3    H160772   1.117   2.622   2.459  2.0338 -0.6909 -0.1762
13119TIP3    H260773   1.224   2.714   2.402 -0.0271 -0.5955 -4.2781
13120TIP3   OH260774   4.051   5.307  10.825 -0.1763 -0.0665  0.1299
13120TIP3    H160775   4.096   5.337  10.904 -1.3643  2.1622  0.0346
13120TIP3    H260776   4.096   5.352  10.753 -1.1103  0.4340 -0.1569
13121TIP3   OH260777   1.340   1.222   3.445  0.1769 -0.2591 -0.4557
13121TIP3    H160778   1.316   1.222   3.352  2.1256  0.2226 -1.0018
13121TIP3    H260779   1.419   1.169   3.450 -1.0705 -2.1258  1.3324
13122TIP3   OH260780   4.278   1.697  14.020  0.2407  0.5113  0.0216
13122TIP3    H160781   4.355   1.719  13.967  1.3761 -1.7592  0.6152
13122TIP3    H260782   4.295   1.736  14.105  0.7148  0.0815  0.1283
13123TIP3   OH260783   3.816   5.477   2.019  0.1068  0.8213 -0.3505
13123TIP3    H160784   3.850   5.502   2.104 -0.5728  0.4908  0.0253
13123TIP3    H260785   3.865   5.398   1.995 -0.0039  0.6695 -0.0736
13124TIP3   OH260786   6.001   6.055   2.692  0.1775  0.4517  0.4640
13124TIP3    H160787   5.937   6.076   2.760 -1.4897 -1.5028 -0.3679
13124TIP3    H260788   6.052   5.983   2.727 -1.3034 -1.1988 -0.5840
13125TIP3   OH260789   1.564   4.016   1.640 -0.0267  0.2738  0.0926
13125TIP3    H160790   1.648   4.022   1.685  0.4618  2.7276 -1.0098
13125TIP3    H260791   1.505   4.071   1.691 -0.1156  1.1038 -0.8885
13126TIP3   OH260792   4.600   1.738  11.219  0.2085 -0.4441  0.3054
13126TIP3    H160793   4.669   1.795  11.185 -0.6835  1.6516  1.7973
13126TIP3    H260794   4.519   1.772  11.181 -0.1942 -1.7951 -0.0848
13127TIP3   OH260795   1.606   4.770  12.542  0.3932  0.1277  0.0197
13127TIP3    H160796   1.690   4.738  12.576  0.9222  1.8732  0.5037
13127TIP3    H260797   1.599   4.859  12.579  0.1741  1.5133 -3.0623
13128TIP3   OH260798   1.749   3.573  13.116  0.5571  0.0753 -0.0029
13128TIP3    H160799   1.744   3.660  13.076 -3.1559 -0.7674 -1.9279
13128TIP3    H260800   1.807   3.523  13.058 -1.1502  0.1100 -1.8751
13129TIP3   OH260801   2.544   3.039   1.998  0.5807  0.0311 -0.0355
13129TIP3    H160802   2.527   3.077   1.912 -1.2185  0.3905  0.4516
13129TIP3    H260803   2.490   3.089   2.059  2.4341  0.3432  1.4860
13130TIP3   OH260804   3.536   3.384   2.941 -0.0481  0.0887 -0.0200
13130TIP3    H160805   3.532   3.292   2.964 -1.6854 -0.1853 -1.1673
13130TIP3    H260806   3.624   3.397   2.906 -0.0534 -1.2277 -0.5633
13131TIP3   OH260807   4.067   5.991   2.313 -0.2283  0.0650  0.3520
13131TIP3    H160808   4.069   6.085   2.331 -0.3648  0.2116 -0.3634
13131TIP3    H260809   4.066   5.950   2.400 -0.4334  0.7297  0.6729
13132TIP3   OH260810   4.965   5.117   3.869  0.1369  0.4073  1.0610
13132TIP3    H160811   4.937   5.055   3.937  1.2286 -0.1019  1.0628
13132TIP3    H260812   4.944   5.074   3.787 -0.0704  0.4943  1.0685
13133TIP3   OH260813   3.343   2.518  14.070 -0.1586  0.4982 -0.2425
13133TIP3    H160814   3.356   2.609  14.097  0.6972 -0.0064  1.1367
13133TIP3    H260815   3.408   2.503  14.002 -2.3948  1.8111 -2.9103
13134TIP3   OH260816   1.952   2.403   5.366  0.0908  0.2183  0.6284
13134TIP3    H160817   2.030   2.445   5.402 -0.4009  1.1852  0.5855
13134TIP3    H260818   1.881   2.430   5.424 -0.4202  0.3891 -0.0650
13135TIP3   OH260819   6.504   1.939   1.403  0.6505 -0.5638 -0.5517
13135TIP3    H160820   6.551   1.991   1.338 -1.9176  1.3116 -1.0320
13135TIP3    H260821   6.470   2.002   1.465 -2.0050 -1.6556 -0.7528
13136TIP3   OH260822   2.915   2.037  16.074  0.0906  0.0376 -0.2959
13136TIP3    H160823   2.879   1.988  16.001  0.3420 -1.7278  0.7068
13136TIP3    H260824   2.848   2.030  16.143  0.9776 -0.6118  0.5254
13137TIP3   OH260825   6.344   3.944  16.307  0.0236  0.3189  0.1673
13137TIP3    H160826   6.252   3.920  16.297  0.3958 -0.4799 -1.7239
13137TIP3    H260827   6.342   4.034  16.339 -1.3863 -0.2092  1.7384
13138TIP3   OH260828   2.403   3.383  15.274  0.0439  0.3672 -0.1353
13138TIP3    H160829   2.322   3.434  15.269 -0.7809 -0.7392  1.1385
13138TIP3    H260830   2.469   3.445  15.303 -0.4491  1.1812 -0.7211
13139TIP3   OH260831   5.758   4.718   2.431  0.4508 -0.5950 -0.3826
13139TIP3    H160832   5.753   4.755   2.343 -1.1615 -0.0266 -0.0924
13139TIP3    H260833   5.667   4.710   2.458  0.9384  0.4275  1.7332
13140TIP3   OH260834   4.274   1.971  16.574 -0.4969  0.5365 -0.2427
13140TIP3    H160835   4.260   1.960  16.668  0.8599  1.9657  0.1736
13140TIP3    H260836   4.366   1.951  16.561 -0.4906  1.0883 -1.1337
13141TIP3   OH260837   4.627   3.014  13.540 -0.3065 -0.0323  0.0541
13141TIP3    H160838   4.645   2.920  13.541  1.7209  0.2800 -0.9072
13141TIP3    H260839   4.711   3.054  13.564 -1.0608  1.5397  0.1449
13142TIP3   OH260840   0.224   3.310   6.201 -0.3310  0.0330 -0.4254
13142TIP3    H160841   0.254   3.257   6.274 -0.7174  1.4178  0.8012
13142TIP3    H260842   0.285   3.384   6.198 -1.6875  1.2388  0.0853
13143TIP3   OH260843   1.452   6.494   3.012 -0.1018  0.0805  0.8808
13143TIP3    H160844   1.381   6.535   3.061 -0.2421  0.8094  0.0928
13143TIP3    H260845   1.456   6.543   2.930 -0.0596 -1.2899  0.0394
13144TIP3   OH260846   1.096   6.676   3.997 -0.0099 -0.4658  0.4785
13144TIP3    H160847   1.123   6.760   4.033  0.1122 -0.8205  1.2268
13144TIP3    H260848   1.003   6.669   4.020  0.3182 -1.1511  1.6382
13145TIP3   OH260849   0.227   0.326  12.213  0.0504  0.5423  0.5101
13145TIP3    H160850   0.240   0.374  12.132 -2.3149  1.4606  0.6051
13145TIP3    H260851   0.244   0.235  12.190  0.2988  0.8951 -0.7619
13146TIP3   OH260852   3.609   5.037  11.211  0.2827 -0.4100  0.2735
13146TIP3    H160853   3.616   5.012  11.119  0.7796  1.1071 -0.1218
13146TIP3    H260854   3.683   5.096  11.226  1.4840 -2.2222  2.2207
13147TIP3   OH260855   5.556   1.131  14.029 -0.4621 -1.0272 -0.1073
13147TIP3    H160856   5.511   1.111  14.111  1.1184 -1.0774  0.7916
13147TIP3    H260857   5.612   1.206  14.050 -3.4588  2.1313 -2.4234
13148TIP3   OH260858   4.515   1.178  16.449  0.3979 -0.0583 -0.0134
13148TIP3    H160859   4.519   1.118  16.524 -0.7559 -0.3256 -0.1604
13148TIP3    H260860   4.593   1.156  16.397 -0.2228 -1.7175 -0.2811
13149TIP3   OH260861   2.361   4.886  11.920  0.0421 -0.4005  0.1102
13149TIP3    H160862   2.379   4.794  11.901 -1.2093 -0.4048 -1.1345
13149TIP3    H260863   2.274   4.885  11.960 -0.3313  0.3091 -0.6666
13150TIP3   OH260864   3.318   2.676  11.589  0.2512 -0.2210  0.1071
13150TIP3    H160865   3.272   2.754  11.559  0.5836  0.3928  1.1348
13150TIP3    H260866   3.299   2.672  11.683  0.8539 -0.9550  0.2058
13151TIP3   OH260867   4.618   2.658  11.535  0.2102  0.4389 -0.1807
13151TIP3    H160868   4.545   2.720  11.532  0.7818  1.1432 -0.0333
13151TIP3    H260869   4.694   2.713  11.553  0.3335 -0.6397  3.1070
13152TIP3   OH260870   2.312   2.890  13.636  0.1668 -0.6517 -0.6097
13152TIP3    H160871   2.306   2.803  13.676  0.6635 -0.0012  0.9843
13152TIP3    H260872   2.406   2.903  13.620  0.0805 -0.4616 -0.9709
13153TIP3   OH260873   1.424   1.956   5.850  0.6377  0.8236 -0.0709
13153TIP3    H160874   1.365   1.923   5.918  1.3019 -0.3994 -0.0645
13153TIP3    H260875   1.445   2.045   5.878 -0.7176  1.0762  0.2393
13154TIP3   OH260876   6.361   2.328  11.317 -0.5404 -0.3864  0.5677
13154TIP3    H160877   6.267   2.324  11.332 -0.5880  1.4136  0.8985
13154TIP3    H260878   6.371   2.311  11.223 -1.4219  1.5711  0.0684
13155TIP3   OH260879   1.472   4.321   2.316  0.4214  0.1636  0.1000
13155TIP3    H160880   1.506   4.301   2.229  0.5359 -2.5147  0.6644
13155TIP3    H260881   1.378   4.330   2.304  0.5568  0.9069 -0.4520
13156TIP3   OH260882   3.838   6.024  14.066 -0.3212  0.1014  0.6560
13156TIP3    H160883   3.810   6.112  14.041 -1.2179 -0.6273 -1.1284
13156TIP3    H260884   3.933   6.030  14.076 -0.2971  1.1485 -0.0828
13157TIP3   OH260885   6.081   4.223   0.180 -0.1320  0.6619 -0.0416
13157TIP3    H160886   6.128   4.234   0.097 -1.5393  0.7639 -0.8544
13157TIP3    H260887   6.018   4.154   0.163 -1.4889  1.7350  0.4519
13158TIP3   OH260888   3.741   1.925  14.858 -0.2190  0.0599  0.1946
13158TIP3    H160889   3.676   1.866  14.895  0.3251 -0.1363  0.8738
13158TIP3    H260890   3.762   1.986  14.929 -1.4226  1.6610 -0.7613
13159TIP3   OH260891   1.342   6.225   5.191  0.3486  0.8853 -0.0593
13159TIP3    H160892   1.360   6.239   5.098  0.9345  0.3781 -0.0292
13159TIP3    H260893   1.387   6.143   5.212 -1.6490 -0.2227  0.1437
13160TIP3   OH260894   0.538   0.925  16.984  0.2865 -0.2437  0.5492
13160TIP3    H160895   0.506   0.892  16.900  0.7711 -0.2902  0.3831
13160TIP3    H260896   0.529   1.020  16.977  1.0214 -0.1932  0.1521
13161TIP3   OH260897   3.379   3.395  16.581  0.1028  0.1552 -0.2536
13161TIP3    H160898   3.294   3.354  16.600 -0.1676  0.6724 -0.3128
13161TIP3    H260899   3.443   3.342  16.629 -0.3419  0.2077  0.4064
13162TIP3   OH260900   2.815   1.976  11.059  0.4220  0.2963  0.4137
13162TIP3    H160901   2.761   1.898  11.064 -0.1475  0.6265 -0.3662
13162TIP3    H260902   2.843   1.980  10.967 -1.0337  1.9618 -0.0303
13163TIP3   OH260903   2.831   4.638  12.273 -0.0779 -0.3593  0.0896
13163TIP3    H160904   2.777   4.564  12.246 -1.0749  0.4452 -0.1966
13163TIP3    H260905   2.768   4.704  12.302  0.6835  0.9765 -1.1665
13164TIP3   OH260906   3.606   1.508   1.560 -0.1869 -0.6635  0.6423
13164TIP3    H160907   3.606   1.463   1.645  1.3809 -0.2344  0.9018
13164TIP3    H260908   3.665   1.457   1.506  0.0249 -0.0650  0.2989
13165TIP3   OH260909   1.975   0.985  11.015  0.1943  0.6903 -0.5493
13165TIP3    H160910   1.897   0.931  11.027  1.1899 -0.5652  0.6253
13165TIP3    H260911   1.951   1.071  11.049 -0.5275  0.1898  0.2165
13166TIP3   OH260912   1.568   6.704   5.165  0.3035  0.5125 -0.0712
13166TIP3    H160913   1.622   6.636   5.125 -0.8145 -0.0214 -0.7399
13166TIP3    H260914   1.504   6.657   5.217 -0.8191  0.9934 -0.9600
13167TIP3   OH260915   6.500   3.531  16.496  0.6254 -0.0139 -0.1567
13167TIP3    H160916   6.557   3.520  16.572 -0.5050 -0.1815  0.6971
13167TIP3    H260917   6.427   3.584  16.528  0.5734  0.6762 -1.3748
13168TIP3   OH260918   1.192   4.545   3.474  0.0630  0.3586 -0.2285
13168TIP3    H160919   1.139   4.575   3.400 -0.7813 -2.0642 -0.6918
13168TIP3    H260920   1.256   4.486   3.435  0.9790  0.6678  0.7572
13169TIP3   OH260921   1.402   3.499  11.401 -0.5209 -0.2417  0.8217
13169TIP3    H160922   1.389   3.408  11.428  0.2569  0.0050  2.0828
13169TIP3    H260923   1.380   3.551  11.478 -1.9269  0.7295 -0.1685
13170TIP3   OH260924   2.636   5.845   3.018 -0.5273  0.3496 -0.2785
13170TIP3    H160925   2.657   5.923   3.070 -1.5550  0.0693  0.5944
13170TIP3    H260926   2.579   5.877   2.948 -0.6152  0.4513 -0.1607
13171TIP3   OH260927   5.586   2.723   5.385  0.7523 -0.0918 -0.6624
13171TIP3    H160928   5.503   2.741   5.427  0.4758 -1.3118 -0.6310
13171TIP3    H260929   5.639   2.681   5.453  0.7654 -0.8949 -1.1510
13172TIP3   OH260930   3.411   6.180  12.205  0.4389 -0.4989 -0.7261
13172TIP3    H160931   3.316   6.171  12.199 -0.0305  3.2710 -1.6628
13172TIP3    H260932   3.439   6.193  12.115  1.7768 -0.9040 -0.3869
13173TIP3   OH260933   5.428   6.670   2.412  0.1087  0.1723 -0.1151
13173TIP3    H160934   5.391   6.758   2.421 -1.9265 -0.8577  2.9189
13173TIP3    H260935   5.523   6.684   2.419 -0.2039  1.8909  5.9462
13174TIP3   OH260936   0.291   6.693  14.174 -0.0287  0.6636 -0.1750
13174TIP3    H160937   0.342   6.752  14.229 -1.0025  1.2557  0.1105
13174TIP3    H260938   0.225   6.656  14.232  1.7631 -2.3113  0.1650
13175TIP3   OH260939   6.620   4.917   6.461 -0.2915 -0.1036 -0.0817
13175TIP3    H160940   6.684   4.853   6.428 -0.2750 -0.0103 -0.2321
13175TIP3    H260941   6.535   4.878   6.440 -0.3405  1.4163 -3.2360
13176TIP3   OH260942   5.216   1.560  15.464  0.6991  0.0423  0.5304
13176TIP3    H160943   5.308   1.578  15.482  0.6238  0.6196  0.3695
13176TIP3    H260944   5.174   1.560  15.550  0.1237  3.9806  0.4432
13177TIP3   OH260945   5.524   0.618   1.856 -0.3710  0.6111 -0.5344
13177TIP3    H160946   5.484   0.549   1.802 -0.2626  1.5138 -1.8164
13177TIP3    H260947   5.616   0.619   1.830  0.1124 -0.1631  1.0250
13178TIP3   OH260948   1.249   3.518  13.980 -0.0639 -0.1878  0.2811
13178TIP3    H160949   1.179   3.514  13.915  0.4570 -0.0596 -0.3040
13178TIP3    H260950   1.204   3.516  14.064 -0.8085  0.4946 -0.0828
13179TIP3   OH260951   3.734   4.790  14.030 -0.2521 -0.8459  0.2254
13179TIP3    H160952   3.679   4.744  13.967 -1.1780 -1.5985  1.5332
13179TIP3    H260953   3.673   4.844  14.080  0.4806 -0.1813  0.4247
13180TIP3   OH260954   2.383   0.914  11.805  0.0412  0.4115  0.1959
13180TIP3    H160955   2.432   0.879  11.730  0.6992  0.5958  0.5315
13180TIP3    H260956   2.304   0.952  11.766 -1.3211 -2.4232 -0.1229
13181TIP3   OH260957   3.988   5.498  11.321  0.1970 -0.5097 -0.5777
13181TIP3    H160958   3.990   5.587  11.355 -1.2790 -0.1587 -1.2952
13181TIP3    H260959   3.923   5.453  11.375  2.7576 -1.9882  1.5226
13182TIP3   OH260960   1.806   0.421  12.899 -0.7118  0.1529  0.0510
13182TIP3    H160961   1.778   0.489  12.960  0.9563  0.0609  0.9732
13182TIP3    H260962   1.863   0.465  12.837 -1.2864 -0.0320 -0.6314
13183TIP3   OH260963   1.207   1.415   5.222  0.0904 -0.0336 -0.2252
13183TIP3    H160964   1.223   1.336   5.273 -0.1769  0.2386  0.2878
13183TIP3    H260965   1.173   1.479   5.285 -2.3789 -0.3707 -1.0875
13184TIP3   OH260966   5.432   3.505  15.326 -0.4774 -0.0648 -0.2509
13184TIP3    H160967   5.519   3.533  15.354 -0.0627 -1.5663  0.0748
13184TIP3    H260968   5.373   3.537  15.394  0.0716 -0.6582  0.5175
13185TIP3   OH260969   1.648   5.880  16.631  0.1861  0.0071  0.2255
13185TIP3    H160970   1.575   5.826  16.661 -0.1210 -0.3106 -1.0556
13185TIP3    H260971   1.655   5.949  16.698 -1.1756 -0.0524  0.4632
13186TIP3   OH260972   1.999   2.129  15.486  0.4738 -0.2741  0.0002
13186TIP3    H160973   1.981   2.104  15.576  1.3509 -0.8948  0.0164
13186TIP3    H260974   1.973   2.052  15.434  1.5943 -0.6058 -0.1040
13187TIP3   OH260975   6.706   1.238  15.552 -0.2156  0.4311 -0.3299
13187TIP3    H160976   6.717   1.208  15.462 -1.1276  1.1809 -0.7064
13187TIP3    H260977   6.768   1.186  15.602 -0.5804 -0.9005 -1.1996
13188TIP3   OH260978   4.812   6.725   3.246  0.4527 -0.1577  0.6357
13188TIP3    H160979   4.875   6.661   3.279 -1.2973 -1.7459  1.0699
13188TIP3    H260980   4.786   6.693   3.160 -0.8672 -0.4003  1.0931
13189TIP3   OH260981   6.042   5.242   5.891 -0.4705  0.2165 -0.0450
13189TIP3    H160982   6.060   5.186   5.815 -2.9294 -1.1421  0.2884
13189TIP3    H260983   6.090   5.200   5.963  1.7062  1.3991 -0.7107
13190TIP3   OH260984   4.244   0.793  14.313  0.4684 -0.0735  0.0741
13190TIP3    H160985   4.319   0.815  14.368  0.8216 -1.6920  0.3052
13190TIP3    H260986   4.242   0.697  14.313 -1.3205 -0.0677 -0.3205
13191TIP3   OH260987   6.379   3.315  15.177  0.1630 -0.2922  0.2142
13191TIP3    H160988   6.465   3.307  15.219 -0.6802 -0.5782  2.0164
13191TIP3    H260989   6.377   3.403  15.142  0.6498  0.2485  1.4824
13192TIP3   OH260990   5.095   6.324  13.434  0.8576 -0.5324 -0.4434
13192TIP3    H160991   5.069   6.267  13.362  1.7448 -2.1172  0.4335
13192TIP3    H260992   5.013   6.345  13.479  0.2492  0.7636 -2.0762
13193TIP3   OH260993   4.897   4.536   1.199  0.0281 -0.4135  0.2594
13193TIP3    H160994   4.809   4.568   1.179 -0.4052 -1.6045  0.2275
13193TIP3    H260995   4.911   4.463   1.139  2.0902  1.3573 -1.6385
13194TIP3   OH260996   6.685   3.364  13.617  0.1488  0.1243 -0.4127
13194TIP3    H160997   6.593   3.370  13.593  0.1860  1.6857 -0.2649
13194TIP3    H260998   6.706   3.271  13.609 -2.1622 -0.7827  2.2225
13195TIP3   OH260999   4.404   3.884   3.155 -0.0066  0.2077 -0.0020
13195TIP3    H161000   4.378   3.824   3.225 -0.5838 -0.7871 -1.0405
13195TIP3    H261001   4.466   3.943   3.197 -0.7256 -0.0282  1.4802
13196TIP3   OH261002   4.795   6.234   2.710 -0.0136 -0.7351 -0.1468
13196TIP3    H161003   4.704   6.262   2.716  0.2771  0.6566 -1.5372
13196TIP3    H261004   4.844   6.315   2.693  1.5934 -1.3401  1.3180
13197TIP3   OH261005   6.718   1.190   4.812  0.1961  0.2108  0.5355
13197TIP3    H161006   6.793   1.249   4.816  0.1924  0.2877 -0.2852
13197TIP3    H261007   6.739   1.130   4.740 -0.9886  0.9033 -0.4223
13198TIP3   OH261008   2.606   3.251  10.925  0.1946  0.0147 -0.2722
13198TIP3    H161009   2.601   3.225  10.832  0.8445 -0.5460 -0.1585
13198TIP3    H261010   2.544   3.193  10.969 -0.0049  0.1794 -0.3362
13199TIP3   OH261011   6.067   6.345   5.389  0.4343  0.3424 -0.2471
13199TIP3    H161012   6.099   6.388   5.469  1.2787  0.4726 -0.6396
13199TIP3    H261013   6.125   6.378   5.320  0.7268 -0.9858 -0.6507
13200TIP3   OH261014   4.186   5.522  10.393 -0.0551 -0.3979  0.3172
13200TIP3    H161015   4.104   5.565  10.412 -0.4419 -0.2144 -1.5975
13200TIP3    H261016   4.162   5.445  10.341  0.8909 -1.0220  0.7618
13201TIP3   OH261017   1.339   3.810   0.129 -0.0941 -0.2053 -0.6090
13201TIP3    H161018   1.358   3.887   0.076 -0.4421 -0.7694 -1.5843
13201TIP3    H261019   1.415   3.800   0.186  0.0548  0.7140 -0.6355
13202TIP3   OH261020   5.864   6.363   3.855 -0.0588 -0.3984  0.4656
13202TIP3    H161021   5.852   6.301   3.783 -1.5944  1.5548 -1.0787
13202TIP3    H261022   5.945   6.410   3.833 -0.3384 -0.0413  0.1924
13203TIP3   OH261023   1.231   3.275  16.976 -0.1313  0.6764  0.0816
13203TIP3    H161024   1.164   3.233  16.922  0.0144  2.8643 -1.9538
13203TIP3    H261025   1.185   3.347  17.019  0.3474  0.5778  0.7655
13204TIP3   OH261026   6.368   3.063  13.343  0.0753 -0.2684  0.1699
13204TIP3    H161027   6.407   2.983  13.306 -0.9971 -0.2050 -1.1756
13204TIP3    H261028   6.440   3.125  13.348  0.6983 -0.9847  0.2304
13205TIP3   OH261029   3.555   6.750   4.544 -0.0546 -0.0445 -0.3346
13205TIP3    H161030   3.517   6.683   4.487 -2.3312 -0.0555  1.0384
13205TIP3    H261031   3.502   6.828   4.527  1.4563  0.9263 -0.6736
13206TIP3   OH261032   3.962   6.219   2.913  0.2430  0.0928  0.5220
13206TIP3    H161033   4.026   6.275   2.868 -0.0449 -0.7873 -1.0696
13206TIP3    H261034   4.015   6.163   2.969  0.9742 -0.9381 -1.1225
13207TIP3   OH261035   6.680   3.457  16.143 -0.3582  0.2244 -0.2066
13207TIP3    H161036   6.630   3.526  16.100 -0.8542 -1.2050 -2.1036
13207TIP3    H261037   6.764   3.498  16.165 -1.2964  1.8909  0.4466
13208TIP3   OH261038   0.018   6.576   3.023 -0.3767 -0.5578 -0.1304
13208TIP3    H161039   0.001   6.532   3.106  2.5742 -0.0612  0.8323
13208TIP3    H261040   0.015   6.506   2.958 -0.7756 -1.2930  0.6644
13209TIP3   OH261041   1.119   6.655  13.208 -0.3246 -0.2408  0.3983
13209TIP3    H161042   1.024   6.660  13.217 -0.3072 -1.5160  1.7711
13209TIP3    H261043   1.136   6.566  13.176  0.4124 -0.1303  0.4614
13210TIP3   OH261044   3.104   3.760  11.087  0.3624 -0.4072  0.2305
13210TIP3    H161045   3.151   3.782  11.007  0.8840 -1.3276  0.2681
13210TIP3    H261046   3.014   3.742  11.057  0.1886  0.6548  0.0648
13211TIP3   OH261047   2.916   3.622   3.682 -0.5489  0.4470 -0.0125
13211TIP3    H161048   2.955   3.708   3.699  0.5852  0.3614 -1.9091
13211TIP3    H261049   2.989   3.560   3.693 -0.4345  0.1334 -2.1314
13212TIP3   OH261050   1.409   5.068  11.676  0.3621 -0.2979  0.0914
13212TIP3    H161051   1.434   5.008  11.746 -1.6187 -1.7649 -0.3755
13212TIP3    H261052   1.341   5.021  11.627 -0.7253  2.0148 -0.7664
13213TIP3   OH261053   4.120   5.927   2.847  0.3756  0.2224  0.0026
13213TIP3    H161054   4.119   5.967   2.935  2.4268  0.2508  0.0660
13213TIP3    H261055   4.199   5.873   2.847  0.2953  0.0749 -1.7731
13214TIP3   OH261056   1.395   4.303  13.555 -0.4941  0.6114  0.0248
13214TIP3    H161057   1.388   4.252  13.635 -1.2706  0.8240  0.1100
13214TIP3    H261058   1.430   4.242  13.490  2.2223  1.0004  1.0021
13215TIP3   OH261059   6.325   3.468   0.406  0.2507 -0.8478  0.5929
13215TIP3    H161060   6.307   3.442   0.316  2.0606 -1.1356  0.2935
13215TIP3    H261061   6.268   3.411   0.459 -1.6382  0.0647 -0.3606
13216TIP3   OH261062   5.845   0.211  14.226 -0.4026  0.6920 -0.0537
13216TIP3    H161063   5.781   0.193  14.158  0.2819  0.7239 -0.7133
13216TIP3    H261064   5.844   0.306  14.235 -0.6224  0.6751  0.1130
13217TIP3   OH261065   3.559   6.202  11.027  0.2430 -0.3619 -0.1045
13217TIP3    H161066   3.565   6.274  10.964 -1.9980 -0.3272 -0.3622
13217TIP3    H261067   3.541   6.245  11.111  0.0734 -0.5646 -0.0368
13218TIP3   OH261068   0.922   5.006   5.261 -0.0527  0.5492  0.1522
13218TIP3    H161069   0.830   4.980   5.266 -0.2947  1.2786 -0.3531
13218TIP3    H261070   0.932   5.072   5.329  0.1324  0.3679  0.2998
13219TIP3   OH261071   4.209   1.879  12.211  0.0528  0.3883  0.0503
13219TIP3    H161072   4.293   1.893  12.168 -0.3461  1.1959 -0.4797
13219TIP3    H261073   4.223   1.800  12.264  1.2281  0.6805  0.2072
13220TIP3   OH261074   1.702   5.250   5.321  0.4122 -0.5584  0.7701
13220TIP3    H161075   1.779   5.230   5.267 -0.8518  1.7414 -2.1225
13220TIP3    H261076   1.634   5.191   5.289 -0.6917  1.6429 -1.2024
13221TIP3   OH261077   3.955   6.336  10.794 -0.1457  0.1587  0.2629
13221TIP3    H161078   3.928   6.285  10.870  1.3753 -0.3616  0.4899
13221TIP3    H261079   3.920   6.288  10.719  0.4640 -0.7302  0.5238
13222TIP3   OH261080   2.570   4.354   0.412  0.5162  0.5533  0.1167
13222TIP3    H161081   2.535   4.279   0.364 -0.9111  1.4341 -0.2463
13222TIP3    H261082   2.592   4.418   0.345  0.8892  0.8275  0.4917
13223TIP3   OH261083   0.106   3.342  15.263 -0.0909 -0.3495 -0.3864
13223TIP3    H161084   0.196   3.348  15.231  0.0136 -0.0671 -0.0523
13223TIP3    H261085   0.112   3.286  15.340  0.0360  0.7684  0.4499
13224TIP3   OH261086   4.127   4.181   1.878 -0.3099  0.1755 -0.0430
13224TIP3    H161087   4.138   4.116   1.947  0.5963 -0.2900 -0.6145
13224TIP3    H261088   4.163   4.261   1.915  1.8130 -0.4726 -0.5573
13225TIP3   OH261089   4.574   4.583  11.924  0.3462  0.3035 -0.2935
13225TIP3    H161090   4.566   4.570  12.018  0.1206  1.3412 -0.1510
13225TIP3    H261091   4.494   4.631  11.900 -0.9035 -2.1393 -1.4745
13226TIP3   OH261092   3.991   6.408   4.422 -0.3644 -0.3472  0.5631
13226TIP3    H161093   4.034   6.478   4.373  1.7600 -0.6163  1.9183
13226TIP3    H261094   4.015   6.423   4.513 -1.0258 -2.0354  1.0714
13227TIP3   OH261095   0.531   3.805   5.169 -0.2305 -0.0269 -0.1729
13227TIP3    H161096   0.530   3.719   5.210 -0.2825  0.0161 -0.0840
13227TIP3    H261097   0.463   3.855   5.214  0.4023  0.3440  0.3923
13228TIP3   OH261098   4.101   3.434  11.569  0.3751  0.3454  0.0537
13228TIP3    H161099   4.155   3.454  11.493 -0.1656  2.1855  0.0951
13228TIP3    H261100   4.011   3.436  11.535  0.2157 -0.7854  0.3669
13229TIP3   OH261101   2.856   1.110  13.068  0.6147 -0.2174 -0.4781
13229TIP3    H161102   2.799   1.167  13.119  0.5987  0.3891 -1.1582
13229TIP3    H261103   2.820   1.112  12.980 -0.3400 -2.5412 -0.2262
13230TIP3   OH261104   0.212   2.513  16.646 -1.0260 -0.5148 -0.1406
13230TIP3    H161105   0.148   2.506  16.716 -1.2730 -2.4134 -0.5013
13230TIP3    H261106   0.277   2.445  16.665 -0.0066  0.2676 -0.6891
13231TIP3   OH261107   1.015   4.941   2.869 -0.3498 -0.3121 -0.4125
13231TIP3    H161108   1.019   4.993   2.788 -2.0534  0.8352  0.1742
13231TIP3    H261109   1.097   4.960   2.914 -0.8343  1.7739 -0.3154
13232TIP3   OH261110   6.447   5.687   1.300  0.4099 -0.1744 -0.0107
13232TIP3    H161111   6.519   5.735   1.260  1.2244 -0.8069  0.6592
13232TIP3    H261112   6.453   5.708   1.393  0.4523 -1.1449  0.2147
13233TIP3   OH261113   4.609   1.582   3.191  0.4889  0.1243  0.8302
13233TIP3    H161114   4.684   1.638   3.173  1.3187 -1.6096 -1.6637
13233TIP3    H261115   4.623   1.505   3.137 -2.4049 -0.9099  1.3590
13234TIP3   OH261116   2.245   1.459  12.748  0.1463  0.3667 -0.2258
13234TIP3    H161117   2.178   1.411  12.700  0.6469 -0.7683  0.1857
13234TIP3    H261118   2.205   1.475  12.834  0.2648 -0.0078 -0.0985
13235TIP3   OH261119   5.907   0.052   0.734 -0.1354 -1.0003  0.7355
13235TIP3    H161120   5.856   0.107   0.674  0.7528 -0.7091  0.2399
13235TIP3    H261121   5.995   0.088   0.731  0.0817 -1.4200  1.6927
13236TIP3   OH261122   3.561   1.907  12.660 -0.8025 -0.4247 -0.4699
13236TIP3    H161123   3.556   1.816  12.630 -3.7430  0.1337 -2.1499
13236TIP3    H261124   3.551   1.959  12.580 -0.4000  1.3754  0.5859
13237TIP3   OH261125   1.958   3.137   3.143 -0.9594 -0.3211  0.0412
13237TIP3    H161126   1.982   3.189   3.219 -2.1992  0.4414 -0.0670
13237TIP3    H261127   1.863   3.126   3.149 -0.6835 -3.1814  0.4116
13238TIP3   OH261128   2.139   0.028  15.957  0.3471  1.2435  0.1604
13238TIP3    H161129   2.095   0.053  16.039 -0.1641  0.1794  0.2163
13238TIP3    H261130   2.081  -0.036  15.917  0.9413  1.2339 -0.7019
13239TIP3   OH261131   0.947   5.479  11.085 -0.2478  0.1125  0.3393
13239TIP3    H161132   1.026   5.532  11.077  0.2440 -0.2158  2.5003
13239TIP3    H261133   0.972   5.393  11.051 -0.1026  0.3753 -0.2313
13240TIP3   OH261134   2.531   3.420  12.185 -0.4313  0.5609 -0.1071
13240TIP3    H161135   2.564   3.509  12.177 -0.4288  0.5953  0.2700
13240TIP3    H261136   2.608   3.365  12.168 -0.0220  0.6441  1.3276
13241TIP3   OH261137   3.630   5.623   3.479  0.2208  0.4678 -0.1808
13241TIP3    H161138   3.634   5.579   3.564 -0.6720  0.9713  0.1375
13241TIP3    H261139   3.537   5.638   3.464  0.2608 -0.6255 -1.7927
13242TIP3   OH261140   4.955   6.115   1.151 -0.0217  0.3931  0.3537
13242TIP3    H161141   4.993   6.202   1.160  3.5983 -1.2142  3.7931
13242TIP3    H261142   4.991   6.081   1.070  1.7997  0.8130  0.9311
13243TIP3   OH261143   2.117   4.001   5.767  0.0112  0.4852  0.8342
13243TIP3    H161144   2.163   3.992   5.851 -0.3954  0.1421  1.0222
13243TIP3    H261145   2.143   4.088   5.735  0.1769  0.6141  1.3085
13244TIP3   OH261146   6.020   3.673  10.834 -0.0217 -0.4076  0.3683
13244TIP3    H161147   5.947   3.636  10.785 -1.6744  0.5141  2.0060
13244TIP3    H261148   6.035   3.759  10.796 -1.0337  0.1432  1.1812
13245TIP3   OH261149   3.799   4.645  15.937 -0.6367  0.3357 -0.0586
13245TIP3    H161150   3.733   4.578  15.951 -0.3448  0.1167  0.3003
13245TIP3    H261151   3.801   4.659  15.842 -0.6077 -0.2520 -0.1454
13246TIP3   OH261152   4.674   4.863  14.109  0.4743  0.6662 -0.9825
13246TIP3    H161153   4.587   4.902  14.098  0.3413  0.5671 -0.3486
13246TIP3    H261154   4.731   4.915  14.053  0.1892  1.4011 -0.5989
13247TIP3   OH261155   0.674   6.450  14.430 -0.0663  0.1433 -0.3557
13247TIP3    H161156   0.652   6.539  14.460  0.5338 -0.2049  1.2254
13247TIP3    H261157   0.764   6.457  14.400 -0.3593  0.2827 -1.2228
13248TIP3   OH261158   2.953   5.687   3.009 -0.0532  0.3414 -0.1538
13248TIP3    H161159   2.915   5.601   2.993  0.2111  0.1112  0.4280
13248TIP3    H261160   2.906   5.745   2.950 -1.1969  0.0374  0.4311
13249TIP3   OH261161   0.242   3.696   3.080  0.0319  0.1720  0.1811
13249TIP3    H161162   0.201   3.633   3.020  0.9042 -0.7457  0.5168
13249TIP3    H261163   0.177   3.707   3.150  0.5290 -1.7363  1.0273
13250TIP3   OH261164   5.322   2.554  12.450 -0.0863 -0.3696 -0.1493
13250TIP3    H161165   5.257   2.509  12.503  1.6410 -2.4747  0.3445
13250TIP3    H261166   5.406   2.531  12.491  1.2175 -0.8152 -2.8359
13251TIP3   OH261167   2.966   3.158  11.445  0.8745 -0.0252 -0.5592
13251TIP3    H161168   2.923   3.075  11.428  1.9580 -0.6467 -0.3725
13251TIP3    H261169   3.044   3.157  11.389  1.5829  0.2750  0.3813
13252TIP3   OH261170   6.477   3.848  12.106 -0.4848  0.1479 -0.0679
13252TIP3    H161171   6.521   3.922  12.149 -0.7809 -0.3267  1.1027
13252TIP3    H261172   6.387   3.852  12.139  0.0738 -2.1499  2.0171
13253TIP3   OH261173   3.369   0.374  10.827 -0.0674 -0.0598 -0.8203
13253TIP3    H161174   3.288   0.328  10.805 -0.7444  0.4635  0.4496
13253TIP3    H261175   3.346   0.467  10.822 -0.0919  0.0911  1.3022
13254TIP3   OH261176   5.153   0.500   1.423  0.1467  0.4482 -0.8493
13254TIP3    H161177   5.141   0.539   1.337  1.2551 -0.9640 -1.6733
13254TIP3    H261178   5.099   0.554   1.481 -1.3931  0.8478 -2.5636
13255TIP3   OH261179   2.413   4.166   4.797  0.7252 -0.3762  0.2183
13255TIP3    H161180   2.376   4.202   4.716  1.1899  2.1535  1.0117
13255TIP3    H261181   2.494   4.216   4.810  0.7718 -0.8822  2.1173
13256TIP3   OH261182   1.596   4.623   5.866 -0.5195 -0.4190 -0.4866
13256TIP3    H161183   1.605   4.607   5.772  1.1216 -1.1123 -0.2360
13256TIP3    H261184   1.682   4.605   5.902 -1.5551 -1.9834  1.4254
13257TIP3   OH261185   3.751   4.641  14.328 -0.5498 -0.0790  0.5000
13257TIP3    H161186   3.670   4.690  14.315 -0.5609  0.2427  1.6381
13257TIP3    H261187   3.774   4.658  14.420  1.4536  0.8603 -0.1156
13258TIP3   OH261188   6.538   6.381  16.154 -0.0808  0.5758  0.2372
13258TIP3    H161189   6.542   6.394  16.059 -0.0645  1.7182  0.3822
13258TIP3    H261190   6.590   6.302  16.170 -0.9008 -0.2113 -0.8046
13259TIP3   OH261191   3.795   1.692  15.581 -0.9515 -0.2424 -0.2144
13259TIP3    H161192   3.814   1.603  15.611  2.1247  0.3688 -0.0633
13259TIP3    H261193   3.843   1.700  15.498 -1.8882  1.0219 -0.6614
13260TIP3   OH261194   1.076   1.937   4.254  0.6926  0.1284  0.1784
13260TIP3    H161195   1.166   1.934   4.287  0.3200 -0.2247  1.2164
13260TIP3    H261196   1.044   1.847   4.266 -0.0139  0.4136  0.4535
13261TIP3   OH261197   5.693   6.200  12.805  0.7296  0.2266 -0.0163
13261TIP3    H161198   5.769   6.250  12.776 -0.5968  1.1628 -2.0497
13261TIP3    H261199   5.675   6.234  12.893  3.0666 -0.5817  0.8601
13262TIP3   OH261200   5.980   3.242  13.408 -0.3524 -0.3486  0.5685
13262TIP3    H161201   5.893   3.282  13.411 -0.1751  0.3325 -1.4876
13262TIP3    H261202   6.040   3.317  13.406  0.1379 -0.7527 -0.2876
13263TIP3   OH261203   2.538   5.562   4.541 -0.3598 -0.6349  0.3165
13263TIP3    H161204   2.615   5.608   4.506 -1.2362  1.6466  1.1621
13263TIP3    H261205   2.485   5.542   4.464 -0.2050  0.2989 -0.0483
13264TIP3   OH261206   3.717   1.065  12.427 -0.4365  0.0975 -0.7012
13264TIP3    H161207   3.621   1.071  12.427 -0.4837  0.1002  1.4045
13264TIP3    H261208   3.746   1.157  12.428 -0.4804  0.1153  0.4829
13265TIP3   OH261209   4.928   2.443   5.614 -0.4106  0.1297 -0.4107
13265TIP3    H161210   4.900   2.488   5.534  2.0298  0.4556 -1.1640
13265TIP3    H261211   4.921   2.350   5.594 -1.2299  0.1795 -0.4215
13266TIP3   OH261212   3.048   1.730  16.781  0.3325 -0.2972 -0.1663
13266TIP3    H161213   2.986   1.757  16.713 -0.3067 -0.5096  0.3342
13266TIP3    H261214   3.133   1.733  16.737  0.0367  0.5127 -0.7037
13267TIP3   OH261215   5.111   2.536  14.331 -0.0484  0.0371  0.1635
13267TIP3    H161216   5.046   2.538  14.402 -1.0819 -1.7801 -0.6622
13267TIP3    H261217   5.086   2.608  14.273 -1.7159 -0.9512 -0.4165
13268TIP3   OH261218   5.321   1.976  13.127  0.1015  0.1363  0.6987
13268TIP3    H161219   5.306   2.035  13.054 -0.9412  0.1943  0.9437
13268TIP3    H261220   5.244   1.987  13.183  0.6886 -0.2095  1.5956
13269TIP3   OH261221   4.444   5.810  15.870  0.3718  0.7656  0.2306
13269TIP3    H161222   4.413   5.864  15.797  0.3265  0.5683  0.1044
13269TIP3    H261223   4.534   5.840  15.885  0.3204  0.9316  0.2134
13270TIP3   OH261224   3.306   6.192  17.013  0.4089  0.4833  0.0741
13270TIP3    H161225   3.376   6.169  16.952 -0.2673  0.1430 -0.5975
13270TIP3    H261226   3.229   6.145  16.980 -0.3872  1.6575  0.1647
13271TIP3   OH261227   6.478   4.514  12.829  0.5423 -0.2943 -0.5859
13271TIP3    H161228   6.509   4.505  12.738  1.2195 -1.0708 -0.2943
13271TIP3    H261229   6.491   4.427  12.867 -0.7167 -0.2592 -0.0337
13272TIP3   OH261230   5.192   4.157  14.715 -0.2873  0.0774 -0.0674
13272TIP3    H161231   5.182   4.189  14.625  0.4539  2.3097  0.5809
13272TIP3    H261232   5.270   4.102  14.712 -0.2778  0.1253 -0.8090
13273TIP3   OH261233   4.755   6.744   1.289  0.5430 -0.2680  0.1039
13273TIP3    H161234   4.770   6.673   1.351  1.2414  0.5923  0.9597
13273TIP3    H261235   4.840   6.787   1.281  0.2102  0.2755 -0.6443
13274TIP3   OH261236   4.629   6.780  11.797 -0.6017  0.4294  0.4425
13274TIP3    H161237   4.542   6.743  11.813 -0.9513  1.6523  1.5384
13274TIP3    H261238   4.652   6.825  11.879  1.0967  0.0782  0.1988
13275TIP3   OH261239   3.905   4.879   4.591 -1.0111 -0.3672 -0.8573
13275TIP3    H161240   3.972   4.817   4.623 -0.1447  1.3396  0.8372
13275TIP3    H261241   3.954   4.942   4.539 -0.9873  1.5974  1.3807
13276TIP3   OH261242   1.933   0.161  11.383 -0.6095  0.3565  0.1182
13276TIP3    H161243   1.969   0.248  11.365 -1.1733  0.3786 -0.9835
13276TIP3    H261244   1.936   0.153  11.478  1.4627  0.7027  0.1342
13277TIP3   OH261245   4.968   2.335   1.000  0.5083 -0.0012  0.2466
13277TIP3    H161246   4.969   2.417   0.951  0.7970 -0.0156  0.2258
13277TIP3    H261247   4.965   2.362   1.092  1.0224  0.0419  0.2551
13278TIP3   OH261248   2.561   1.883  13.960 -0.1912  0.7575  0.3297
13278TIP3    H161249   2.648   1.906  13.991 -0.3774  0.9714  0.7052
13278TIP3    H261250   2.569   1.878  13.864  0.1444  1.1523  0.3352
13279TIP3   OH261251   4.359   2.951  12.990 -0.0759 -0.0840 -0.4074
13279TIP3    H161252   4.414   2.934  13.066 -1.7033 -2.6079  0.3218
13279TIP3    H261253   4.270   2.935  13.021 -0.8125 -0.8789 -2.7400
13280TIP3   OH261254   2.792   5.812  15.491  0.2504 -0.0483 -0.1501
13280TIP3    H161255   2.810   5.766  15.573  2.1480  1.1204  0.1466
13280TIP3    H261256   2.787   5.742  15.426  1.7839 -0.8020  0.4913
13281TIP3   OH261257   0.977   3.470  13.889 -0.4012 -0.1381 -0.2429
13281TIP3    H161258   0.902   3.432  13.936 -0.5984 -1.1303 -1.3017
13281TIP3    H261259   1.035   3.395  13.874  0.7839  0.6022  0.4743
13282TIP3   OH261260   6.792   5.591  14.984  0.2022 -0.3707 -0.2991
13282TIP3    H161261   6.736   5.542  14.924  0.0973  1.7842 -2.0826
13282TIP3    H261262   6.732   5.635  15.044  0.3025 -2.4076  1.4438
13283TIP3   OH261263   0.397   4.957  15.148  0.2446  0.2208  0.1617
13283TIP3    H161264   0.352   5.000  15.222  0.0666 -0.2775  0.3490
13283TIP3    H261265   0.377   4.864  15.160  1.4423 -0.0265  0.3264
13284TIP3   OH261266   2.703   5.894   4.668  0.2365  0.4151  0.0033
13284TIP3    H161267   2.717   5.837   4.593 -1.5387 -0.2260  0.1323
13284TIP3    H261268   2.790   5.900   4.709  0.9098 -0.4188 -1.2280
13285TIP3   OH261269   3.667   0.904  11.170 -0.4080  0.1322 -0.1072
13285TIP3    H161270   3.716   0.974  11.128 -1.5329  0.9917 -0.0342
13285TIP3    H261271   3.594   0.887  11.110  0.0149 -1.1995 -0.2731
13286TIP3   OH261272   5.555   6.218   4.083  0.2777 -0.7287 -0.5770
13286TIP3    H161273   5.570   6.134   4.040  0.4194 -0.6608 -0.6583
13286TIP3    H261274   5.484   6.258   4.032  0.2011 -0.8023 -0.5302
13287TIP3   OH261275   1.568   4.402  13.152  0.3447 -0.1195  0.7083
13287TIP3    H161276   1.487   4.395  13.101  0.8835  1.0279 -0.3741
13287TIP3    H261277   1.539   4.421  13.241 -0.5914 -0.6918  0.5457
13288TIP3   OH261278   0.649   3.853  15.529  0.3780  0.4344 -0.5475
13288TIP3    H161279   0.662   3.779  15.470 -0.8280  0.1091 -0.4412
13288TIP3    H261280   0.697   3.925  15.489  0.2389  0.0092 -1.5082
13289TIP3   OH261281   0.790   2.511   3.765 -0.2684  0.2108  0.4238
13289TIP3    H161282   0.747   2.596   3.771 -0.0858  0.2697  0.9798
13289TIP3    H261283   0.720   2.447   3.770 -0.5557  0.3249 -1.3545
13290TIP3   OH261284   6.245   1.901   1.929  0.1540  0.3189 -0.3851
13290TIP3    H161285   6.226   1.994   1.915 -1.5226  0.2662  1.1504
13290TIP3    H261286   6.289   1.898   2.015  1.1881 -0.2332 -0.9131
13291TIP3   OH261287   2.395   2.902   4.095 -0.0371 -0.7835  0.2453
13291TIP3    H161288   2.488   2.885   4.114  0.9446  2.7658 -0.5937
13291TIP3    H261289   2.358   2.927   4.180  0.9233  1.7534  0.0233
13292TIP3   OH261290   3.109   0.881  13.443  0.2665 -0.0209 -0.1072
13292TIP3    H161291   3.166   0.950  13.474 -0.1526  0.0751  0.4568
13292TIP3    H261292   3.066   0.918  13.365 -0.9723  0.8720  0.9586
13293TIP3   OH261293   6.227   2.003   0.147  0.1244  0.0122  0.6432
13293TIP3    H161294   6.313   1.972   0.177  0.8826  1.3243 -0.0803
13293TIP3    H261295   6.226   2.096   0.169 -0.7388  0.2154 -0.1954
13294TIP3   OH261296   0.402   2.972   4.885 -0.3484 -0.1573 -0.0986
13294TIP3    H161297   0.431   3.061   4.908 -1.3734  0.1078  0.2068
13294TIP3    H261298   0.483   2.926   4.861  0.7059 -0.2174  3.1437
13295TIP3   OH261299   2.216   2.460   6.377  0.2729 -0.0600  0.1806
13295TIP3    H161300   2.161   2.428   6.305 -0.1705  0.1176  0.4384
13295TIP3    H261301   2.305   2.433   6.353 -0.0451 -1.1691  0.2234
13296TIP3   OH261302   1.471   4.934  13.157  0.0166  0.0828  0.0503
13296TIP3    H161303   1.401   4.888  13.203  0.0613 -0.6841 -0.6179
13296TIP3    H261304   1.552   4.892  13.186  0.1663  0.6247  0.4305
13297TIP3   OH261305   0.820   1.896   2.926  0.1196  0.7204 -0.0829
13297TIP3    H161306   0.883   1.955   2.967  0.3718  0.2943  0.1486
13297TIP3    H261307   0.815   1.821   2.985 -0.7765  0.8487  0.0202
13298TIP3   OH261308   4.566   5.962  13.322 -0.3744  0.2130 -0.5358
13298TIP3    H161309   4.584   6.055  13.311 -2.0425  0.3534 -2.8255
13298TIP3    H261310   4.633   5.918  13.269  0.1575  0.1157  0.2071
13299TIP3   OH261311   4.268   6.474   1.184 -0.7992 -0.7216  0.5473
13299TIP3    H161312   4.242   6.405   1.244  2.9403 -1.3483  1.7481
13299TIP3    H261313   4.363   6.464   1.177 -0.6653  1.3339 -3.0409
13300TIP3   OH261314   2.723   4.451  13.459 -0.0245  0.1096 -0.2594
13300TIP3    H161315   2.749   4.504  13.535  0.6079 -0.5219 -0.0272
13300TIP3    H261316   2.636   4.419  13.481 -0.6976  1.5696 -0.6848
13301TIP3   OH261317   6.449   4.782  16.099  0.5345 -0.3265  0.1699
13301TIP3    H161318   6.530   4.830  16.118 -1.4062  2.7898  1.1678
13301TIP3    H261319   6.387   4.848  16.070 -2.5240 -2.0947  2.0542
13302TIP3   OH261320   2.229   5.315  13.949  0.2053 -0.5024  0.0034
13302TIP3    H161321   2.257   5.398  13.912  0.2249  0.6009  2.3388
13302TIP3    H261322   2.133   5.316  13.940 -0.1876  1.4353  3.0197
13303TIP3   OH261323   6.504   3.088  16.915 -0.4025 -0.3184  0.1617
13303TIP3    H161324   6.435   3.101  16.980  0.3173 -0.2763  0.9451
13303TIP3    H261325   6.491   3.158  16.851 -1.9912 -1.2053 -0.5500
13304TIP3   OH261326   3.631   4.506   2.035 -0.0726  0.2211 -0.2396
13304TIP3    H161327   3.569   4.578   2.045  0.0161  0.5941 -2.0207
13304TIP3    H261328   3.578   4.431   2.012 -0.1697 -0.3609  1.6674
13305TIP3   OH261329   5.949   2.839  16.967  0.1611 -0.2426  0.4218
13305TIP3    H161330   5.959   2.832  17.062 -0.3899  0.5951  0.5497
13305TIP3    H261331   5.975   2.753  16.934  0.8760 -0.3734  1.2861
13306TIP3   OH261332   5.396   1.911   2.618 -0.3283  0.1592  0.2157
13306TIP3    H161333   5.442   1.936   2.699 -0.9965 -0.3020  0.7510
13306TIP3    H261334   5.451   1.945   2.548  1.2827 -1.0785  0.8107
13307TIP3   OH261335   1.056   2.531   1.130 -0.1553  0.5394  0.0472
13307TIP3    H161336   1.083   2.515   1.040 -1.2787  0.7394 -0.3409
13307TIP3    H261337   0.968   2.569   1.123 -0.1859  0.7420  1.2162
13308TIP3   OH261338   6.410   6.132  15.943 -0.2328 -0.0350  0.4611
13308TIP3    H161339   6.436   6.204  16.000  1.8060 -0.5059  0.2104
13308TIP3    H261340   6.406   6.056  16.000 -1.3066  0.0678  0.5311
13309TIP3   OH261341   4.844   0.049   4.782  0.0787 -0.1218  0.3506
13309TIP3    H161342   4.852   0.036   4.876  0.1956  0.2183  0.3896
13309TIP3    H261343   4.769  -0.005   4.756 -0.9845  1.0530  0.9050
13310TIP3   OH261344   2.646   4.224  14.278  0.1281 -1.0250 -0.3088
13310TIP3    H161345   2.551   4.226  14.266  0.2531 -0.3138 -1.3089
13310TIP3    H261346   2.659   4.229  14.372 -0.8173 -0.1403 -0.2084
13311TIP3   OH261347   4.840   5.324   4.962  0.2530 -0.4425  0.3546
13311TIP3    H161348   4.902   5.296   4.894 -0.8991  0.2283 -1.0120
13311TIP3    H261349   4.855   5.419   4.970 -0.9049 -0.1839 -0.3448
13312TIP3   OH261350   0.648   2.039  11.457 -0.3797  0.0764  0.4660
13312TIP3    H161351   0.725   1.984  11.477  0.9882  1.4548 -0.7426
13312TIP3    H261352   0.683   2.128  11.453 -2.4935  1.0689  2.1476
13313TIP3   OH261353   5.585   5.577   3.322  0.1652 -0.0173 -0.4531
13313TIP3    H161354   5.618   5.639   3.257  1.1468 -0.4365 -0.3667
13313TIP3    H261355   5.499   5.611   3.346 -0.2051  0.1710 -1.9487
13314TIP3   OH261356   0.632   3.571  17.109  0.1008  0.4861  0.0266
13314TIP3    H161357   0.629   3.659  17.146  1.4286  1.3975 -1.8839
13314TIP3    H261358   0.611   3.583  17.016 -1.4417 -1.4724  0.0592
13315TIP3   OH261359   4.619   4.739   4.537  0.2769 -0.0887  0.0547
13315TIP3    H161360   4.563   4.745   4.459  1.3547  1.6698 -0.6535
13315TIP3    H261361   4.684   4.673   4.514 -1.8371 -2.8084  1.2139
13316TIP3   OH261362   3.798   3.124  11.758  0.0087  0.3317 -0.1698
13316TIP3    H161363   3.716   3.115  11.709 -1.0027  2.4432  1.0088
13316TIP3    H261364   3.778   3.092  11.846  0.5587  0.5334  0.0345
13317TIP3   OH261365   5.622   6.517   4.199 -0.6639 -0.4504  0.1234
13317TIP3    H161366   5.577   6.442   4.161 -1.0247  0.4543 -1.3320
13317TIP3    H261367   5.626   6.581   4.128 -1.1619  1.2468  1.5433
13318TIP3   OH261368   1.703   2.193  15.779 -0.6064  0.4376 -0.1955
13318TIP3    H161369   1.776   2.132  15.773 -1.7841 -1.1687  0.9010
13318TIP3    H261370   1.733   2.260  15.841  0.0125 -0.0818  0.0805
13319TIP3   OH261371   6.376   2.531  14.855  0.3382 -0.1019  0.3045
13319TIP3    H161372   6.317   2.598  14.891 -1.1206  1.0867 -3.7289
13319TIP3    H261373   6.452   2.580  14.825 -0.0830 -0.3640 -1.3289
13320TIP3   OH261374   1.263   2.938  13.981  0.0749 -0.2883  0.2548
13320TIP3    H161375   1.184   2.892  14.011 -0.5394  0.8443  0.4481
13320TIP3    H261376   1.229   3.008  13.925  0.8927  0.6167  0.8685
13321TIP3   OH261377   4.264   3.619  14.576 -0.2732 -0.3367  0.2034
13321TIP3    H161378   4.271   3.696  14.519 -0.3846  0.1122  0.7832
13321TIP3    H261379   4.172   3.594  14.571 -0.7477  0.8863  1.6558
13322TIP3   OH261380   0.474   5.509   1.434 -0.3271 -0.1536 -0.0609
13322TIP3    H161381   0.521   5.541   1.511 -0.4871  0.5080 -0.2320
13322TIP3    H261382   0.382   5.523   1.455 -0.3671  0.1014 -0.4023
13323TIP3   OH261383   4.835   2.773   1.041 -0.3220 -0.7750  0.2761
13323TIP3    H161384   4.878   2.722   0.973 -0.6649 -1.4034  0.5194
13323TIP3    H261385   4.901   2.781   1.110  0.1077  0.0694 -0.2148
13324TIP3   OH261386   4.121   2.557   1.651  0.1653 -0.1602  0.5099
13324TIP3    H161387   4.047   2.595   1.604  0.0785 -0.8110  0.1153
13324TIP3    H261388   4.191   2.550   1.586  0.0692 -0.9955  0.4857
13325TIP3   OH261389   4.571   3.215   0.017 -0.1408  0.0761 -0.6043
13325TIP3    H161390   4.493   3.167  -0.007 -1.7182  0.6511  2.7156
13325TIP3    H261391   4.557   3.303  -0.017 -0.7189  0.0293 -0.4965
13326TIP3   OH261392   4.139   6.285   1.639 -0.3840  0.3012 -0.0411
13326TIP3    H161393   4.143   6.238   1.722  2.0573  0.6800  0.1222
13326TIP3    H261394   4.139   6.378   1.664  1.6227  0.4428 -0.4240
13327TIP3   OH261395   3.968   2.666  12.566 -0.1260  0.1910  0.7325
13327TIP3    H161396   4.034   2.625  12.621 -0.8835 -0.5998  1.0733
13327TIP3    H261397   4.017   2.701  12.491  0.8572  0.9039  1.6714
13328TIP3   OH261398   5.062   4.011   3.301  0.2480  0.4201 -0.2622
13328TIP3    H161399   5.016   3.944   3.252  0.4728  0.1186 -0.0656
13328TIP3    H261400   5.067   3.977   3.390  0.0555  0.8539 -0.0788
13329TIP3   OH261401   0.346   3.761  16.809  0.0888 -0.3239  0.3226
13329TIP3    H161402   0.432   3.718  16.811 -0.9689 -2.5870  2.5832
13329TIP3    H261403   0.328   3.784  16.900 -1.2267  1.2335 -0.2817
13330TIP3   OH261404   1.259   0.028   4.396  0.9635  0.0764 -0.0496
13330TIP3    H161405   1.232  -0.031   4.467 -0.6027  2.4965  1.5066
13330TIP3    H261406   1.352   0.042   4.411  1.2029 -1.3459 -0.0089
13331TIP3   OH261407   0.935   1.851  13.357 -0.3335  0.0352  0.1349
13331TIP3    H161408   0.859   1.843  13.300  1.3345 -1.8940 -2.0551
13331TIP3    H261409   0.987   1.922  13.318  1.9146 -2.7391 -2.4443
13332TIP3   OH261410   1.836   0.506  14.159  0.6894  0.5483 -0.8762
13332TIP3    H161411   1.753   0.504  14.207 -0.0345 -0.3732 -2.1193
13332TIP3    H261412   1.850   0.598  14.139 -1.4587  0.5131 -2.9818
13333TIP3   OH261413   0.234   4.481  13.736 -0.3067  0.2675  0.0852
13333TIP3    H161414   0.285   4.513  13.662 -1.1057  0.7973 -0.2532
13333TIP3    H261415   0.231   4.555  13.796  0.7693 -0.3185  0.9096
13334TIP3   OH261416   0.397   3.710  11.731 -0.5260 -0.5982 -0.0925
13334TIP3    H161417   0.457   3.706  11.656 -0.3608 -0.9523  0.0539
13334TIP3    H261418   0.374   3.619  11.748  0.9776 -0.7441  1.4931
13335TIP3   OH261419   1.393   3.887  16.099 -0.1036 -0.6148  0.1988
13335TIP3    H161420   1.471   3.887  16.154 -0.4989 -0.2191  0.7665
13335TIP3    H261421   1.376   3.979  16.080 -0.4249 -0.6998  0.0606
13336TIP3   OH261422   3.135   2.252   4.224 -0.0625  0.0361 -0.0676
13336TIP3    H161423   3.084   2.174   4.249  0.6732  0.1058  1.8526
13336TIP3    H261424   3.072   2.324   4.231 -0.5399 -0.2693 -1.0555
13337TIP3   OH261425   4.360   5.035   0.346 -0.5109 -0.3512 -0.3797
13337TIP3    H161426   4.320   5.117   0.317  3.1065  1.5044 -0.6647
13337TIP3    H261427   4.351   4.977   0.270 -2.8427 -0.1928 -0.2920
13338TIP3   OH261428   1.737   4.919   0.553 -0.1416  1.0320  0.6305
13338TIP3    H161429   1.810   4.857   0.549 -1.1997 -0.1992 -0.3586
13338TIP3    H261430   1.779   5.004   0.566  1.5742  0.5448 -1.1411
13339TIP3   OH261431   6.484   1.112   1.523 -0.1179 -0.1108 -0.0272
13339TIP3    H161432   6.532   1.173   1.468  0.3048  0.4608  0.9488
13339TIP3    H261433   6.442   1.167   1.590  1.8268 -0.9922  2.0540
13340TIP3   OH261434   5.344   5.341   2.100 -0.1292  0.0481 -0.1883
13340TIP3    H161435   5.402   5.416   2.089  1.1668 -0.8513  0.1381
13340TIP3    H261436   5.271   5.357   2.041  0.0045  1.6592  0.0510
13341TIP3   OH261437   1.367   0.102  13.797  0.2107  0.6565 -0.1067
13341TIP3    H161438   1.427   0.032  13.825 -0.5156  0.0627 -0.0057
13341TIP3    H261439   1.384   0.111  13.703 -2.7549 -2.8598 -1.2334
13342TIP3   OH261440   0.512   0.872   0.653  0.1860 -0.0931  0.2347
13342TIP3    H161441   0.594   0.921   0.643  0.7259 -0.7385  1.2787
13342TIP3    H261442   0.450   0.935   0.690  0.3790  0.2437 -0.0084
13343TIP3   OH261443   3.721   5.214   2.410  0.4627 -0.0516  0.2976
13343TIP3    H161444   3.665   5.193   2.336  0.9280 -0.5247  0.0732
13343TIP3    H261445   3.721   5.134   2.463  1.8622 -0.4996 -0.3185
13344TIP3   OH261446   5.173   4.341   5.261 -0.2171 -0.0052  0.2013
13344TIP3    H161447   5.080   4.346   5.283 -0.2723 -0.9243  0.2094
13344TIP3    H261448   5.218   4.354   5.345 -0.3456 -0.0177  0.2718
13345TIP3   OH261449   1.627   1.299  11.511 -0.4082  0.7470 -0.4961
13345TIP3    H161450   1.639   1.393  11.499 -1.6290  1.2034  1.4484
13345TIP3    H261451   1.661   1.281  11.599  1.8662 -1.1058 -1.6136
13346TIP3   OH261452   5.240   2.667  13.573  0.2558 -0.0496  0.0154
13346TIP3    H161453   5.194   2.626  13.647  1.6117 -1.0786  0.3122
13346TIP3    H261454   5.282   2.744  13.611 -1.3914  1.0666 -0.3164
13347TIP3   OH261455   4.364   4.750  10.742 -0.3440 -0.0939  0.1675
13347TIP3    H161456   4.269   4.754  10.730 -0.3154 -0.9253 -0.4928
13347TIP3    H261457   4.385   4.657  10.733  0.4996  0.0449  0.6085
13348TIP3   OH261458   3.949   2.265   5.523 -0.5366 -0.1501  0.0983
13348TIP3    H161459   4.017   2.324   5.556 -0.7786 -0.0847  0.4892
13348TIP3    H261460   3.983   2.177   5.536  0.1111 -0.0961 -1.0979
13349TIP3   OH261461   0.470   5.141  15.979  0.0048 -0.0398  0.2953
13349TIP3    H161462   0.439   5.120  15.891 -2.7749 -3.2871  1.7724
13349TIP3    H261463   0.561   5.111  15.981 -0.3625 -1.3488 -1.0858
13350TIP3   OH261464   1.092   4.607   1.635  0.6353 -0.6228  0.2516
13350TIP3    H161465   1.158   4.656   1.584  1.1012 -0.6614  0.8096
13350TIP3    H261466   1.014   4.663   1.632  0.1358 -1.3322 -1.8276
13351TIP3   OH261467   3.938   1.754   5.031  0.1766 -0.0758  0.3090
13351TIP3    H161468   3.963   1.698   4.957  2.5451 -0.6172  1.4446
13351TIP3    H261469   3.865   1.806   4.997  0.8761 -0.6146 -2.2619
13352TIP3   OH261470   2.606   3.584   2.347 -0.2680  0.0350 -0.1866
13352TIP3    H161471   2.669   3.520   2.313 -2.0194 -0.2354 -3.3301
13352TIP3    H261472   2.530   3.576   2.288 -1.1269  4.0508  0.1141
13353TIP3   OH261473   2.123   0.826   5.840 -0.1504  0.2825 -0.5140
13353TIP3    H161474   2.049   0.798   5.895 -0.9760  1.2025 -1.1174
13353TIP3    H261475   2.194   0.843   5.902  0.1251 -2.1805 -0.0389
13354TIP3   OH261476   6.210   1.691   2.974  0.1378 -0.5367  0.0881
13354TIP3    H161477   6.273   1.659   3.038 -0.3372  0.7830  1.2769
13354TIP3    H261478   6.262   1.716   2.898  0.6596 -2.6270 -0.3073
13355TIP3   OH261479   6.167   0.204   5.860  0.2207 -0.5919  0.4844
13355TIP3    H161480   6.195   0.259   5.933  0.5733 -1.0814  0.7269
13355TIP3    H261481   6.203   0.248   5.783  1.7192 -1.2009  0.7896
13356TIP3   OH261482   2.140   4.479  15.261  0.7754  0.7315 -0.3513
13356TIP3    H161483   2.138   4.569  15.230  3.0682  0.3772 -1.7123
13356TIP3    H261484   2.135   4.426  15.182  1.0031 -0.3146  0.3212
13357TIP3   OH261485   4.915   2.435   4.266  0.3699  0.1393  0.0784
13357TIP3    H161486   4.989   2.402   4.317 -0.4884 -1.4442  0.3840
13357TIP3    H261487   4.854   2.468   4.332 -0.0980 -0.5275 -0.0123
13358TIP3   OH261488   5.703   0.856   5.690  0.5848  0.3487 -0.4387
13358TIP3    H161489   5.613   0.882   5.709  1.4253  1.9823  1.7036
13358TIP3    H261490   5.696   0.764   5.665 -1.4131 -0.6249  2.9982
13359TIP3   OH261491   3.373   1.316  15.416 -0.4296 -0.2065 -0.9802
13359TIP3    H161492   3.458   1.271  15.419  0.0893  0.6219 -2.3053
13359TIP3    H261493   3.395   1.409  15.417 -1.4005  0.0315 -0.1004
13360TIP3   OH261494   0.240   4.324  13.240  0.0446 -0.5918  0.0978
13360TIP3    H161495   0.193   4.314  13.158  1.0283 -1.1779 -0.4129
13360TIP3    H261496   0.216   4.246  13.291 -2.1064  0.6965  1.2097
13361TIP3   OH261497   1.413   5.610   0.866 -0.0939  0.4592 -0.4247
13361TIP3    H161498   1.460   5.539   0.910 -0.0721 -1.6923 -3.6101
13361TIP3    H261499   1.321   5.594   0.888  0.1704  2.4730  2.7742
13362TIP3   OH261500   6.289   5.668  16.361 -0.3158  1.0093  0.4844
13362TIP3    H161501   6.274   5.756  16.396  0.7615  1.1484  0.6279
13362TIP3    H261502   6.244   5.610  16.422  0.6141  1.3304  1.5123
13363TIP3   OH261503   6.665   2.321  12.714 -0.1763  0.3559  0.0399
13363TIP3    H161504   6.715   2.330  12.632  2.2135  0.7905  1.4407
13363TIP3    H261505   6.643   2.410  12.739  2.7573  0.6980  1.8800
13364TIP3   OH261506   2.924   4.344   3.611  0.5509 -0.4337  0.3754
13364TIP3    H161507   2.999   4.286   3.597  1.4471  0.2001  2.1796
13364TIP3    H261508   2.854   4.306   3.558  2.6897  0.2427 -3.2643
13365TIP3   OH261509   1.520   1.702   5.357  0.6630  0.0872  0.3114
13365TIP3    H161510   1.581   1.697   5.284 -0.2882 -1.6677 -0.4341
13365TIP3    H261511   1.477   1.786   5.347  1.1039  0.2073 -0.6864
13366TIP3   OH261512   5.671   0.762  16.685 -0.0747  0.2837  0.1754
13366TIP3    H161513   5.644   0.734  16.598  1.2191  1.0180 -0.5015
13366TIP3    H261514   5.703   0.683  16.727 -0.5548 -0.0463 -0.0818
13367TIP3   OH261515   3.600   2.558  17.123  0.2783  0.2442 -0.2095
13367TIP3    H161516   3.527   2.605  17.083 -0.3900 -1.6032 -1.2797
13367TIP3    H261517   3.678   2.588  17.076  0.3054  2.3629  1.0594
13368TIP3   OH261518   1.897   5.300  10.729 -0.5496 -0.2881 -0.4108
13368TIP3    H161519   1.909   5.342  10.644 -0.1898 -0.2740 -0.3563
13368TIP3    H261520   1.803   5.287  10.737 -1.1749  3.5344  0.9814
13369TIP3   OH261521   5.743   2.022  16.913 -0.3252  0.8172  0.4225
13369TIP3    H161522   5.659   2.039  16.870 -0.2590  0.0995 -0.0123
13369TIP3    H261523   5.721   1.972  16.991 -0.2819  0.3820  0.1585
13370TIP3   OH261524   6.107   2.905  15.197 -0.4194 -0.2170  0.3928
13370TIP3    H161525   6.197   2.873  15.201 -0.1777  0.3696 -0.1523
13370TIP3    H261526   6.081   2.891  15.106 -0.8483 -0.2884  0.5216
13371TIP3   OH261527   3.803   3.460  14.812 -0.0200 -0.5103 -0.1027
13371TIP3    H161528   3.896   3.471  14.829 -0.2684 -0.2734  1.2194
13371TIP3    H261529   3.795   3.369  14.782  0.7166 -0.3116 -0.9318
13372TIP3   OH261530   2.084   3.999   4.033 -0.2462  0.2701 -0.3224
13372TIP3    H161531   2.168   4.009   3.988  0.3493 -1.2141  0.3714
13372TIP3    H261532   2.106   3.999   4.126 -0.9515 -0.4526 -0.1383
13373TIP3   OH261533   1.424   0.473  10.454 -0.0957 -0.2563  0.0220
13373TIP3    H161534   1.388   0.395  10.411  0.3682 -1.1069  1.1271
13373TIP3    H261535   1.352   0.537  10.452 -0.5957 -0.8181 -0.6076
13374TIP3   OH261536   6.293   1.683  17.234  0.0037  0.2192 -0.3991
13374TIP3    H161537   6.272   1.618  17.301 -0.3015  0.5487 -0.1697
13374TIP3    H261538   6.341   1.751  17.281 -3.1278  2.1327  0.2499
13375TIP3   OH261539   1.475   6.399  14.118  0.5323  0.3754  0.3415
13375TIP3    H161540   1.515   6.462  14.178  0.6653 -0.2642  0.9462
13375TIP3    H261541   1.548   6.367  14.065  0.2079  1.9062 -1.0957
13376TIP3   OH261542   0.634   4.270  14.688  0.0856  0.5332  0.0457
13376TIP3    H161543   0.684   4.313  14.757 -1.1863  1.6584  0.3248
13376TIP3    H261544   0.617   4.339  14.624  2.1936 -0.7390 -2.0306
13377TIP3   OH261545   2.709   2.785   5.066 -0.0460  0.0809  0.6761
13377TIP3    H161546   2.649   2.855   5.038  1.2328  1.1411  0.5069
13377TIP3    H261547   2.747   2.753   4.984 -0.6914 -0.9061  0.7460
13378TIP3   OH261548   0.620   2.675   4.546 -0.1143 -0.0734  0.0373
13378TIP3    H161549   0.586   2.687   4.458 -1.9610 -0.2592  0.6683
13378TIP3    H261550   0.688   2.608   4.537 -1.8707 -1.8568 -0.9546
13379TIP3   OH261551   2.606   0.785  12.000  0.1027 -0.1687 -0.0487
13379TIP3    H161552   2.557   0.725  12.057  0.3908  0.4965  0.9309
13379TIP3    H261553   2.539   0.842  11.961 -0.3376 -1.9716 -2.1088
13380TIP3   OH261554   1.564   3.166   0.023  0.0172 -0.2235 -0.0277
13380TIP3    H161555   1.622   3.129  -0.043 -1.5161 -1.9401 -0.4940
13380TIP3    H261556   1.517   3.091   0.059 -1.1459  0.9729  1.0930
13381TIP3   OH261557   2.090   5.914   0.834  0.9403 -0.3027  0.0783
13381TIP3    H161558   2.048   5.829   0.823 -2.4098  0.8376  2.3981
13381TIP3    H261559   2.174   5.894   0.876 -0.0504 -2.4746  1.1842
13382TIP3   OH261560   4.586   5.247   2.290 -0.0206  0.7132 -0.6943
13382TIP3    H161561   4.595   5.235   2.385 -1.5514  1.2589 -0.4500
13382TIP3    H261562   4.516   5.186   2.265 -0.4025  1.3759 -1.2727
13383TIP3   OH261563   2.308   6.667   3.470 -0.5045 -0.4650  0.3411
13383TIP3    H161564   2.311   6.762   3.476 -0.3325 -0.3626 -1.0869
13383TIP3    H261565   2.273   6.639   3.555 -1.3700  0.9097  0.4775
13384TIP3   OH261566   1.667   6.118  15.026  0.4779 -0.5878 -0.1051
13384TIP3    H161567   1.613   6.039  15.016 -2.0655  0.6029  2.5395
13384TIP3    H261568   1.675   6.152  14.938 -1.1620 -2.1198 -0.9308
13385TIP3   OH261569   5.651   3.231   4.410 -0.5931 -0.5826 -0.4181
13385TIP3    H161570   5.709   3.166   4.369 -1.4208 -1.6518  0.0583
13385TIP3    H261571   5.678   3.231   4.502 -1.0194 -0.7359 -0.2909
13386TIP3   OH261572   3.249   3.121  13.429  0.0353  0.4964  0.4737
13386TIP3    H161573   3.201   3.040  13.442  2.4979 -1.3286 -1.0511
13386TIP3    H261574   3.252   3.161  13.516 -0.8799 -1.2407  1.3510
13387TIP3   OH261575   0.482   1.829   5.536 -0.3988 -0.0487 -0.1138
13387TIP3    H161576   0.506   1.740   5.561 -1.2213 -0.0595  0.6746
13387TIP3    H261577   0.481   1.827   5.440 -0.3873 -0.8832 -0.1051
13388TIP3   OH261578   2.015   1.906  14.448  0.3162 -0.4682 -0.3027
13388TIP3    H161579   2.007   1.921  14.542 -0.2050 -1.1520 -0.2293
13388TIP3    H261580   2.079   1.835  14.440  0.7135 -0.0936 -0.4937
13389TIP3   OH261581   6.171   3.921  14.796  0.1020 -0.3523 -0.0555
13389TIP3    H161582   6.223   3.886  14.723 -1.0451  1.4306 -1.8042
13389TIP3    H261583   6.235   3.932  14.867  1.6880 -0.2023 -1.4495
13390TIP3   OH261584   6.242   4.607  11.862 -0.5282 -0.2234 -0.2595
13390TIP3    H161585   6.298   4.551  11.915 -0.0454  1.2654  0.8856
13390TIP3    H261586   6.156   4.603  11.904  0.1728  2.0042  1.5529
13391TIP3   OH261587   4.218   0.001  13.781 -0.5047 -0.0380  0.3596
13391TIP3    H161588   4.296   0.051  13.757 -0.6415  0.4661  0.9529
13391TIP3    H261589   4.246  -0.052  13.856 -0.1840 -1.3322 -0.6410
13392TIP3   OH261590   4.576   6.564   4.087  0.1490 -0.1042 -0.4785
13392TIP3    H161591   4.588   6.483   4.137  0.2896  0.7291  0.9001
13392TIP3    H261592   4.482   6.571   4.075  0.1293 -0.4248 -0.5287
13393TIP3   OH261593   5.799   2.865   5.237 -0.2199  0.4853  0.8227
13393TIP3    H161594   5.723   2.820   5.276 -1.2385  0.0516 -1.4710
13393TIP3    H261595   5.773   2.957   5.235 -0.9434  0.2792 -0.3883
13394TIP3   OH261596   0.753   2.465   2.441 -0.0233  0.0778 -0.0847
13394TIP3    H161597   0.763   2.519   2.363  0.5572 -1.7575 -1.3517
13394TIP3    H261598   0.661   2.477   2.466 -0.5713 -0.2186 -1.7957
13395TIP3   OH261599   4.671   0.421  16.615 -0.1966  0.6977 -0.0262
13395TIP3    H161600   4.726   0.435  16.692 -2.1121 -0.2012  1.6025
13395TIP3    H261601   4.732   0.389  16.548  1.4937  1.2560  1.1716
13396TIP3   OH261602   0.093   3.926  12.872 -0.1984  0.5184 -0.8957
13396TIP3    H161603   0.054   3.880  12.946  0.5623 -0.3449 -1.0089
13396TIP3    H261604   0.186   3.901  12.875  0.4094  2.6587 -0.5024
13397TIP3   OH261605   2.460   0.642   6.048  0.0153  0.1804  0.3702
13397TIP3    H161606   2.515   0.608   6.119  0.3183 -0.9301 -0.3588
13397TIP3    H261607   2.463   0.573   5.981 -1.1806  0.7000 -0.2485
13398TIP3   OH261608   3.728   4.237  13.553 -0.0835  0.2048 -0.7117
13398TIP3    H161609   3.726   4.143  13.570  0.0206  0.3527  0.1464
13398TIP3    H261610   3.648   4.271  13.594 -0.8942  0.3013 -2.2808
13399TIP3   OH261611   3.007   4.379  16.872 -0.3136 -0.1135 -0.8932
13399TIP3    H161612   3.078   4.360  16.933  0.1547 -3.8032 -2.3566
13399TIP3    H261613   2.957   4.448  16.915  1.2876 -0.8718  2.5393
13400TIP3   OH261614   2.385   5.530  11.116 -0.4611  0.0018  0.1677
13400TIP3    H161615   2.322   5.471  11.158 -0.4056 -0.6922 -0.6906
13400TIP3    H261616   2.400   5.491  11.030  0.4626  0.6546  0.0236
13401TIP3   OH261617   0.658   0.020  11.720 -0.4373  0.3509 -0.0841
13401TIP3    H161618   0.740  -0.008  11.760 -0.6699 -0.8064 -0.3872
13401TIP3    H261619   0.590  -0.021  11.773 -0.7678 -0.4096 -1.0598
13402TIP3   OH261620   4.862   3.359  15.062 -0.4986  0.5004 -0.2702
13402TIP3    H161621   4.874   3.358  15.157  1.8263  0.5666 -0.5140
13402TIP3    H261622   4.901   3.442  15.034 -0.6102  0.1973 -1.3588
13403TIP3   OH261623   3.907   2.930   2.551  0.4907  0.2536  0.1729
13403TIP3    H161624   3.852   2.867   2.504  0.4510  0.5396 -0.1745
13403TIP3    H261625   3.850   3.006   2.562  0.0543 -0.2810  1.8751
13404TIP3   OH261626   0.836   4.798   6.268  0.1507  0.2668  0.3534
13404TIP3    H161627   0.883   4.776   6.348  1.2079  1.4959  0.0930
13404TIP3    H261628   0.871   4.738   6.202 -0.1225 -0.1804  0.6088
13405TIP3   OH261629   1.658   4.729  16.772 -0.1102 -0.1755  0.0641
13405TIP3    H161630   1.660   4.638  16.742 -0.6685 -0.7305  1.6202
13405TIP3    H261631   1.601   4.728  16.849  1.0716  1.1953  1.0237
13406TIP3   OH261632   6.361   5.231   5.743 -0.1329 -0.0087 -0.4156
13406TIP3    H161633   6.457   5.233   5.751 -0.1637 -1.0675  0.3584
13406TIP3    H261634   6.340   5.139   5.734 -1.1598  0.1502  0.2805
13407TIP3   OH261635   0.587   5.387  14.276 -0.3097  0.2331 -0.6145
13407TIP3    H161636   0.514   5.418  14.329 -1.4390 -2.5711 -0.3580
13407TIP3    H261637   0.664   5.397  14.332 -1.1067 -0.3174  0.6091
13408TIP3   OH261638   1.228   0.339   1.858 -0.5344 -0.6496  0.1035
13408TIP3    H161639   1.178   0.340   1.776 -1.5394 -0.3686  0.7090
13408TIP3    H261640   1.320   0.345   1.830 -0.7923 -1.7036 -1.0514
13409TIP3   OH261641   0.965   6.763   1.918 -0.0975 -0.6656 -0.2176
13409TIP3    H161642   0.989   6.679   1.878 -0.8915 -0.3908 -1.3420
13409TIP3    H261643   0.908   6.805   1.852 -2.8509 -0.8817  1.8452
13410TIP3   OH261644   2.350   1.280   6.648  0.3210  0.2831  0.7990
13410TIP3    H161645   2.414   1.289   6.578  0.9461  4.2838  1.6588
13410TIP3    H261646   2.265   1.292   6.606  0.5895  1.1187  0.4817
13411TIP3   OH261647   4.346   0.255   5.186 -0.0318 -0.0799  0.1129
13411TIP3    H161648   4.420   0.242   5.245  0.7327  0.5452 -0.6947
13411TIP3    H261649   4.292   0.321   5.228  1.3311  1.5543 -0.6054
13412TIP3   OH261650   6.128   0.683  14.619  0.3429  0.1953 -0.0512
13412TIP3    H161651   6.119   0.729  14.535  0.2871  1.0776  0.4182
13412TIP3    H261652   6.213   0.640  14.614 -1.0445 -2.5729 -1.8574
13413TIP3   OH261653   2.918   3.502  14.029 -0.1243 -0.5020 -0.1888
13413TIP3    H161654   2.865   3.561  14.083 -0.9566 -0.7968 -0.6530
13413TIP3    H261655   3.008   3.519  14.055 -0.4166  0.3478  0.2997
13414TIP3   OH261656   0.225   3.909   6.664 -0.1585  0.2722  0.2158
13414TIP3    H161657   0.140   3.870   6.686 -0.9030  1.0093 -1.2180
13414TIP3    H261658   0.218   4.000   6.692  0.5090  0.1190  0.9140
13415TIP3   OH261659   2.670   0.231  13.361  0.2823  0.0036  0.2271
13415TIP3    H161660   2.741   0.167  13.359 -0.6590 -1.1373  1.1187
13415TIP3    H261661   2.688   0.291  13.289 -0.2060 -2.8288 -2.4528
13416TIP3   OH261662   4.006   5.779  14.021 -0.7529  0.3523 -0.0696
13416TIP3    H161663   4.065   5.819  14.084 -0.9001 -1.2790  1.1642
13416TIP3    H261664   3.919   5.812  14.045 -0.9088 -0.8383  1.1051
13417TIP3   OH261665   3.298   1.056   6.579 -0.1209  0.1303  0.0625
13417TIP3    H161666   3.206   1.071   6.555 -0.1738 -0.5257 -0.1602
13417TIP3    H261667   3.339   1.024   6.499 -0.4509 -2.7245  0.9034
13418TIP3   OH261668   2.314   1.769   4.437  0.3493 -0.2273 -0.6830
13418TIP3    H161669   2.305   1.864   4.440  1.6177 -0.0994  0.8377
13418TIP3    H261670   2.245   1.737   4.495  2.6986  0.1409  2.6583
13419TIP3   OH261671   1.710   1.103  16.298  1.0953  0.2599  0.2419
13419TIP3    H161672   1.687   1.098  16.391  0.3640  1.6028  0.1636
13419TIP3    H261673   1.667   1.184  16.267 -0.7482 -1.3742 -1.8387
13420TIP3   OH261674   0.229   0.834  15.181 -0.3243  0.9442  0.8254
13420TIP3    H161675   0.192   0.906  15.231 -0.3294  1.2729  0.3601
13420TIP3    H261676   0.155   0.795  15.136 -0.6992 -0.7963  2.7972
13421TIP3   OH261677   1.538   5.206   5.604  0.0466 -0.1490 -0.2143
13421TIP3    H161678   1.588   5.135   5.564  0.4013 -0.4336  0.7236
13421TIP3    H261679   1.554   5.198   5.698  0.1545  1.2166 -0.0947
13422TIP3   OH261680   2.018   1.123  16.346 -0.4275  0.1522 -0.4629
13422TIP3    H161681   1.926   1.149  16.344 -0.5920 -0.3117  0.3507
13422TIP3    H261682   2.020   1.035  16.308 -0.7827 -0.9960  1.9212
13423TIP3   OH261683   4.313   6.569   4.960 -0.7038 -0.4864 -0.0591
13423TIP3    H161684   4.347   6.496   5.012  1.2105  0.9176  0.7602
13423TIP3    H261685   4.233   6.596   5.005  1.0469  0.8693  2.3997
13424TIP3   OH261686   1.574   5.114   1.755 -0.0615  0.1946 -0.1130
13424TIP3    H161687   1.520   5.038   1.774  0.2582  0.1016  0.4368
13424TIP3    H261688   1.583   5.114   1.660 -1.3386  0.4271 -0.2565
13425TIP3   OH261689   5.505   0.445  11.618 -0.3977 -0.0469 -0.3446
13425TIP3    H161690   5.559   0.420  11.542 -1.6841 -0.4829 -1.1473
13425TIP3    H261691   5.482   0.536  11.602  0.3044  0.2313  0.1474
13426TIP3   OH261692   5.009   3.773  16.134  0.1686  0.0218  0.3391
13426TIP3    H161693   4.944   3.703  16.138  0.1397  0.1087  2.4969
13426TIP3    H261694   4.958   3.853  16.138  0.3241  0.1173  0.4358
13427TIP3   OH261695   3.942   0.520  16.146  0.2726  0.2361 -0.5271
13427TIP3    H161696   4.022   0.485  16.108 -0.1851 -2.3986  0.7177
13427TIP3    H261697   3.902   0.570  16.075  1.0587 -1.7350 -2.4827
13428TIP3   OH261698   1.232   4.758  16.340 -0.1370  0.2352  0.6634
13428TIP3    H161699   1.261   4.849  16.335  2.3463 -0.5395 -2.1655
13428TIP3    H261700   1.287   4.718  16.408 -0.0982  0.5063  0.7914
13429TIP3   OH261701   2.001   6.546  11.396  0.4039 -0.1067 -0.4773
13429TIP3    H161702   1.997   6.575  11.487  1.4819 -0.0869 -0.4275
13429TIP3    H261703   1.991   6.450  11.401 -0.8402  0.0019 -0.4617
13430TIP3   OH261704   5.017   5.733  14.695  0.2099 -0.0846 -0.2845
13430TIP3    H161705   4.954   5.718  14.765  1.4823 -1.0446  0.6993
13430TIP3    H261706   4.987   5.677  14.623 -1.2521  1.1068 -0.6333
13431TIP3   OH261707   6.632   2.271  15.040  0.2142 -1.1017  0.5284
13431TIP3    H161708   6.602   2.274  14.949 -0.2463  1.6377  0.6803
13431TIP3    H261709   6.728   2.270  15.033  0.1811 -1.3329  0.0160
13432TIP3   OH261710   6.308   0.674   5.758 -0.1319  0.6233 -0.5747
13432TIP3    H161711   6.231   0.639   5.802 -0.6423  1.4542 -0.7679
13432TIP3    H261712   6.324   0.758   5.801  0.7201  0.4221 -0.4816
13433TIP3   OH261713   0.743   2.195  11.165 -0.5552  0.3169  0.1650
13433TIP3    H161714   0.696   2.248  11.101 -0.5493  0.2996  0.1465
13433TIP3    H261715   0.776   2.258  11.229 -0.0749  0.3872 -0.1539
13434TIP3   OH261716   2.121   3.059  11.322  0.6338  0.2415  0.0231
13434TIP3    H161717   2.031   3.076  11.351 -0.6178 -2.9182 -1.5451
13434TIP3    H261718   2.145   3.135  11.271 -1.7789  0.5241 -0.8008
13435TIP3   OH261719   4.579   1.959   3.062 -0.6539  0.9230 -0.2968
13435TIP3    H161720   4.655   2.015   3.045 -0.7703  1.3130  0.3935
13435TIP3    H261721   4.553   1.927   2.976 -0.1283  1.3392 -0.6223
13436TIP3   OH261722   3.762   2.249   5.171  0.3476  0.3472  0.1713
13436TIP3    H161723   3.673   2.241   5.206  1.4144  0.2320  3.1733
13436TIP3    H261724   3.790   2.159   5.158  0.1083  0.3795 -0.6058
13437TIP3   OH261725   1.612   4.848   0.316 -1.2082  0.6419  0.4455
13437TIP3    H161726   1.517   4.852   0.323 -1.1537  0.1300  1.9615
13437TIP3    H261727   1.643   4.856   0.406  0.2121  1.2459 -0.0659
13438TIP3   OH261728   5.786   0.972   2.745 -0.3792 -0.1996 -0.7160
13438TIP3    H161729   5.737   0.998   2.666 -0.4113 -0.1808 -0.6901
13438TIP3    H261730   5.751   1.028   2.814  0.5384  0.6941 -0.9448
13439TIP3   OH261731   6.569   5.913   1.770 -0.0264  0.3180  0.0545
13439TIP3    H161732   6.559   5.818   1.763 -0.1691  0.2556  1.0614
13439TIP3    H261733   6.610   5.928   1.855 -1.9425  1.2680  0.8811
13440TIP3   OH261734   5.053   4.472  12.787  0.1504 -0.2732  0.4724
13440TIP3    H161735   4.985   4.460  12.720  2.2431  0.8716 -2.0448
13440TIP3    H261736   5.033   4.557  12.826  0.7496  0.6640 -1.1482
13441TIP3   OH261737   0.151   5.716  12.935 -0.0968  0.4685 -0.6682
13441TIP3    H161738   0.088   5.760  12.877  0.1782 -1.6316 -2.7223
13441TIP3    H261739   0.179   5.639  12.886  2.4517  0.1402  1.1010
13442TIP3   OH261740   4.202   1.223  10.409 -0.2023  0.0571 -0.1708
13442TIP3    H161741   4.150   1.303  10.415  1.2189  0.9582  0.8298
13442TIP3    H261742   4.165   1.165  10.476 -1.0753 -0.0587 -0.7307
13443TIP3   OH261743   2.945   2.330   1.889  0.0413  0.3350 -0.0465
13443TIP3    H161744   2.931   2.371   1.804  1.3804 -0.6361 -0.7719
13443TIP3    H261745   3.031   2.361   1.917  0.2347 -0.4722  0.2885
13444TIP3   OH261746   0.757   6.242  12.040 -0.8338  0.1616  0.0991
13444TIP3    H161747   0.830   6.304  12.047  1.7227 -2.6381  0.4158
13444TIP3    H261748   0.692   6.274  12.103  1.2002  1.4799  1.6815
13445TIP3   OH261749   6.768   3.866   0.312  1.0770 -0.4213 -0.7157
13445TIP3    H161750   6.849   3.911   0.288 -0.3444  2.2654 -0.9310
13445TIP3    H261751   6.727   3.844   0.228  0.3894  0.6453 -0.6803
13446TIP3   OH261752   4.934   6.495  17.083 -0.1161  0.4259  0.1990
13446TIP3    H161753   4.937   6.400  17.076  2.3173  0.2349  2.4049
13446TIP3    H261754   4.885   6.512  17.164 -1.7203  1.1612 -0.8732
13447TIP3   OH261755   6.317   4.194   6.037 -0.0666  0.0975  0.0547
13447TIP3    H161756   6.298   4.106   6.067 -1.0702  0.4406  0.4643
13447TIP3    H261757   6.376   4.182   5.962 -0.7483 -0.9511 -0.3332
13448TIP3   OH261758   5.178   4.484   0.850 -0.1367  0.7964 -0.1035
13448TIP3    H161759   5.261   4.503   0.893 -1.0279  1.6500  1.3313
13448TIP3    H261760   5.139   4.415   0.903 -0.5328  0.7046 -0.5118
13449TIP3   OH261761   3.452   2.511  11.947  0.2814  0.3701 -0.1883
13449TIP3    H161762   3.367   2.491  11.908  0.8142 -1.5175 -0.4676
13449TIP3    H261763   3.437   2.510  12.041  0.2604 -1.5575 -0.1687
13450TIP3   OH261764   2.281   1.458  13.332 -0.3265 -0.7264 -0.3584
13450TIP3    H161765   2.372   1.441  13.309 -0.8404 -1.0202 -2.3932
13450TIP3    H261766   2.246   1.506  13.257 -1.4135  0.9666  1.1412
13451TIP3   OH261767   1.836   5.306  11.816  0.4039 -0.4304 -0.8391
13451TIP3    H161768   1.765   5.273  11.760  0.0085  0.2781 -0.7629
13451TIP3    H261769   1.916   5.289  11.766  0.1519 -0.8643 -1.1040
13452TIP3   OH261770   3.643   2.223  14.370 -0.0140  0.4858 -0.1629
13452TIP3    H161771   3.596   2.177  14.301  1.3697 -1.5822  0.1997
13452TIP3    H261772   3.638   2.316  14.345 -0.0722 -0.1350 -2.6983
13453TIP3   OH261773   4.527   2.606   2.276  0.1746  0.5776 -0.5676
13453TIP3    H161774   4.473   2.675   2.315  0.5525  1.4803 -1.6002
13453TIP3    H261775   4.590   2.653   2.221  0.2928 -0.6051 -1.4780
13454TIP3   OH261776   3.590   2.262  11.062 -0.3924 -0.5369 -0.1019
13454TIP3    H161777   3.613   2.355  11.055  2.8865 -1.0727  1.4071
13454TIP3    H261778   3.533   2.257  11.138 -0.6719  0.2229 -0.2441
13455TIP3   OH261779   2.569   2.240  15.437 -0.1647  0.5875  0.2413
13455TIP3    H161780   2.519   2.300  15.381  1.8221  1.4500 -0.7075
13455TIP3    H261781   2.526   2.246  15.522 -1.3514  1.6536 -0.3904
13456TIP3   OH261782   4.220   0.582   2.214  0.0151 -0.6999 -0.2747
13456TIP3    H161783   4.137   0.578   2.261 -0.7664 -1.1254 -1.6225
13456TIP3    H261784   4.199   0.630   2.133  1.5306  0.8905  0.2093
13457TIP3   OH261785   2.957   2.745  16.548 -0.3175  0.2337  0.7100
13457TIP3    H161786   2.938   2.654  16.569 -1.5425  0.6289  1.4180
13457TIP3    H261787   3.040   2.742  16.500 -0.7406 -1.3134  0.0180
13458TIP3   OH261788   1.633   2.406   1.405 -0.0117 -0.4230 -0.3532
13458TIP3    H161789   1.700   2.350   1.447  2.4381  1.3228 -1.6726
13458TIP3    H261790   1.608   2.468   1.473  2.5073  1.1706 -0.7219
13459TIP3   OH261791   6.287   2.583  13.826 -0.4819 -0.1057 -0.2572
13459TIP3    H161792   6.356   2.570  13.892  0.1354  0.8334 -0.6953
13459TIP3    H261793   6.236   2.502  13.828 -1.5185  0.4881  2.5646
13460TIP3   OH261794   1.151   6.478   1.050  0.6478 -0.0404  0.2877
13460TIP3    H161795   1.171   6.418   0.979 -2.6604 -1.4281  0.3430
13460TIP3    H261796   1.068   6.518   1.025 -0.4087 -0.2190  3.0835
13461TIP3   OH261797   5.653   1.126  13.143 -0.4747 -0.1122 -0.9206
13461TIP3    H161798   5.723   1.089  13.196 -0.9067 -1.0747 -0.9963
13461TIP3    H261799   5.577   1.130  13.202 -0.6859 -0.2269 -1.1836
13462TIP3   OH261800   1.774   6.465   2.313 -0.0719 -0.7411  0.2223
13462TIP3    H161801   1.826   6.436   2.388 -1.4687 -0.2836  1.4290
13462TIP3    H261802   1.765   6.387   2.259 -0.5833 -1.6110  1.4984
13463TIP3   OH261803   1.389   4.507  12.063  0.1641 -0.1320  0.6224
13463TIP3    H161804   1.361   4.506  12.154  2.5982 -1.1404  1.4507
13463TIP3    H261805   1.458   4.574  12.060 -0.2233  0.2339 -0.6007
13464TIP3   OH261806   1.479   5.358   3.823 -0.0767 -0.6955  0.1248
13464TIP3    H161807   1.409   5.293   3.833 -0.1376 -0.7739 -0.7468
13464TIP3    H261808   1.556   5.307   3.798  0.1330 -0.5373  0.4430
13465TIP3   OH261809   5.284   0.190  12.022  0.2934 -0.6219 -0.0076
13465TIP3    H161810   5.294   0.256  11.953 -0.5766 -0.4844 -0.0171
13465TIP3    H261811   5.367   0.143  12.023  0.0749 -1.0979 -1.6438
13466TIP3   OH261812   1.790   3.556  16.881 -0.2478  0.0678  0.3566
13466TIP3    H161813   1.695   3.548  16.883 -0.3384  0.2541 -1.6042
13466TIP3    H261814   1.819   3.523  16.966 -1.8866 -2.7098 -0.0289
13467TIP3   OH261815   4.378   5.084  14.395 -0.0295 -0.6438 -0.1495
13467TIP3    H161816   4.351   4.995  14.417 -4.7172  0.6913  0.5105
13467TIP3    H261817   4.369   5.133  14.477  5.3200  0.1598  0.3136
13468TIP3   OH261818   0.509   0.902   5.653 -0.2103 -0.1783  0.3345
13468TIP3    H161819   0.546   0.983   5.689 -1.5072  0.7184 -0.2655
13468TIP3    H261820   0.445   0.932   5.588 -0.1390 -1.7052 -0.4867
13469TIP3   OH261821   3.926   0.560  13.477  0.5029 -0.3844  0.1354
13469TIP3    H161822   3.875   0.630  13.436  0.5763 -1.6129 -2.2486
13469TIP3    H261823   3.866   0.485  13.479  0.0639 -0.0979  3.6309
13470TIP3   OH261824   6.096   2.322   4.151 -0.0650  0.5239 -0.2798
13470TIP3    H161825   6.147   2.243   4.133 -0.1931  0.1311  0.9529
13470TIP3    H261826   6.012   2.307   4.107 -0.2971 -0.2962  0.4099
13471TIP3   OH261827   6.034   4.255  12.028  0.5350 -0.1070 -0.4635
13471TIP3    H161828   6.001   4.185  11.971 -0.0567  0.7985 -1.2540
13471TIP3    H261829   5.985   4.333  12.002 -1.1839 -0.0030  2.5704
13472TIP3   OH261830   4.338   1.326   6.326 -0.1739 -0.5822 -0.2453
13472TIP3    H161831   4.268   1.392   6.329  0.2804  0.0104 -1.7788
13472TIP3    H261832   4.326   1.283   6.241  0.4331 -1.4931  0.1162
13473TIP3   OH261833   2.325   1.890  12.985 -0.5010 -0.2864  0.0109
13473TIP3    H161834   2.376   1.969  13.002 -1.8252  0.5740  0.1046
13473TIP3    H261835   2.325   1.881  12.890 -1.1585  0.4055 -0.0672
13474TIP3   OH261836   0.322   0.327   3.173  0.1000 -0.3019 -0.0252
13474TIP3    H161837   0.338   0.371   3.256  3.0228  0.1729 -0.7222
13474TIP3    H261838   0.365   0.382   3.108  0.6617 -2.2747 -1.4206
13475TIP3   OH261839   4.978   5.564   2.966 -0.2041  0.2100  0.2777
13475TIP3    H161840   4.944   5.476   2.953 -0.3467  0.0904  1.3715
13475TIP3    H261841   4.925   5.620   2.909 -0.1520 -0.3936 -0.3695
13476TIP3   OH261842   1.467   0.725   2.694 -0.6320  0.3412  0.3373
13476TIP3    H161843   1.550   0.727   2.742 -0.6165  0.3631  0.3096
13476TIP3    H261844   1.406   0.776   2.747 -0.3246  1.2983 -0.2069
13477TIP3   OH261845   4.932   4.642   5.224 -0.5434 -0.5687  0.4398
13477TIP3    H161846   4.929   4.591   5.305 -1.0319 -0.8478  0.2543
13477TIP3    H261847   4.902   4.580   5.157 -0.3024 -0.2899  0.0746
13478TIP3   OH261848   4.597   1.308  13.492  0.5693  0.7125  0.3712
13478TIP3    H161849   4.521   1.353  13.455 -1.0700 -1.6940  0.5197
13478TIP3    H261850   4.566   1.218  13.505  3.6145 -0.4944  0.0246
13479TIP3   OH261851   1.039   1.521   5.475  0.6748 -0.2153  0.2002
13479TIP3    H161852   1.012   1.506   5.565  0.2924 -4.0017 -0.3669
13479TIP3    H261853   1.023   1.614   5.460 -1.1065  0.1355  3.4167
13480TIP3   OH261854   4.598   6.139  15.368 -0.1534  0.2573  0.0204
13480TIP3    H161855   4.674   6.189  15.338 -1.2318  1.8825 -0.1521
13480TIP3    H261856   4.570   6.090  15.291  0.4020  0.0348 -0.0499
13481TIP3   OH261857   2.628   2.158  12.530  0.3505 -0.0726 -0.1112
13481TIP3    H161858   2.681   2.146  12.451  1.4857 -0.8809  0.7339
13481TIP3    H261859   2.585   2.073  12.543  0.3437 -0.0139  0.2607
13482TIP3   OH261860   6.658   6.026  12.974 -0.4316 -0.1056 -0.3539
13482TIP3    H161861   6.736   6.077  12.949  0.8129 -2.1409 -0.8315
13482TIP3    H261862   6.611   6.084  13.034 -0.1337  2.3681 -2.3202
13483TIP3   OH261863   4.892   0.493  15.171 -0.0888 -0.1016  0.2857
13483TIP3    H161864   4.820   0.510  15.110 -0.6149 -0.4141  0.8097
13483TIP3    H261865   4.970   0.522  15.124 -0.4396 -0.6890 -0.6845
13484TIP3   OH261866   4.897   3.422   6.434  0.0080 -0.2764 -0.3333
13484TIP3    H161867   4.803   3.407   6.450 -0.3530  2.2834  0.2956
13484TIP3    H261868   4.925   3.477   6.507  1.5463  0.6064 -1.5312
13485TIP3   OH261869   6.119   4.217   4.544  0.0702  0.5515  0.0929
13485TIP3    H161870   6.078   4.176   4.468  0.6165 -0.4329  0.3024
13485TIP3    H261871   6.195   4.263   4.509  0.0621  0.4800 -0.0176
13486TIP3   OH261872   6.279   1.749  12.206 -0.6389  0.2263 -0.0949
13486TIP3    H161873   6.262   1.761  12.300  2.2686  1.8798  0.3466
13486TIP3    H261874   6.374   1.750  12.199 -0.7316 -1.3041 -2.9626
13487TIP3   OH261875   0.016   1.368   1.986  0.2443 -0.1653  0.2471
13487TIP3    H161876  -0.018   1.379   1.897 -0.6004  0.2433  0.6135
13487TIP3    H261877   0.009   1.455   2.026 -0.2002 -0.5385  0.9960
13488TIP3   OH261878   3.308   3.929  12.974  0.2222  0.8373  0.1468
13488TIP3    H161879   3.373   3.926  13.044  1.8890  1.2172 -1.3312
13488TIP3    H261880   3.295   4.023  12.958  1.1037  0.7613 -1.1340
13489TIP3   OH261881   2.846   0.567   0.525  0.3034  0.0048 -0.5236
13489TIP3    H161882   2.917   0.559   0.589  1.3454 -0.0356 -1.6402
13489TIP3    H261883   2.882   0.528   0.445 -1.7299 -1.9148 -0.5834
13490TIP3   OH261884   0.413   1.612   1.085  0.0044  0.2212 -0.2635
13490TIP3    H161885   0.396   1.535   1.030  0.6011  0.6931 -1.1361
13490TIP3    H261886   0.349   1.606   1.155  1.1000 -1.9622  0.6246
13491TIP3   OH261887   4.184   2.357   0.209 -0.3879 -0.4663 -0.0045
13491TIP3    H161888   4.271   2.335   0.241 -0.7081  0.4793  1.6248
13491TIP3    H261889   4.176   2.452   0.223 -1.6089 -0.5065 -0.2617
13492TIP3   OH261890   3.107   3.325  14.951 -0.0047  0.0407 -0.5685
13492TIP3    H161891   3.017   3.359  14.943  0.1615  0.7344  0.3737
13492TIP3    H261892   3.161   3.396  14.915  0.3029  0.5563  0.8484
13493TIP3   OH261893   1.025   5.739   5.211 -0.0340 -0.2453  0.3660
13493TIP3    H161894   0.944   5.765   5.256 -0.7444 -0.2664 -0.8553
13493TIP3    H261895   1.034   5.646   5.231 -0.4745 -0.3121  0.2695
13494TIP3   OH261896   3.048   2.930  15.725 -0.3761  0.0638  0.3326
13494TIP3    H161897   3.084   2.843  15.740 -2.1784 -0.7255  0.4109
13494TIP3    H261898   3.040   2.968  15.813  1.8386  0.9886  0.2058
13495TIP3   OH261899   2.082   0.832  16.933  0.3166  0.1808  0.3083
13495TIP3    H161900   2.127   0.837  17.017  0.7486 -0.6247  0.1423
13495TIP3    H261901   2.028   0.910  16.929  0.6575  0.4633  1.1271
13496TIP3   OH261902   2.582   0.342   0.106  0.7172 -0.1740  0.4644
13496TIP3    H161903   2.527   0.267   0.083 -1.3276  0.8692  1.6526
13496TIP3    H261904   2.613   0.376   0.023 -1.5238 -0.0564 -0.3856
13497TIP3   OH261905   6.595   3.254  11.971  0.0181 -0.2895  0.7675
13497TIP3    H161906   6.554   3.231  12.055  0.2000 -0.5689  0.7802
13497TIP3    H261907   6.689   3.245  11.987  0.0168 -1.4197  0.2271
13498TIP3   OH261908   4.032   4.109   1.420  0.6005 -0.2653 -0.4247
13498TIP3    H161909   4.098   4.120   1.352  1.8029  1.6093  0.9356
13498TIP3    H261910   3.961   4.168   1.394  0.6787 -0.2119 -0.5207
13499TIP3   OH261911   0.366   0.419  13.005 -0.4912  0.5379  0.2011
13499TIP3    H161912   0.371   0.410  13.100  2.1412 -1.3013 -0.0240
13499TIP3    H261913   0.385   0.332  12.971 -0.2899  1.3820 -2.0209
13500TIP3   OH261914   5.919   3.818  13.563  0.1728  0.1820  0.1115
13500TIP3    H161915   5.933   3.800  13.470 -0.2450  1.1564 -0.1619
13500TIP3    H261916   6.007   3.820  13.600  0.3438 -0.2187 -0.2644
13501TIP3   OH261917   0.838   2.096   3.177  0.4896 -0.4162  0.3916
13501TIP3    H161918   0.914   2.050   3.215  0.2025 -1.6134 -0.4197
13501TIP3    H261919   0.776   2.102   3.249  1.0538 -0.0953  0.8666
13502TIP3   OH261920   2.467   6.526   2.137 -0.0580 -0.7698 -0.3048
13502TIP3    H161921   2.433   6.526   2.048 -2.4472  0.7652  0.5002
13502TIP3    H261922   2.540   6.588   2.134  0.0156 -0.8828 -1.2154
13503TIP3   OH261923   4.205   5.410   0.882 -0.4585 -0.6624 -0.2219
13503TIP3    H161924   4.119   5.446   0.861  0.0879  0.4772 -0.6003
13503TIP3    H261925   4.267   5.479   0.858  0.7145 -2.1314 -1.7052
13504TIP3   OH261926   0.312   0.788   2.198  0.7877 -0.0902 -0.1474
13504TIP3    H161927   0.274   0.724   2.257 -0.7126 -1.0171 -2.0188
13504TIP3    H261928   0.405   0.765   2.194  0.9882  0.1383  1.9285
13505TIP3   OH261929   3.666   6.368  11.937  0.5189  0.2923  0.0739
13505TIP3    H161930   3.743   6.395  11.986  0.0807  1.0546  0.3554
13505TIP3    H261931   3.632   6.450  11.899  0.1824 -0.1178 -0.5231
13506TIP3   OH261932   5.288   0.082  13.340  0.1459  0.9217 -0.3617
13506TIP3    H161933   5.359   0.048  13.394 -2.0961  0.2113  2.3512
13506TIP3    H261934   5.221   0.014  13.343 -0.2172  0.8901 -4.0844
13507TIP3   OH261935   5.103   6.133   4.253  0.4476 -0.1927  0.0838
13507TIP3    H161936   5.151   6.068   4.201 -0.9431 -1.0973 -0.1256
13507TIP3    H261937   5.016   6.095   4.263 -0.7285  2.0963 -0.8888
13508TIP3   OH261938   1.704   3.009  13.853  0.0246  0.1131  0.1412
13508TIP3    H161939   1.670   3.052  13.932  1.0874  0.9997  0.1406
13508TIP3    H261940   1.663   2.922  13.854 -1.7941  0.9115  0.4292
13509TIP3   OH261941   0.304   2.543  14.128  0.2348 -0.3759 -0.0074
13509TIP3    H161942   0.319   2.633  14.098  0.2356 -0.7576 -1.2062
13509TIP3    H261943   0.273   2.553  14.218  0.4947  0.8068 -0.0258
13510TIP3   OH261944   1.260   3.108  14.249  0.2668 -0.3174  0.1280
13510TIP3    H161945   1.173   3.138  14.222  1.2908  1.9598 -0.9140
13510TIP3    H261946   1.285   3.045  14.182 -1.7751 -3.5904  2.1555
13511TIP3   OH261947   0.545   3.080   0.672 -0.2749  0.0554 -0.2138
13511TIP3    H161948   0.517   3.170   0.657  1.8954  0.8749  0.2375
13511TIP3    H261949   0.627   3.072   0.622 -0.3322 -1.6322 -0.1107
13512TIP3   OH261950   6.167   2.848  13.927  0.0872 -0.4796 -0.1085
13512TIP3    H161951   6.169   2.763  13.884  2.4768 -0.4086 -0.2421
13512TIP3    H261952   6.145   2.910  13.858  2.0951 -0.5885 -0.9152
13513TIP3   OH261953   2.152   5.262   5.621 -0.1967  0.0443  0.2436
13513TIP3    H161954   2.186   5.203   5.554 -0.8215 -0.4980  0.3854
13513TIP3    H261955   2.060   5.236   5.630  0.5718 -2.2831  3.7187
13514TIP3   OH261956   6.233   1.507  10.869  0.7409  0.0937 -0.5751
13514TIP3    H161957   6.312   1.460  10.841  0.4727  0.0206 -1.2331
13514TIP3    H261958   6.164   1.473  10.813  0.2650  0.2648 -0.1029
13515TIP3   OH261959   5.787   0.180   4.354  0.6782 -0.2778 -0.3401
13515TIP3    H161960   5.825   0.225   4.279 -0.5537  1.5869  0.0699
13515TIP3    H261961   5.712   0.234   4.378  0.8417 -0.9961  2.0344
13516TIP3   OH261962   3.849   1.060  12.703  0.3199  0.8325  0.0613
13516TIP3    H161963   3.823   1.023  12.619  0.3998  0.2315  0.2891
13516TIP3    H261964   3.775   1.114  12.730 -0.6418 -0.6732  0.5937
13517TIP3   OH261965   1.324   1.598   3.288  0.0504  0.4527 -0.6895
13517TIP3    H161966   1.369   1.607   3.372 -0.3535  0.8923 -0.5124
13517TIP3    H261967   1.364   1.521   3.248 -0.0020  0.0225  0.0586
13518TIP3   OH261968   5.377   6.650  14.987 -0.8903 -0.3431  0.6446
13518TIP3    H161969   5.392   6.630  14.894 -0.8744 -1.0398  0.7890
13518TIP3    H261970   5.366   6.745  14.990 -0.6314 -0.2863 -0.0363
13519TIP3   OH261971   4.666   0.460   1.779  0.2345  0.0445 -0.6009
13519TIP3    H161972   4.672   0.373   1.819  0.0778  0.6052  0.6801
13519TIP3    H261973   4.616   0.446   1.698  0.4289 -1.0923 -0.5354
13520TIP3   OH261974   2.727   3.889   4.510  0.3649  0.3637  0.4601
13520TIP3    H161975   2.756   3.926   4.427 -0.0063 -2.8612 -1.2647
13520TIP3    H261976   2.726   3.964   4.570  4.5433  2.1317 -1.2835
13521TIP3   OH261977   1.060   3.125   5.812  0.2739 -0.4881 -0.1326
13521TIP3    H161978   0.967   3.111   5.795 -0.6172  2.4354  1.5928
13521TIP3    H261979   1.092   3.172   5.735  0.3974 -1.5387 -0.7486
13522TIP3   OH261980   4.872   6.626  11.828  0.4891 -0.1063  0.0401
13522TIP3    H161981   4.908   6.621  11.917  1.2372  0.7651 -0.2067
13522TIP3    H261982   4.874   6.536  11.797 -0.0917 -0.4840  1.0138
13523TIP3   OH261983   5.336   6.214  12.541 -0.1601  0.6116  0.4097
13523TIP3    H161984   5.298   6.180  12.622  0.0813 -1.3088 -0.2289
13523TIP3    H261985   5.415   6.162  12.529 -1.1123 -0.4185 -1.9684
13524TIP3   OH261986   0.650   0.025   5.920  0.7263 -0.2042 -0.2192
13524TIP3    H161987   0.712  -0.016   5.860  2.1280 -0.2900  1.2408
13524TIP3    H261988   0.596  -0.048   5.951  0.9461 -0.3882 -0.2642
13525TIP3   OH261989   2.135   6.014  14.715 -0.2672 -0.0627 -0.8766
13525TIP3    H161990   2.043   5.999  14.693 -0.3582 -1.4861  0.3665
13525TIP3    H261991   2.169   6.064  14.641 -2.2523  1.3154 -0.9456
13526TIP3   OH261992   4.776   0.171   1.644  0.3825 -0.5330  0.4900
13526TIP3    H161993   4.693   0.143   1.606 -0.3350  0.6776  1.1195
13526TIP3    H261994   4.763   0.165   1.739  0.8999  0.0019  0.6031
13527TIP3   OH261995   0.311   0.925   5.455  0.3673  0.0827 -0.2267
13527TIP3    H161996   0.300   1.013   5.418  2.5639  0.7313  0.4805
13527TIP3    H261997   0.223   0.890   5.462 -0.4643  1.7337 -1.7191
13528TIP3   OH261998   4.729   1.432   0.147 -0.1009 -0.5371 -0.5712
13528TIP3    H161999   4.745   1.488   0.071  0.5394  1.5082  0.9767
13528TIP3    H262000   4.816   1.405   0.177  0.0197  1.8957  1.6351
13529TIP3   OH262001   3.847   0.425  14.807 -0.3463 -0.8700  0.0877
13529TIP3    H162002   3.825   0.496  14.866 -0.3104  0.3520 -1.3079
13529TIP3    H262003   3.773   0.421  14.746  0.6933 -0.4298 -1.2654
13530TIP3   OH262004   3.615   4.706  14.616 -0.1293 -0.3650 -0.7294
13530TIP3    H162005   3.539   4.756  14.587  0.8476  0.6900 -1.5356
13530TIP3    H262006   3.688   4.739  14.564  1.4986  0.7123  2.0006
13531TIP3   OH262007   3.534   0.002  14.615 -0.4001 -0.2634 -0.4263
13531TIP3    H162008   3.604   0.066  14.628  1.4078 -2.2014 -0.1145
13531TIP3    H262009   3.496   0.025  14.530  1.6876 -0.0916 -1.3622
13532TIP3   OH262010   6.540   3.738  13.313 -0.4896  0.0884  0.0668
13532TIP3    H162011   6.499   3.696  13.388 -0.0311  0.2164  0.3951
13532TIP3    H262012   6.478   3.724  13.241 -1.3136  0.6699  0.6460
13533TIP3   OH262013   2.542   5.270   3.130 -0.4951  0.2327 -0.5312
13533TIP3    H162014   2.559   5.308   3.044 -2.4630  0.3688 -0.9073
13533TIP3    H262015   2.473   5.325   3.167 -0.2841 -0.3557  0.7649
13534TIP3   OH262016   4.524   5.009   5.400 -0.3846 -0.0403 -0.4371
13534TIP3    H162017   4.545   5.101   5.417 -1.1598  0.1383 -0.4125
13534TIP3    H262018   4.510   4.971   5.487  2.6183 -0.8829 -0.2177
13535TIP3   OH262019   0.263   6.143   1.597 -0.1225  0.0117  0.6502
13535TIP3    H162020   0.299   6.059   1.570 -0.2385  0.4503 -0.9722
13535TIP3    H262021   0.182   6.122   1.643  0.4002 -0.7992  1.2174
13536TIP3   OH262022   2.701   5.657   4.888 -0.3800 -0.1168  0.5309
13536TIP3    H162023   2.625   5.704   4.924 -1.2644 -1.2231  0.1722
13536TIP3    H262024   2.682   5.565   4.904  0.5352 -0.4602 -0.2673
13537TIP3   OH262025   2.654   5.982  11.431  0.0192  0.4086  0.2359
13537TIP3    H162026   2.642   5.894  11.466  2.7133 -0.9061 -1.7486
13537TIP3    H262027   2.565   6.015  11.419 -1.0798 -1.9396  1.2687
13538TIP3   OH262028   5.233   3.963  12.766 -0.6271 -0.7481 -0.3596
13538TIP3    H162029   5.212   4.036  12.824  0.2183 -0.2146 -0.7066
13538TIP3    H262030   5.169   3.969  12.695 -0.6326 -0.4136 -0.3264
13539TIP3   OH262031   0.076   1.395  11.404 -0.0661  0.5072 -0.0183
13539TIP3    H162032   0.026   1.323  11.367  0.1950 -0.1399  0.8438
13539TIP3    H262033   0.021   1.472  11.389 -1.4103 -0.2038  1.0103
13540TIP3   OH262034   3.255   1.097  11.422  0.1223  0.0764 -0.7000
13540TIP3    H162035   3.343   1.063  11.408  0.8412  1.5848 -0.0614
13540TIP3    H262036   3.224   1.121  11.335  0.8561  0.7076 -0.7969
13541TIP3   OH262037   1.566   1.891   0.904 -0.0751 -0.2462 -0.0764
13541TIP3    H162038   1.658   1.893   0.878  0.6368  0.5899  2.2635
13541TIP3    H262039   1.526   1.964   0.858  0.2088 -1.0530 -1.6892
13542TIP3   OH262040   3.773   3.157   5.339 -0.0872  0.0388  0.0022
13542TIP3    H162041   3.866   3.162   5.316  0.1744 -0.7827  0.7791
13542TIP3    H262042   3.773   3.118   5.427 -1.1361  0.7299  0.3226
13543TIP3   OH262043   1.105   2.144   1.771  0.5713  0.4164 -0.8453
13543TIP3    H162044   1.159   2.193   1.709  1.1018 -0.3330 -0.9861
13543TIP3    H262045   1.091   2.205   1.843 -1.3795  1.8799 -2.3559
13544TIP3   OH262046   4.277   5.053   1.965 -0.1559 -0.5810 -0.0537
13544TIP3    H162047   4.224   5.073   1.888  2.0703  0.6437 -1.3742
13544TIP3    H262048   4.286   5.137   2.011 -1.6039 -1.3266  1.7433
13545TIP3   OH262049   0.392   6.692  15.929  0.4369  0.1660  0.3359
13545TIP3    H162050   0.388   6.633  15.854  2.1205 -2.3192  2.0283
13545TIP3    H262051   0.482   6.725  15.930  0.3121  0.5097  1.0015
13546TIP3   OH262052   4.327   2.524   1.494 -0.0550  0.3867 -0.2781
13546TIP3    H162053   4.348   2.477   1.413 -0.3151 -0.7609  0.2888
13546TIP3    H262054   4.391   2.595   1.499  1.8260 -1.2217 -0.0775
13547TIP3   OH262055   3.810   2.120   6.211 -0.6088  0.0029 -0.5033
13547TIP3    H162056   3.779   2.085   6.295 -2.1669  0.8024 -0.7068
13547TIP3    H262057   3.847   2.044   6.166  0.3671 -0.4173  0.9351
13548TIP3   OH262058   5.879   1.984   5.111  0.1906 -0.6139 -0.2173
13548TIP3    H162059   5.862   2.072   5.144 -0.0030 -0.3382 -1.0317
13548TIP3    H262060   5.921   1.998   5.026 -2.5663 -1.2353 -1.8212
13549TIP3   OH262061   4.461   3.195  16.769  0.0376  0.0963 -0.0462
13549TIP3    H162062   4.552   3.222  16.763  0.1651 -0.4623 -0.7820
13549TIP3    H262063   4.431   3.190  16.678 -0.2454 -1.2762  0.0901
13550TIP3   OH262064   6.319   5.539  15.018 -0.0620  0.0459  0.6946
13550TIP3    H162065   6.387   5.471  15.015 -1.3428 -1.2681  0.5005
13550TIP3    H262066   6.321   5.570  15.108  1.2538  0.5410  0.5276
13551TIP3   OH262067   0.464   0.073   5.001 -0.1139  0.2422  0.1298
13551TIP3    H162068   0.409   0.003   4.966  0.8703 -0.3603 -0.2537
13551TIP3    H262069   0.508   0.109   4.924 -0.2814  0.9978  0.3831
13552TIP3   OH262070   0.859   0.023   4.802 -0.3237 -0.6755  0.7342
13552TIP3    H162071   0.849   0.103   4.749  0.7158 -1.9309 -1.5012
13552TIP3    H262072   0.943   0.035   4.847  0.7322 -1.2081 -1.0105
13553TIP3   OH262073   6.730   0.364  13.813  0.0120 -0.0085 -0.2429
13553TIP3    H162074   6.801   0.427  13.805 -0.0264  0.1228  0.3786
13553TIP3    H262075   6.764   0.284  13.773 -0.1116  0.5257 -1.4600
13554TIP3   OH262076   3.122   1.613  13.563 -0.6403 -0.5523 -0.0302
13554TIP3    H162077   3.200   1.597  13.615  0.1614 -0.8779 -1.2847
13554TIP3    H262078   3.102   1.705  13.576 -0.0205 -0.4601  0.2771
13555TIP3   OH262079   4.363   2.408   6.462  0.1861 -0.2270  0.2727
13555TIP3    H162080   4.400   2.496   6.470 -0.2997  0.1366 -1.1039
13555TIP3    H262081   4.275   2.422   6.427  0.2788 -1.2780 -0.4340
13556TIP3   OH262082   2.496   6.776   3.181 -0.0545  0.3404  0.2217
13556TIP3    H162083   2.493   6.856   3.234 -2.0220 -1.8010  3.7647
13556TIP3    H262084   2.576   6.731   3.211 -1.2998 -0.9906  1.7761
13557TIP3   OH262085   2.591   4.549  15.559 -0.1410 -0.6421 -0.4271
13557TIP3    H162086   2.524   4.503  15.608 -0.3209  0.2811  0.2333
13557TIP3    H262087   2.544   4.619  15.513  0.1485 -0.9711 -1.2306
13558TIP3   OH262088   3.850   5.637  11.705 -0.2268  0.1420 -0.2891
13558TIP3    H162089   3.781   5.703  11.694 -1.2146 -1.2082 -3.4549
13558TIP3    H262090   3.931   5.686  11.694 -0.8620  1.1747 -0.5918
13559TIP3   OH262091   6.337   6.782  11.569  0.5985 -0.4657 -0.0366
13559TIP3    H162092   6.297   6.700  11.540  0.1070  1.0645 -4.3533
13559TIP3    H262093   6.265   6.846  11.568  1.6341  0.7456 -0.2328
13560TIP3   OH262094   1.761   1.876   5.611 -0.3496  0.8866  0.3788
13560TIP3    H162095   1.834   1.814   5.602 -0.3996  0.6798  1.3627
13560TIP3    H262096   1.684   1.820   5.621 -0.3634  1.0987  1.5267
13561TIP3   OH262097   6.178   0.047   3.251  0.4816 -0.0131  0.2687
13561TIP3    H162098   6.180  -0.039   3.293 -0.1127  0.5436  1.4915
13561TIP3    H262099   6.261   0.088   3.276 -0.2653  0.6734  1.7352
13562TIP3   OH262100   1.699   1.062  16.573  0.4184 -0.2256 -0.9848
13562TIP3    H162101   1.785   1.025  16.590  0.1452 -0.8469 -0.9421
13562TIP3    H262102   1.702   1.150  16.611  1.8138  0.6665 -2.9785
13563TIP3   OH262103   1.229   5.705   5.584  0.1783 -0.5330  0.0819
13563TIP3    H162104   1.317   5.677   5.610 -0.0598 -1.5962 -0.1915
13563TIP3    H262105   1.242   5.753   5.502  0.6220  0.3248  0.6465
13564TIP3   OH262106   0.700   4.632   4.501 -0.2788  0.6266  0.0202
13564TIP3    H162107   0.652   4.714   4.494  0.8620  1.3210  0.0648
13564TIP3    H262108   0.709   4.617   4.595 -1.5367 -0.2038  0.0276
13565TIP3   OH262109   5.132   3.102  15.448 -0.2478 -0.7370 -0.2927
13565TIP3    H162110   5.195   3.074  15.514  0.3266  0.7736 -0.1487
13565TIP3    H262111   5.128   3.198  15.458 -0.8823 -0.5797 -1.7947
13566TIP3   OH262112   6.021   3.424   2.319 -0.1351  0.1555  0.3411
13566TIP3    H162113   6.084   3.483   2.278 -1.1538  1.1628  0.1915
13566TIP3    H262114   6.065   3.393   2.398  0.7604  0.3942 -0.0526
13567TIP3   OH262115   5.788   6.171  15.375 -0.7558 -0.1501 -0.7231
13567TIP3    H162116   5.881   6.190  15.373 -0.6929 -0.4277 -2.7024
13567TIP3    H262117   5.746   6.252  15.345 -1.1522 -0.0826 -0.0127
13568TIP3   OH262118   0.397   5.229  15.089 -0.0032 -0.1498  0.3048
13568TIP3    H162119   0.365   5.140  15.106  0.9863 -0.6630 -0.4233
13568TIP3    H262120   0.455   5.220  15.013 -0.0673  1.1604  0.0751
13569TIP3   OH262121   2.415   0.184  13.864  0.0799  0.0243 -0.1211
13569TIP3    H162122   2.391   0.241  13.791  0.3301 -0.7081 -0.7922
13569TIP3    H262123   2.448   0.243  13.932 -0.3870  0.7322 -0.5048
13570TIP3   OH262124   0.211   3.955   3.408  0.0934 -0.1873  0.4911
13570TIP3    H162125   0.207   4.036   3.356 -0.9017 -1.9159 -2.3331
13570TIP3    H262126   0.304   3.933   3.410  0.6028  1.7093  2.6325
13571TIP3   OH262127   1.070   4.703   3.272 -0.3868 -0.1537 -0.1409
13571TIP3    H162128   1.062   4.725   3.179 -0.7250 -1.3394 -0.4032
13571TIP3    H262129   1.139   4.760   3.304 -1.3461  1.4248 -0.7378
13572TIP3   OH262130   2.932   0.070   5.320 -0.5006 -0.7028  0.5910
13572TIP3    H162131   3.000   0.015   5.358 -0.5751 -1.7120 -0.6612
13572TIP3    H262132   2.974   0.155   5.305 -0.0706 -0.7352  1.5344
13573TIP3   OH262133   2.278   4.888  14.540  0.3569  0.0875 -0.0091
13573TIP3    H162134   2.330   4.835  14.602 -0.5968 -0.7324  0.1201
13573TIP3    H262135   2.224   4.824  14.493 -1.4216  0.9858  0.7026
13574TIP3   OH262136   0.410   3.135  13.351 -0.4833  0.0612 -0.0589
13574TIP3    H162137   0.329   3.085  13.357 -0.3088 -0.3028 -0.6974
13574TIP3    H262138   0.480   3.069  13.356 -0.2473  0.2704 -0.4970
13575TIP3   OH262139   6.726   2.326  16.210  0.1857  0.2419  0.6637
13575TIP3    H162140   6.742   2.388  16.139 -0.5367  0.6533  0.8535
13575TIP3    H262141   6.785   2.354  16.280 -0.6395  1.1651  1.0099
13576TIP3   OH262142   4.400   5.513   0.161 -0.4042 -0.0736 -0.7357
13576TIP3    H162143   4.355   5.555   0.088 -0.7408 -1.0796 -1.1252
13576TIP3    H262144   4.401   5.579   0.230  2.3985  1.9770 -2.4991
13577TIP3   OH262145   5.846   6.294  11.735  0.2878 -0.1498  0.5199
13577TIP3    H162146   5.893   6.258  11.809  0.7697 -1.7205 -0.5033
13577TIP3    H262147   5.896   6.372  11.710  0.5537 -0.0439  1.3553
13578TIP3   OH262148   4.513   5.977  11.978  0.1494 -0.6705 -0.4459
13578TIP3    H162149   4.605   5.979  12.004  0.0156 -2.2166  0.2419
13578TIP3    H262150   4.510   5.918  11.903 -0.0266  0.8965 -1.7239
13579TIP3   OH262151   5.419   4.984   1.043  0.1046  0.0919  0.4675
13579TIP3    H162152   5.389   5.074   1.053 -0.6134  0.1561 -1.7814
13579TIP3    H262153   5.373   4.935   1.111 -1.3467  1.0194  0.1834
13580TIP3   OH262154   4.243   5.370  14.971 -0.0173  0.5194  0.0628
13580TIP3    H162155   4.290   5.377  14.888 -0.1044 -2.0573 -0.2725
13580TIP3    H262156   4.308   5.392  15.038  2.2599 -3.9547 -0.2953
13581TIP3   OH262157   5.034   3.058   0.041 -0.2485 -0.6581  0.2741
13581TIP3    H162158   5.121   3.088   0.016 -0.3632  0.6492  1.2879
13581TIP3    H262159   4.994   3.134   0.084 -2.6941 -0.4812 -2.0178
13582TIP3   OH262160   3.355   4.699  10.892 -0.2437 -0.3307  0.3301
13582TIP3    H162161   3.261   4.686  10.906 -0.9224 -0.1954 -3.0901
13582TIP3    H262162   3.372   4.653  10.810  2.1104  1.8784 -0.5148
13583TIP3   OH262163   2.234   5.292  11.208 -0.0758 -0.1449 -0.3796
13583TIP3    H162164   2.231   5.295  11.303  1.2915  0.7350 -0.3369
13583TIP3    H262165   2.243   5.199  11.187 -0.0812 -0.3165  0.3613
13584TIP3   OH262166   5.594   6.387   2.238  0.1972  0.3809 -0.4413
13584TIP3    H162167   5.554   6.300   2.235 -0.4539  0.6854 -0.8332
13584TIP3    H262168   5.688   6.370   2.246 -0.0993 -0.4013  3.5051
13585TIP3   OH262169   2.137   5.789   2.993 -0.7975 -0.0037 -0.2436
13585TIP3    H162170   2.046   5.765   2.976 -1.0240  0.7239 -0.0922
13585TIP3    H262171   2.164   5.836   2.915 -1.0907  1.2612  0.3995
13586TIP3   OH262172   5.807   3.421   5.388  0.0427 -0.0483 -0.0176
13586TIP3    H162173   5.800   3.409   5.293 -0.2219 -2.7990  0.2773
13586TIP3    H262174   5.734   3.371   5.424 -0.3176  1.5840  1.6477
13587TIP3   OH262175   4.537   2.080  14.502  0.9219  0.4324  0.8009
13587TIP3    H162176   4.460   2.136  14.494  0.8199  0.1869 -0.0717
13587TIP3    H262177   4.611   2.140  14.501  0.8268  0.5495 -0.4131
13588TIP3   OH262178   0.548   1.709  11.845  0.3068  0.0833 -0.5800
13588TIP3    H162179   0.517   1.749  11.926  0.8360  0.9174 -0.7741
13588TIP3    H262180   0.490   1.634  11.831  0.6685 -0.5193  0.9620
13589TIP3   OH262181   3.160   0.636  16.478  0.2500  0.4022  0.0872
13589TIP3    H162182   3.157   0.642  16.573  0.7807  1.5352  0.0431
13589TIP3    H262183   3.092   0.572  16.456  1.5927 -1.6034  1.3582
13590TIP3   OH262184   1.746   5.008   4.867 -0.8150 -0.5821 -0.2929
13590TIP3    H162185   1.801   5.022   4.790 -1.7352 -1.1019 -1.0622
13590TIP3    H262186   1.703   5.093   4.881 -2.8761 -1.2354 -2.1586
13591TIP3   OH262187   5.231   3.983  14.000  0.7312 -0.0191  0.9513
13591TIP3    H162188   5.304   3.924  13.984 -0.3044 -1.0411 -0.2369
13591TIP3    H262189   5.272   4.067  14.019  2.2298 -0.3561 -0.5247
13592TIP3   OH262190   6.678   2.678  13.123  0.3455  0.0350 -0.4105
13592TIP3    H162191   6.626   2.605  13.156  0.0767  0.7536  0.8128
13592TIP3    H262192   6.619   2.724  13.063 -0.0519  0.1984  0.0988
13593TIP3   OH262193   2.928   0.622  12.669  0.2030  0.1735 -0.2414
13593TIP3    H162194   3.023   0.613  12.671  0.1241 -0.7719  0.2721
13593TIP3    H262195   2.912   0.713  12.646  1.2446  0.7622  1.2167
13594TIP3   OH262196   0.674   0.833  14.418  0.2995  0.1200  0.3449
13594TIP3    H162197   0.627   0.885  14.484 -0.2272  0.9156 -0.6397
13594TIP3    H262198   0.611   0.765  14.392 -0.6627  1.6324 -1.5203
13595TIP3   OH262199   1.630   4.379   1.701 -0.1943  0.7606 -0.2492
13595TIP3    H162200   1.541   4.399   1.673 -0.1837  0.3787 -0.5580
13595TIP3    H262201   1.620   4.349   1.792 -0.1005  3.1199  0.6075
13596TIP3   OH262202   5.899   6.061  14.591 -0.2474 -0.1289  0.3568
13596TIP3    H162203   5.946   6.058  14.507 -1.3792  1.2614 -0.3708
13596TIP3    H262204   5.878   6.154  14.603 -0.2636 -0.3312  2.1088
13597TIP3   OH262205   2.028   1.348  16.046 -0.4148 -0.6073 -0.3612
13597TIP3    H162206   2.057   1.361  15.956  0.8473  1.5903  0.2868
13597TIP3    H262207   1.935   1.370  16.045 -0.3198 -0.2116 -1.0524
13598TIP3   OH262208   0.753   3.963  13.616  0.2032 -0.4499 -0.6948
13598TIP3    H162209   0.784   3.952  13.527 -0.6941 -1.3161 -0.9104
13598TIP3    H262210   0.769   4.056  13.636  0.9663 -0.3948 -1.5203
13599TIP3   OH262211   0.844   0.523  12.993 -0.1356  0.0286 -0.2520
13599TIP3    H162212   0.845   0.430  13.018  1.9861  0.0022 -0.2486
13599TIP3    H262213   0.782   0.527  12.921  0.0767 -1.4951 -0.5620
13600TIP3   OH262214   0.456   1.939   1.148 -0.2957 -0.1228  0.3778
13600TIP3    H162215   0.498   1.865   1.105  1.2972  0.9543 -0.0019
13600TIP3    H262216   0.528   1.997   1.172 -1.4678  1.1167  1.0346
13601TIP3   OH262217   5.423   4.286   5.187 -0.0446  0.5762 -0.1187
13601TIP3    H162218   5.344   4.339   5.199  0.4502  1.2346  0.3191
13601TIP3    H262219   5.391   4.198   5.170 -0.8894  0.1322  3.1231
13602TIP3   OH262220   2.607   0.841  13.103  0.2904 -0.0752  0.3128
13602TIP3    H162221   2.529   0.896  13.091  0.3584  0.3717  1.8025
13602TIP3    H262222   2.579   0.754  13.073 -0.2838  0.4114 -0.6233
13603TIP3   OH262223   5.635   0.295  11.828 -0.2680 -0.0430  0.2273
13603TIP3    H162224   5.639   0.327  11.737  0.3003  1.5437  0.7668
13603TIP3    H262225   5.583   0.362  11.874  1.4228  0.4398  1.5304
13604TIP3   OH262226   6.252   3.771   1.391  0.0894  0.2133 -0.0294
13604TIP3    H162227   6.226   3.685   1.424 -0.6098  0.4580  0.0765
13604TIP3    H262228   6.227   3.832   1.460  0.1150  0.5566 -0.3188
13605TIP3   OH262229   0.263   3.965  13.232 -0.1897  0.5465 -0.1121
13605TIP3    H162230   0.328   3.969  13.302 -1.9385 -0.2619  1.6718
13605TIP3    H262231   0.313   3.947  13.153  1.8341  0.9927  0.9985
13606TIP3   OH262232   4.501   1.152   1.467 -0.2088  0.2478  0.1641
13606TIP3    H162233   4.536   1.131   1.380 -0.5175  1.0636 -0.1631
13606TIP3    H262234   4.570   1.204   1.508 -0.3783  0.5019  0.1243
13607TIP3   OH262235   1.199   3.100  12.210 -0.0069  0.0768  0.5161
13607TIP3    H162236   1.118   3.049  12.209  0.2293 -0.3459  1.6939
13607TIP3    H262237   1.267   3.036  12.190 -0.0485  0.6728 -1.8025
13608TIP3   OH262238   6.130   2.435  11.556 -0.5281 -0.4753 -0.1916
13608TIP3    H162239   6.128   2.517  11.605  0.3497 -0.4039 -0.2733
13608TIP3    H262240   6.109   2.460  11.466  1.9113  0.0175 -0.6825
13609TIP3   OH262241   6.138   5.836   5.279 -0.5983  0.0888 -0.1037
13609TIP3    H162242   6.145   5.910   5.339  0.3138 -0.1557  0.1076
13609TIP3    H262243   6.092   5.872   5.203 -0.2142  0.8737  0.0148
13610TIP3   OH262244   6.494   5.085   0.170  0.1675 -0.6485  0.1010
13610TIP3    H162245   6.510   5.165   0.220  0.7962  1.2417 -2.8365
13610TIP3    H262246   6.560   5.087   0.101 -0.1178 -3.5049 -0.3540
13611TIP3   OH262247   1.235   5.849   1.533 -0.4437 -0.7280 -0.1199
13611TIP3    H162248   1.196   5.774   1.579 -1.9333 -0.4597 -0.8839
13611TIP3    H262249   1.299   5.810   1.474  0.7641 -1.1574  1.4247
13612TIP3   OH262250   0.070   6.123  15.380  0.1278 -0.8944  0.2529
13612TIP3    H162251   0.041   6.213  15.366  2.7347 -0.3384 -2.5609
13612TIP3    H262252   0.016   6.071  15.320 -0.5589 -1.0814  1.0122
13613TIP3   OH262253   4.560   4.496   4.034  0.0834  0.4172 -0.9404
13613TIP3    H162254   4.482   4.546   4.062  1.0593  1.6439 -0.2970
13613TIP3    H262255   4.579   4.438   4.108 -0.9589 -0.8509 -1.6256
13614TIP3   OH262256   1.518   1.565  11.465  0.1196  0.2093 -0.3173
13614TIP3    H162257   1.463   1.507  11.413  2.6650 -2.5858 -0.1448
13614TIP3    H262258   1.486   1.555  11.555  1.0811 -1.7808 -0.1445
13615TIP3   OH262259   6.179   0.690  16.978  1.1594 -0.1550  0.2384
13615TIP3    H162260   6.256   0.727  17.020  0.3493  1.2694  0.5451
13615TIP3    H262261   6.180   0.728  16.890 -0.2124  1.5202  0.8708
13616TIP3   OH262262   2.118   2.772  11.779 -0.1496 -0.1644  0.4645
13616TIP3    H162263   2.181   2.798  11.846 -1.1450 -0.0692  1.3904
13616TIP3    H262264   2.113   2.848  11.721  0.2905 -0.0230  0.6050
13617TIP3   OH262265   4.134   5.490   5.148 -0.1268  0.1283 -0.3031
13617TIP3    H162266   4.192   5.445   5.087  1.5536 -0.3813  1.5788
13617TIP3    H262267   4.184   5.567   5.176 -0.1742 -0.4722  1.5776
13618TIP3   OH262268   4.934   4.109   1.103 -0.7027 -0.1129 -0.1819
13618TIP3    H162269   4.910   4.055   1.027  0.1499 -0.7194 -0.0335
13618TIP3    H262270   4.946   4.046   1.174 -0.5485  0.3644  0.2193
13619TIP3   OH262271   2.249   6.468   0.771  0.4056 -0.5341 -0.2654
13619TIP3    H162272   2.205   6.383   0.775 -0.6149  0.0032  0.3731
13619TIP3    H262273   2.312   6.460   0.700 -0.0619 -1.6459 -0.5642
13620TIP3   OH262274   4.504   5.428  13.953  0.0917  0.5114 -0.0532
13620TIP3    H162275   4.509   5.524  13.952  1.5888  0.4444 -0.6498
13620TIP3    H262276   4.423   5.408  13.906  1.2252  1.4258 -2.5348
13621TIP3   OH262277   0.134   1.766  15.744  0.1258  0.2768 -0.3287
13621TIP3    H162278   0.115   1.776  15.651  0.4088 -1.4714 -0.5965
13621TIP3    H262279   0.219   1.722  15.747 -0.3762 -0.6497  0.7356
13622TIP3   OH262280   3.769   0.334  12.674  0.7304  0.3166  0.6533
13622TIP3    H162281   3.816   0.329  12.758  2.1365  1.0530 -0.0648
13622TIP3    H262282   3.702   0.401  12.688  1.6225  1.1745  0.8842
13623TIP3   OH262283   4.623   0.957   5.864  0.6697 -0.0972  0.0496
13623TIP3    H162284   4.596   0.912   5.785  1.8266 -1.5304  0.4236
13623TIP3    H262285   4.653   0.887   5.923  2.6344  1.1156  0.6143
13624TIP3   OH262286   0.470   1.362   0.956  0.0219  0.1051  0.4670
13624TIP3    H162287   0.432   1.318   0.880  1.3768 -2.0720  0.9811
13624TIP3    H262288   0.448   1.306   1.030 -0.8607  1.9375  1.6777
13625TIP3   OH262289   1.804   2.075  14.700 -0.5558 -0.2104  0.3679
13625TIP3    H162290   1.806   2.152  14.644  0.4446  1.1148  2.1088
13625TIP3    H262291   1.721   2.081  14.747 -0.9327 -0.7549 -0.2231
13626TIP3   OH262292   0.578   0.802   3.245 -0.0821  0.0115  0.2773
13626TIP3    H162293   0.649   0.816   3.308 -0.8074  0.9185  0.9342
13626TIP3    H262294   0.498   0.824   3.294 -0.7976 -0.6882 -0.5316
13627TIP3   OH262295   3.692   3.012   1.108  1.2308  0.6110 -0.4557
13627TIP3    H162296   3.769   3.067   1.124  0.9870  1.2947 -1.5147
13627TIP3    H262297   3.672   2.974   1.193  3.6231 -0.7798 -0.4324
13628TIP3   OH262298   3.830   4.775   5.142 -0.1766 -0.0114  0.3281
13628TIP3    H162299   3.748   4.728   5.155 -0.9896  1.7031  1.9401
13628TIP3    H262300   3.837   4.833   5.218 -0.1002  3.5809 -2.1249
13629TIP3   OH262301   1.889   3.916   0.819 -0.1158  0.2849  0.1724
13629TIP3    H162302   1.946   3.960   0.756 -0.0074 -2.2781 -1.6850
13629TIP3    H262303   1.944   3.850   0.859 -0.7188  0.6018  1.5763
13630TIP3   OH262304   2.241   5.425   0.875  0.2457 -0.2813 -0.6808
13630TIP3    H162305   2.175   5.474   0.826  0.5318 -0.0199 -0.8131
13630TIP3    H262306   2.197   5.346   0.905 -0.6090  0.6345  0.6066
13631TIP3   OH262307   3.135   4.997  13.867  0.6007 -0.3106 -0.0690
13631TIP3    H162308   3.196   4.951  13.809 -0.0989 -2.5259  0.8526
13631TIP3    H262309   3.089   4.927  13.913  1.2334  1.3147  3.2963
13632TIP3   OH262310   6.091   0.809   0.243 -0.4728  0.1912  0.2085
13632TIP3    H162311   6.078   0.757   0.323  0.0403 -0.8824 -0.3805
13632TIP3    H262312   6.178   0.846   0.252 -1.1574  1.6777  1.0089
13633TIP3   OH262313   0.784   2.998   4.407 -0.1591  0.4702 -0.0405
13633TIP3    H162314   0.844   2.934   4.445 -0.3146  0.7472  0.6875
13633TIP3    H262315   0.832   3.081   4.412  0.0936  0.4039 -1.0957
13634TIP3   OH262316   1.545   6.053  16.264  0.0133 -0.0365  0.5134
13634TIP3    H162317   1.522   6.132  16.312 -1.3531 -0.0055 -0.1477
13634TIP3    H262318   1.632   6.071  16.229  0.8466  0.1296  2.5095
13635TIP3   OH262319   4.229   3.488   3.289 -0.2572  0.0144 -0.1098
13635TIP3    H162320   4.292   3.544   3.244 -0.6145  1.4727  1.0961
13635TIP3    H262321   4.266   3.400   3.284 -0.5936 -0.0697 -3.7430
13636TIP3   OH262322   0.375   0.757  14.045 -0.0905 -0.3831  0.3010
13636TIP3    H162323   0.285   0.752  14.013 -0.4125 -2.2490  1.3090
13636TIP3    H262324   0.408   0.841  14.013 -2.3241  0.5625  0.2800
13637TIP3   OH262325   3.968   4.683  14.140  0.0900 -0.2446 -0.2735
13637TIP3    H162326   3.911   4.742  14.091 -1.1394 -0.3812  0.9331
13637TIP3    H262327   3.924   4.671  14.224  2.0048 -0.1877  0.8082
13638TIP3   OH262328   5.406   0.418   4.607 -0.1640 -0.7083 -0.0783
13638TIP3    H162329   5.438   0.352   4.668 -0.0707  0.9325  1.7495
13638TIP3    H262330   5.376   0.490   4.663  0.1610  0.9889 -1.9713
13639TIP3   OH262331   5.492   2.496  17.190  0.7710 -0.1079 -0.4418
13639TIP3    H162332   5.426   2.427  17.182 -1.0048  1.6466 -1.8754
13639TIP3    H262333   5.450   2.574  17.154  3.1888  1.4282 -0.1621
13640TIP3   OH262334   0.458   5.991   5.572  0.4799  0.8215  0.2086
13640TIP3    H162335   0.382   6.035   5.532  2.0428  2.5763 -0.9764
13640TIP3    H262336   0.439   5.898   5.562 -1.0156  1.2079 -1.0554
13641TIP3   OH262337   6.237   4.745   5.512  0.1062 -0.5044 -0.2488
13641TIP3    H162338   6.149   4.750   5.476 -0.0970  0.2646  0.3174
13641TIP3    H262339   6.291   4.712   5.440 -0.4011  0.3201 -1.0261
13642TIP3   OH262340   4.786   0.369   2.148 -1.0605  0.0631  0.6982
13642TIP3    H162341   4.838   0.290   2.168 -0.8162 -0.4464 -1.6496
13642TIP3    H262342   4.799   0.382   2.054  0.4391  4.0431  1.2815
13643TIP3   OH262343   4.072   2.915   6.002 -0.0886 -0.5567 -0.0528
13643TIP3    H162344   4.052   3.002   5.966  1.4552  1.5965  3.6400
13643TIP3    H262345   4.157   2.893   5.965  0.8340  0.9621  1.0267
13644TIP3   OH262346   6.622   3.419  14.934  0.7022  0.4316 -0.2217
13644TIP3    H162347   6.614   3.514  14.946  1.9246  0.7642 -1.7734
13644TIP3    H262348   6.534   3.390  14.913 -0.4884  0.5945  3.7648
13645TIP3   OH262349   1.198   1.213  13.510  0.4942 -0.5486 -0.3990
13645TIP3    H162350   1.189   1.276  13.439  0.3797  0.7802  0.7627
13645TIP3    H262351   1.109   1.181  13.525 -0.1771  1.9366  1.5511
13646TIP3   OH262352   4.691   5.168  11.473  0.4710 -0.2383 -0.0322
13646TIP3    H162353   4.603   5.164  11.436  0.2534  1.6453  0.1686
13646TIP3    H262354   4.680   5.213  11.557  1.7482  1.2085 -0.5808
13647TIP3   OH262355   0.707   1.956  14.934  0.4722  0.1547  0.0186
13647TIP3    H162356   0.793   1.997  14.939  0.1637  0.9736 -1.0188
13647TIP3    H262357   0.668   1.972  15.020  2.0446 -1.8987  1.1890
13648TIP3   OH262358   5.638   5.594  14.775  0.3869  0.1537  0.3481
13648TIP3    H162359   5.703   5.556  14.835  1.2865 -0.9019 -1.2302
13648TIP3    H262360   5.609   5.520  14.722 -0.2101  1.1130 -0.6885
13649TIP3   OH262361   4.271   2.329  14.173  0.4859 -0.0414 -0.9081
13649TIP3    H162362   4.227   2.408  14.204 -0.8292 -0.6494 -1.1734
13649TIP3    H262363   4.345   2.362  14.122  0.0204  1.0206 -0.9299
13650TIP3   OH262364   1.263   3.531   4.133 -0.0724 -0.3181  0.1903
13650TIP3    H162365   1.300   3.578   4.208  0.7039  1.1873 -1.0902
13650TIP3    H262366   1.187   3.584   4.107 -1.7222 -2.0336  1.2312
13651TIP3   OH262367   2.850   5.195  16.187  0.1620 -0.2096  0.4582
13651TIP3    H162368   2.784   5.179  16.118  2.3770 -0.9533 -1.6234
13651TIP3    H262369   2.916   5.250  16.145  1.3108 -0.1693  2.2089
13652TIP3   OH262370   0.226   5.432   1.158  0.2705  0.5360 -0.5659
13652TIP3    H162371   0.223   5.356   1.100 -0.8142  0.3908 -0.3500
13652TIP3    H262372   0.134   5.451   1.177  0.5892  0.0763  1.7455
13653TIP3   OH262373   1.767   1.285  14.327 -0.4964  0.2843 -0.5606
13653TIP3    H162374   1.816   1.367  14.324  0.0105  0.0103  0.0524
13653TIP3    H262375   1.791   1.246  14.411 -0.4316 -0.6867 -1.0225
13654TIP3   OH262376   0.884   4.615  14.785  0.2700  0.2217  0.1339
13654TIP3    H162377   0.871   4.562  14.706  0.2370  0.6368 -0.1364
13654TIP3    H262378   0.978   4.630  14.789  0.3765 -0.4886  0.6244
13655TIP3   OH262379   5.428   5.542   3.626  0.7298 -0.4648 -0.7066
13655TIP3    H162380   5.345   5.522   3.669 -0.0010  0.1975 -1.7493
13655TIP3    H262381   5.457   5.458   3.589 -0.1509 -0.4495 -1.4526
13656TIP3   OH262382   3.422   1.526   2.328 -0.4950 -0.0424  0.6668
13656TIP3    H162383   3.487   1.528   2.258  0.0176 -0.2263  1.1301
13656TIP3    H262384   3.448   1.595   2.388  1.6874 -2.5644  2.9270
13657TIP3   OH262385   4.709   5.776  13.158  0.1283 -0.1534 -0.1419
13657TIP3    H162386   4.789   5.824  13.136 -0.0683 -0.5487 -1.7931
13657TIP3    H262387   4.740   5.703  13.211  0.6997  0.4136  0.3403
13658TIP3   OH262388   3.411   0.513   3.891 -0.1314 -0.0092  0.0839
13658TIP3    H162389   3.497   0.528   3.852  1.2243  2.0621  3.4201
13658TIP3    H262390   3.426   0.444   3.955 -1.4515 -0.9330 -0.5648
13659TIP3   OH262391   3.516   6.599   2.358 -0.1460 -0.9292 -0.0183
13659TIP3    H162392   3.535   6.525   2.300 -2.7464 -1.7418  0.0366
13659TIP3    H262393   3.507   6.560   2.445 -0.9656 -0.4728  0.1121
13660TIP3   OH262394   3.877   1.489   5.292  0.0873 -0.0157 -0.1353
13660TIP3    H162395   3.954   1.485   5.236  0.7217 -0.7936  0.7724
13660TIP3    H262396   3.912   1.490   5.381 -0.8962  1.3154  0.2678
13661TIP3   OH262397   5.801   1.556   5.184  0.3576 -0.1040  0.1637
13661TIP3    H162398   5.763   1.635   5.222  0.8443 -0.9511  2.6413
13661TIP3    H262399   5.895   1.568   5.193  0.4274 -1.2464  1.3485
13662TIP3   OH262400   4.397   0.337   4.915 -0.3907 -0.1833  0.2029
13662TIP3    H162401   4.366   0.322   5.004  0.9924 -0.1542  0.7048
13662TIP3    H262402   4.403   0.250   4.876 -0.8466 -0.2081  0.1810
13663TIP3   OH262403   5.074   0.577  12.995  0.2623  0.0779 -0.7220
13663TIP3    H162404   5.018   0.512  12.951  1.8681 -1.2034 -0.9545
13663TIP3    H262405   5.046   0.573  13.086  0.3562 -0.9982 -0.7216
13664TIP3   OH262406   4.541   3.471  15.135 -0.0331 -0.6572  0.4957
13664TIP3    H162407   4.587   3.395  15.101  2.4246  0.4414  1.1132
13664TIP3    H262408   4.530   3.453  15.228  0.2857 -0.3965  0.5861
13665TIP3   OH262409   4.486   2.318   2.160  0.3718 -0.5333  0.0355
13665TIP3    H162410   4.479   2.358   2.073  0.0492  0.3404  0.4551
13665TIP3    H262411   4.499   2.391   2.220 -1.5746 -0.8772  0.9804
13666TIP3   OH262412   1.909   3.687  12.730 -0.4493  0.2100  0.8657
13666TIP3    H162413   1.818   3.666  12.708 -0.3702  0.0745  0.6548
13666TIP3    H262414   1.943   3.730  12.652 -0.8214  1.8370  1.5685
13667TIP3   OH262415   5.759   1.625   0.120 -0.3710  0.2010  0.5180
13667TIP3    H162416   5.849   1.656   0.110 -0.5943  0.8145  0.3136
13667TIP3    H262417   5.739   1.640   0.212 -0.0600 -0.5151  0.7041
13668TIP3   OH262418   4.872   6.697  14.266 -0.2720 -0.0236  0.1059
13668TIP3    H162419   4.875   6.616  14.317 -1.9076  0.8203  1.6743
13668TIP3    H262420   4.896   6.765  14.328  1.0088  0.7288 -1.1714
13669TIP3   OH262421   5.243   1.807  11.410  0.2878  0.0876 -0.4442
13669TIP3    H162422   5.237   1.820  11.315 -1.8126 -0.1249 -0.4026
13669TIP3    H262423   5.245   1.712  11.421 -1.3622  0.0460 -0.2577
13670TIP3   OH262424   3.125   5.543   2.384 -0.0245  0.8785 -0.2077
13670TIP3    H162425   3.153   5.454   2.403 -0.2453  1.2752  2.4456
13670TIP3    H262426   3.040   5.551   2.427  0.3211  2.5697  0.2636
13671TIP3   OH262427   1.246   1.439  15.402  0.6243  0.4001  0.1392
13671TIP3    H162428   1.247   1.379  15.328 -0.1444  0.6861 -0.1117
13671TIP3    H262429   1.208   1.519  15.368 -0.3179  0.3370  0.9980
13672TIP3   OH262430   6.530   4.230   4.574  0.0452 -0.3949  0.1061
13672TIP3    H162431   6.570   4.260   4.656 -1.2383 -1.3379  1.1168
13672TIP3    H262432   6.468   4.299   4.552  0.2325 -0.2455  0.0385
13673TIP3   OH262433   5.736   6.583  11.755  0.3556 -0.1683 -0.3872
13673TIP3    H162434   5.780   6.663  11.727  2.7556 -1.1811  0.1751
13673TIP3    H262435   5.695   6.606  11.838  1.5760  0.3716  0.1048
13674TIP3   OH262436   1.414   0.314   4.953  0.0550 -0.1833 -0.3215
13674TIP3    H162437   1.349   0.253   4.988  0.9100 -0.7862  0.2557
13674TIP3    H262438   1.495   0.290   4.997  0.7293  0.3856 -1.2327
13675TIP3   OH262439   2.092   2.062  17.006  0.2881 -0.0296  0.4516
13675TIP3    H162440   2.007   2.021  16.994  0.0232  0.5373  0.3377
13675TIP3    H262441   2.153   2.007  16.957 -0.2497  0.3875 -0.7234
13676TIP3   OH262442   3.021   6.388   3.751 -0.6774  0.1776  0.2804
13676TIP3    H162443   3.020   6.353   3.662  0.4738 -2.8263  1.3366
13676TIP3    H262444   2.994   6.315   3.806 -0.7572  1.7708  2.4817
13677TIP3   OH262445   1.910   3.953   4.983 -0.0357 -0.1508 -0.4417
13677TIP3    H162446   1.857   4.008   5.040  1.3379  0.2897  0.4701
13677TIP3    H262447   1.852   3.881   4.958 -1.5255  1.1229 -0.7810
13678TIP3   OH262448   3.091   2.238  15.979  0.1573  0.0366 -0.0152
13678TIP3    H162449   3.180   2.204  15.986  0.7411  1.7753  2.1647
13678TIP3    H262450   3.038   2.181  16.034  0.4207  0.4792  0.7011
13679TIP3   OH262451   5.279   2.352  14.115 -0.4629 -0.3874 -0.6940
13679TIP3    H162452   5.253   2.416  14.182  0.2936  0.2172 -0.9502
13679TIP3    H262453   5.307   2.275  14.165 -3.3966 -1.3807 -0.4311
13680TIP3   OH262454   1.218   4.264  11.679 -0.2646 -0.2670  0.0594
13680TIP3    H162455   1.164   4.337  11.708  0.3199  0.6753 -1.1721
13680TIP3    H262456   1.169   4.225  11.607  0.2652  0.0398 -0.4751
13681TIP3   OH262457   0.811   3.088   0.901  0.0587 -0.2286  0.3038
13681TIP3    H162458   0.805   3.183   0.914 -2.4077 -0.3242  0.3118
13681TIP3    H262459   0.754   3.051   0.968 -1.8712 -1.4871 -1.8964
13682TIP3   OH262460   5.106   4.825   3.785 -0.0632  0.0290  0.1188
13682TIP3    H162461   5.163   4.830   3.708  1.4952 -0.0599  1.2223
13682TIP3    H262462   5.035   4.767   3.757  1.1055 -1.0071 -0.8837
13683TIP3   OH262463   4.063   5.903   3.272  0.7118  0.2010 -0.3071
13683TIP3    H162464   4.051   5.852   3.192  0.6495 -0.6800  0.2619
13683TIP3    H262465   4.003   5.865   3.335  1.7811 -0.0501  0.5953
13684TIP3   OH262466   6.289   2.059   6.465  0.3389  0.5704  0.0080
13684TIP3    H162467   6.305   2.113   6.387  0.7105 -2.6331 -2.3694
13684TIP3    H262468   6.243   1.982   6.431  2.6667 -2.1444  2.4668
13685TIP3   OH262469   5.332   6.217   1.583 -0.2283 -0.1798  0.3199
13685TIP3    H162470   5.388   6.251   1.653 -0.2205 -0.9762  0.7014
13685TIP3    H262471   5.373   6.249   1.503  0.3838 -0.1833  0.6267
13686TIP3   OH262472   2.144   0.357   2.135  0.2973  0.2519 -0.3480
13686TIP3    H162473   2.205   0.398   2.073 -0.2020  1.6524  0.0476
13686TIP3    H262474   2.195   0.345   2.214  1.0012 -1.7467 -1.0644
13687TIP3   OH262475   0.285   4.630  11.162 -0.5948  0.6729 -0.6532
13687TIP3    H162476   0.192   4.618  11.182 -0.3087  0.1177  0.3932
13687TIP3    H262477   0.329   4.557  11.205  0.5282  1.9845  0.5618
13688TIP3   OH262478   2.994   2.672   4.587  0.9910 -0.9257 -0.2921
13688TIP3    H162479   3.037   2.590   4.614  1.2369 -1.2916 -1.6851
13688TIP3    H262480   2.937   2.646   4.515  1.2262  0.1602 -0.8926
13689TIP3   OH262481   0.239   4.361   3.923 -0.0732 -0.0478  0.5055
13689TIP3    H162482   0.231   4.450   3.958 -2.6904  0.2189 -0.5224
13689TIP3    H262483   0.164   4.314   3.960 -0.2882 -1.0319 -1.0957
13690TIP3   OH262484   3.692   2.022   0.248  0.0349  0.0019  0.0942
13690TIP3    H162485   3.689   2.081   0.173 -2.0281 -1.3705 -0.9745
13690TIP3    H262486   3.755   1.954   0.222 -0.3263 -0.2181 -0.2225
13691TIP3   OH262487   2.776   0.288   4.736 -0.7393 -0.0090  0.2965
13691TIP3    H162488   2.858   0.251   4.703 -1.0067 -0.4652  0.1370
13691TIP3    H262489   2.709   0.256   4.676 -1.0116  0.5347  0.3061
13692TIP3   OH262490   5.588   4.641  15.967  0.0729 -0.3391 -0.3135
13692TIP3    H162491   5.511   4.640  16.025 -0.6844  0.1728 -1.2924
13692TIP3    H262492   5.564   4.700  15.896  0.7649 -1.3778 -1.4523
13693TIP3   OH262493   5.623   5.752  11.119  0.1837  0.0937  0.3225
13693TIP3    H162494   5.587   5.823  11.172 -0.2297  0.6087 -0.6351
13693TIP3    H262495   5.549   5.694  11.103  0.3699 -0.2043  0.5184
13694TIP3   OH262496   3.569   0.935   4.104 -0.0582  0.1508  0.7449
13694TIP3    H162497   3.532   0.910   4.020  0.1131  1.7562  0.1460
13694TIP3    H262498   3.588   0.853   4.148 -0.3641 -0.7173 -0.6948
13695TIP3   OH262499   1.714   1.942   0.138 -0.1784 -0.5942  0.3054
13695TIP3    H162500   1.765   1.896   0.070 -1.2411 -0.7388 -0.4223
13695TIP3    H262501   1.709   2.032   0.107  0.6867 -0.2936  1.0111
13696TIP3   OH262502   3.745   1.206  11.844  0.3408 -0.1769  0.0922
13696TIP3    H162503   3.749   1.286  11.791 -0.1691  0.3355  0.8046
13696TIP3    H262504   3.831   1.166  11.833  0.5651  0.4017 -0.3700
13697TIP3   OH262505   3.791   5.298   5.841 -0.3946  0.3611  1.0315
13697TIP3    H162506   3.857   5.357   5.877 -1.0305  1.4069  0.5337
13697TIP3    H262507   3.730   5.284   5.914 -1.3774  2.0305  0.5827
13698TIP3   OH262508   5.388   1.229  14.409 -0.4867 -0.7277  0.8465
13698TIP3    H162509   5.417   1.144  14.376  0.9861  0.6948 -1.9382
13698TIP3    H262510   5.314   1.252  14.353  0.8244  0.9144 -0.3204
13699TIP3   OH262511   0.267   1.152  12.143 -0.1181 -0.4674  0.5744
13699TIP3    H162512   0.206   1.172  12.071  3.1334 -0.8427 -2.5856
13699TIP3    H262513   0.274   1.057  12.142 -0.3714 -0.5074  1.7539
13700TIP3   OH262514   3.037   1.629   0.701  0.7156 -0.6885 -0.1191
13700TIP3    H162515   3.010   1.538   0.692  1.0683 -0.7956 -0.1200
13700TIP3    H262516   3.065   1.637   0.792  0.4925 -0.5272 -0.0635
13701TIP3   OH262517   0.813   3.427  11.465  0.6960 -0.2086  0.1632
13701TIP3    H162518   0.753   3.456  11.533 -0.5630  2.5683 -1.9378
13701TIP3    H262519   0.900   3.438  11.502  0.0295 -0.3462  1.8334
13702TIP3   OH262520   5.151   4.322   4.131 -0.2823  0.3212 -0.3637
13702TIP3    H162521   5.128   4.285   4.045 -2.7313 -0.4212  0.5094
13702TIP3    H262522   5.214   4.260   4.168 -2.2232 -1.5920 -0.0680
13703TIP3   OH262523   1.378   0.503  10.847 -0.4300  0.3754  0.1438
13703TIP3    H162524   1.390   0.562  10.773  0.5701  1.5251  1.1719
13703TIP3    H262525   1.447   0.438  10.838 -2.0158 -1.1899 -1.4299
13704TIP3   OH262526   3.978   5.288   3.925 -0.0774 -0.2954 -0.5727
13704TIP3    H162527   4.024   5.366   3.895 -0.4005  0.5712  1.1140
13704TIP3    H262528   3.922   5.263   3.851  0.2129  0.9129 -1.2164
13705TIP3   OH262529   1.889   5.416  16.767 -0.4041 -0.3670  0.3669
13705TIP3    H162530   1.859   5.499  16.806 -0.1600 -0.5693  0.9959
13705TIP3    H262531   1.837   5.349  16.811 -2.1319 -0.4469 -1.6073
13706TIP3   OH262532   2.772   1.514  15.028 -0.1504  0.1611  0.2769
13706TIP3    H162533   2.822   1.452  14.975  1.0541  0.2654  1.2349
13706TIP3    H262534   2.762   1.591  14.971 -0.9128 -0.5798 -0.6077
13707TIP3   OH262535   1.107   5.509   4.467  0.8510  0.2699  0.2771
13707TIP3    H162536   1.013   5.510   4.449  0.5050 -0.1298  1.8365
13707TIP3    H262537   1.140   5.591   4.430  0.1631 -0.2341 -1.5328
13708TIP3   OH262538   1.154   4.955  11.589 -0.7177 -0.2398  0.8997
13708TIP3    H162539   1.155   5.008  11.509  1.0540 -0.5215  0.7059
13708TIP3    H262540   1.073   4.981  11.634 -0.8740  1.1736 -0.1402
13709TIP3   OH262541   6.185   2.353  17.115  0.3999  0.0492 -0.0485
13709TIP3    H162542   6.251   2.298  17.156 -0.3036 -0.9826 -0.2458
13709TIP3    H262543   6.150   2.299  17.043 -0.1496  0.8395 -0.3901
13710TIP3   OH262544   3.836   4.428   1.540  0.5923 -0.0328  0.7382
13710TIP3    H162545   3.784   4.483   1.481  0.8911 -0.5641 -0.0338
13710TIP3    H262546   3.926   4.440   1.511  0.5829 -1.7051 -0.1265
13711TIP3   OH262547   0.210   0.485   3.488  0.7150 -0.4471  0.0251
13711TIP3    H162548   0.240   0.528   3.408 -0.8036  1.5339  0.4505
13711TIP3    H262549   0.133   0.435   3.460  0.4332 -0.0947  0.1742
13712TIP3   OH262550   4.732   3.845   4.770  0.3211  0.0689 -0.1712
13712TIP3    H162551   4.765   3.904   4.838 -0.6126 -1.0139  1.2856
13712TIP3    H262552   4.637   3.852   4.777  0.2023  0.5416 -1.9384
13713TIP3   OH262553   4.815   1.442   1.321  0.0531 -0.0530 -0.3809
13713TIP3    H162554   4.723   1.461   1.339  0.2844  1.7370 -0.8941
13713TIP3    H262555   4.815   1.407   1.232 -0.0913  0.2479 -0.4988
13714TIP3   OH262556   2.797   3.884   0.116  0.7425  0.0501 -0.4530
13714TIP3    H162557   2.818   3.798   0.152 -0.5951  0.3900  1.3008
13714TIP3    H262558   2.793   3.870   0.021  1.9147 -1.4783 -0.3143
13715TIP3   OH262559   5.113   3.259   6.389  0.3795  0.5633 -0.0256
13715TIP3    H162560   5.140   3.330   6.330  2.1503  1.9704  2.3153
13715TIP3    H262561   5.019   3.275   6.403  0.2964  1.1815 -1.1191
13716TIP3   OH262562   1.526   4.629   0.736  0.4358 -0.1419 -0.0498
13716TIP3    H162563   1.533   4.718   0.771  1.3598 -0.6773  1.2051
13716TIP3    H262564   1.613   4.611   0.700  0.9742 -1.3230  1.7261
13717TIP3   OH262565   0.120   1.528  14.338 -0.4423 -0.5517  0.1217
13717TIP3    H162566   0.091   1.509  14.249 -1.3709 -0.9324  0.4969
13717TIP3    H262567   0.076   1.610  14.361  0.1891 -0.1879  0.0581
13718TIP3   OH262568   1.389   3.524  15.374 -0.4836 -0.2535  0.0102
13718TIP3    H162569   1.395   3.564  15.461 -0.4842 -0.3521  0.0556
13718TIP3    H262570   1.423   3.436  15.385 -1.0620 -0.4775  0.0493
13719TIP3   OH262571   0.044   4.441  12.484  0.1776 -0.1789 -0.1005
13719TIP3    H162572   0.093   4.365  12.456 -1.0985 -0.9245 -0.3817
13719TIP3    H262573   0.062   4.449  12.578  1.9313  0.4319 -0.4468
13720TIP3   OH262574   1.780   0.075   2.436 -0.1158  0.4031  0.1609
13720TIP3    H162575   1.848   0.020   2.397  0.0222  0.9685 -0.3973
13720TIP3    H262576   1.818   0.106   2.518 -0.0838 -0.0929  0.3368
13721TIP3   OH262577   6.219   5.847  13.668  0.2715  0.0090  0.2935
13721TIP3    H162578   6.198   5.788  13.595  1.3129 -1.5335  1.1834
13721TIP3    H262579   6.268   5.918  13.628  0.7691 -0.7771 -0.5411
13722TIP3   OH262580   0.694   2.401   6.133  0.0411  0.3951 -0.2152
13722TIP3    H162581   0.766   2.452   6.097 -0.4316  0.7463 -0.6630
13722TIP3    H262582   0.663   2.452   6.207  0.2587  0.2351 -0.0110
13723TIP3   OH262583   4.140   6.092   3.073 -0.2634 -0.6063  0.4065
13723TIP3    H162584   4.227   6.125   3.095 -0.3862 -0.3953  0.5785
13723TIP3    H262585   4.116   6.035   3.145  0.0864 -1.3375 -0.0488
13724TIP3   OH262586   1.420   6.597  14.867  0.4209  0.3642 -0.4581
13724TIP3    H162587   1.351   6.537  14.839  1.4714  0.1529 -2.9088
13724TIP3    H262588   1.490   6.540  14.897  0.4880  0.4630 -0.4262
13725TIP3   OH262589   5.709   2.149  12.377  0.1856 -0.2062  0.1367
13725TIP3    H162590   5.673   2.139  12.465 -0.9876 -0.8474 -0.3848
13725TIP3    H262591   5.781   2.087  12.372  0.9781  0.6175  0.9890
13726TIP3   OH262592   2.935   4.938  14.594 -0.8610 -0.1377  0.3454
13726TIP3    H162593   2.920   4.895  14.678  2.4521 -1.3573  0.4502
13726TIP3    H262594   2.887   5.021  14.600 -0.6248 -0.1260  3.4810
13727TIP3   OH262595   1.291   5.713   3.723  0.4044  0.7164 -0.1535
13727TIP3    H162596   1.355   5.721   3.793  0.6060 -1.5390  0.0149
13727TIP3    H262597   1.337   5.745   3.645  1.0635  0.9188  0.3106
13728TIP3   OH262598   6.540   3.890   0.451 -0.4443 -0.1616 -0.6701
13728TIP3    H162599   6.629   3.897   0.417 -0.2597 -0.6144 -0.2909
13728TIP3    H262600   6.539   3.948   0.528  0.2626 -2.0103  0.7995
13729TIP3   OH262601   0.766   5.037  12.177 -0.5977  0.1410  0.3089
13729TIP3    H162602   0.838   5.095  12.202 -0.3132 -1.0352  2.4497
13729TIP3    H262603   0.716   5.025  12.258 -2.4896 -0.0919 -0.8384
13730TIP3   OH262604   0.538   3.156   4.059  0.1346 -0.4548 -0.4675
13730TIP3    H162605   0.468   3.097   4.088 -0.0414 -0.5443 -1.0473
13730TIP3    H262606   0.499   3.207   3.988  0.5054 -0.1436 -0.4547
13731TIP3   OH262607   3.902   2.344   6.396  0.1101  0.1909  0.2856
13731TIP3    H162608   3.808   2.326   6.392 -0.0243  0.6788  0.9849
13731TIP3    H262609   3.943   2.267   6.358 -0.5830  0.0721 -0.2379
13732TIP3   OH262610   2.564   5.277  12.630  0.1885 -0.2299 -0.2496
13732TIP3    H162611   2.539   5.351  12.686  0.4521  0.2460 -0.7487
13732TIP3    H262612   2.494   5.213  12.643  0.3752 -0.2370  0.8145
13733TIP3   OH262613   4.122   4.653   2.427 -0.1516  0.0063  0.2016
13733TIP3    H162614   4.056   4.613   2.484 -1.8174 -0.7820 -2.1505
13733TIP3    H262615   4.160   4.723   2.481 -1.4647 -0.8178  2.3379
13734TIP3   OH262616   1.050   0.883   3.672  0.4523 -0.8364  0.5278
13734TIP3    H162617   1.002   0.802   3.654  3.4366 -2.6388  0.1523
13734TIP3    H262618   1.076   0.875   3.764 -0.2710  0.3342  0.8548
13735TIP3   OH262619   5.112   0.956  16.392 -0.0606 -0.3938 -0.3308
13735TIP3    H162620   5.138   0.984  16.479  1.3151 -1.3290 -0.3969
13735TIP3    H262621   5.049   1.021  16.363  0.6293  0.7936  0.7495
13736TIP3   OH262622   3.808   0.243  12.391  0.4350 -0.0525 -0.0514
13736TIP3    H162623   3.878   0.184  12.363  1.3513  0.7324  0.5368
13736TIP3    H262624   3.825   0.258  12.485 -0.1040  0.7003 -0.0625
13737TIP3   OH262625   0.659   3.874   4.924 -0.0378 -0.7793  0.3911
13737TIP3    H162626   0.585   3.867   4.984  0.9928  0.7043  1.9477
13737TIP3    H262627   0.676   3.784   4.896 -1.0832 -1.4097  1.6873
13738TIP3   OH262628   0.550   2.775  14.050 -0.2260 -0.8884  0.0337
13738TIP3    H162629   0.643   2.796  14.057 -0.4468  0.0868  0.1811
13738TIP3    H262630   0.520   2.824  13.973 -0.9802  0.2352  1.0088
13739TIP3   OH262631   2.254   0.068  17.174 -0.6617 -0.2805  0.1900
13739TIP3    H162632   2.162   0.049  17.187 -0.6119 -0.1369  0.8163
13739TIP3    H262633   2.261   0.163  17.184 -0.3006 -0.3967  1.2032
13740TIP3   OH262634   2.396   6.368  14.973  0.2498  0.2240  0.5551
13740TIP3    H162635   2.473   6.395  15.023 -0.2150  1.8400  0.4579
13740TIP3    H262636   2.329   6.351  15.040 -0.0810  1.4328  0.5537
13741TIP3   OH262637   5.083   2.846  12.565 -0.2385 -0.0948 -0.6167
13741TIP3    H162638   4.996   2.840  12.603 -0.4791  0.0501 -1.1254
13741TIP3    H262639   5.133   2.898  12.627 -0.6878  0.3374 -0.6049
13742TIP3   OH262640   1.521   4.914   1.972 -0.0780 -0.3157  0.1109
13742TIP3    H162641   1.503   4.879   1.884 -1.0951  2.5263 -0.9328
13742TIP3    H262642   1.617   4.914   1.978 -0.0178 -2.0552 -0.2929
13743TIP3   OH262643   1.322   5.511  13.935  0.2547  0.1487 -0.3191
13743TIP3    H162644   1.232   5.542  13.933  0.3597  0.4255 -1.1454
13743TIP3    H262645   1.317   5.423  13.973 -0.4519 -0.1312 -1.0439
13744TIP3   OH262646   3.236   6.346   0.520 -0.0517 -0.1520 -0.3658
13744TIP3    H162647   3.246   6.414   0.453 -1.8849  0.5064 -0.0220
13744TIP3    H262648   3.270   6.386   0.600  0.2005 -0.1811 -0.4555
13745TIP3   OH262649   4.511   4.438  12.441 -0.2697  0.6306 -0.2756
13745TIP3    H162650   4.597   4.418  12.404  0.2836  1.8298  0.3113
13745TIP3    H262651   4.522   4.522  12.485 -2.2382  1.7827 -1.7866
13746TIP3   OH262652   6.179   0.185   1.343  0.0339  0.2354 -0.3093
13746TIP3    H162653   6.233   0.159   1.268  0.0327 -0.3785 -0.1053
13746TIP3    H262654   6.145   0.103   1.378  1.3509  0.3461  1.3527
13747TIP3   OH262655   1.983   5.703   4.913 -0.3214  0.3641 -0.0323
13747TIP3    H162656   1.983   5.625   4.858 -1.1060  0.2924  0.0496
13747TIP3    H262657   1.924   5.764   4.867  0.2353  0.8908 -0.0670
13748TIP3   OH262658   3.199   3.203  13.953 -0.0299  0.0242 -0.4275
13748TIP3    H162659   3.218   3.188  14.045 -1.4665  1.7920  0.2162
13748TIP3    H262660   3.199   3.298  13.943  1.4682 -0.1102 -2.5974
13749TIP3   OH262661   4.926   4.502  15.842 -0.1721  0.4363  0.5194
13749TIP3    H162662   4.853   4.519  15.782 -1.1704 -0.5159  1.4307
13749TIP3    H262663   4.906   4.553  15.920  0.6729  0.9657  0.4059
13750TIP3   OH262664   3.055   4.817  12.560  0.1545  0.2572 -0.4820
13750TIP3    H162665   3.078   4.729  12.529  2.2391  0.5550  0.0824
13750TIP3    H262666   2.962   4.826  12.539 -0.1166 -2.0774 -0.5529
13751TIP3   OH262667   1.773   1.351   4.711  0.0875 -0.2743  0.4232
13751TIP3    H162668   1.726   1.268   4.718  0.6058 -0.7277 -1.1364
13751TIP3    H262669   1.866   1.328   4.716  0.2748  0.0653 -0.8744
13752TIP3   OH262670   5.298   2.339   0.845 -0.0070  0.5128  0.1850
13752TIP3    H162671   5.335   2.262   0.889  1.2137  0.3963 -0.9935
13752TIP3    H262672   5.253   2.303   0.769  0.6686  0.9555 -0.4349
13753TIP3   OH262673   1.517   2.877   4.909 -0.0572  0.8434  0.1470
13753TIP3    H162674   1.571   2.933   4.965 -1.1807  0.5763  1.5568
13753TIP3    H262675   1.548   2.894   4.820  1.3747  1.7359  0.7960
13754TIP3   OH262676   5.759   3.568  11.758 -0.4596 -0.4428  0.5603
13754TIP3    H162677   5.706   3.489  11.770  1.7615 -1.9785  1.0241
13754TIP3    H262678   5.769   3.603  11.846  0.5947 -1.1035  0.7203
13755TIP3   OH262679   6.527   4.533  16.196  0.0535 -0.5324 -0.1323
13755TIP3    H162680   6.508   4.612  16.145 -0.9191 -0.1988  0.7292
13755TIP3    H262681   6.466   4.535  16.269  0.3325 -1.8458  0.1738
13756TIP3   OH262682   6.791   1.384   6.185 -0.1002  0.3884  0.5174
13756TIP3    H162683   6.745   1.300   6.194  1.5826 -0.5773  0.6709
13756TIP3    H262684   6.761   1.436   6.259 -0.9793 -0.1852  0.5816
13757TIP3   OH262685   6.690   1.283   0.630 -0.3153 -0.1203 -0.0980
13757TIP3    H162686   6.611   1.330   0.657 -0.7588 -0.9217  0.0223
13757TIP3    H262687   6.668   1.190   0.640  1.2181 -0.3642  1.6773
13758TIP3   OH262688   1.298   0.766  11.544  0.1794 -0.5568 -0.3549
13758TIP3    H162689   1.370   0.770  11.481  0.2959 -1.2177 -0.2746
13758TIP3    H262690   1.232   0.825  11.508  0.7701  0.0898 -0.4066
13759TIP3   OH262691   3.314   5.366  14.698  0.0632 -0.6698  0.3491
13759TIP3    H162692   3.398   5.395  14.664 -0.4314 -0.2276 -0.5171
13759TIP3    H262693   3.265   5.447  14.714  0.2552 -0.8584  2.0900
13760TIP3   OH262694   3.532   0.406   1.872  0.2034 -0.1608  0.0896
13760TIP3    H162695   3.562   0.488   1.911 -1.0211  0.4183 -0.1359
13760TIP3    H262696   3.588   0.394   1.796 -0.2907  1.0470 -0.4939
13761TIP3   OH262697   1.730   0.356   5.758 -0.7464  0.0707 -0.5594
13761TIP3    H162698   1.799   0.375   5.695  0.0353 -3.1895 -0.8709
13761TIP3    H262699   1.649   0.361   5.708 -0.3350 -0.2213 -1.2599
13762TIP3   OH262700   3.079   0.868   3.027 -0.0964 -0.2663  0.2926
13762TIP3    H162701   3.067   0.952   3.071 -0.2836 -1.3583  2.4218
13762TIP3    H262702   3.172   0.868   3.002  0.1129  0.2262  1.0268
13763TIP3   OH262703   2.788   6.432  17.021 -0.1117 -0.2902 -0.3290
13763TIP3    H162704   2.827   6.507  16.977 -1.5743  0.1574 -0.9390
13763TIP3    H262705   2.694   6.447  17.014 -0.7616 -4.0761 -4.0854
13764TIP3   OH262706   4.312   1.461   4.112  0.4222 -0.0728  0.6206
13764TIP3    H162707   4.310   1.432   4.021  0.5277  0.9979  0.2706
13764TIP3    H262708   4.239   1.521   4.120 -0.3958 -1.1479  1.6047
13765TIP3   OH262709   4.960   5.484  12.707  0.0058 -0.2687  0.7276
13765TIP3    H162710   4.960   5.449  12.796  0.7416 -1.1029  0.4058
13765TIP3    H262711   5.052   5.507  12.690 -0.3905  1.5591  0.8143
13766TIP3   OH262712   5.571   1.615  12.453  0.1438  0.2521  0.4986
13766TIP3    H162713   5.586   1.530  12.412 -1.4812  0.0942  0.1798
13766TIP3    H262714   5.644   1.669  12.423 -0.2293 -0.2733 -1.4910
13767TIP3   OH262715   6.268   2.490   0.821  0.5048 -0.3256 -0.1983
13767TIP3    H162716   6.192   2.510   0.766 -0.9481 -0.7907  1.5679
13767TIP3    H262717   6.247   2.405   0.861  2.1147 -0.6239  0.0691
13768TIP3   OH262718   1.692   4.634  11.781  0.5470  0.6198 -0.3694
13768TIP3    H162719   1.685   4.550  11.827 -3.2787  0.8611 -0.1945
13768TIP3    H262720   1.740   4.690  11.841  2.0977 -1.0642  0.0437
13769TIP3   OH262721   5.751   0.162  12.545  0.4108 -0.2865  0.1265
13769TIP3    H162722   5.775   0.238  12.492 -0.7267  0.5538  0.7939
13769TIP3    H262723   5.659   0.177  12.569  0.6932 -0.9733  1.7620
13770TIP3   OH262724   0.193   0.891  12.204  0.2974  0.6041 -0.4979
13770TIP3    H162725   0.237   0.813  12.239  0.3292 -0.0226 -1.8919
13770TIP3    H262726   0.122   0.909  12.266  0.1282 -0.6881 -0.3012
13771TIP3   OH262727   0.518   2.023  11.183 -0.6966 -0.3906 -0.1556
13771TIP3    H162728   0.596   2.069  11.152  0.5126 -2.0213  0.2935
13771TIP3    H262729   0.457   2.025  11.109  0.2374 -0.0708 -0.9323
13772TIP3   OH262730   2.216   2.615   2.469  0.9970 -0.0989 -0.0628
13772TIP3    H162731   2.190   2.538   2.419  0.9390  0.2438 -0.5712
13772TIP3    H262732   2.268   2.581   2.542 -0.2048 -0.7414  0.5309
13773TIP3   OH262733   3.970   1.186  14.628 -0.0761 -0.0272 -0.0488
13773TIP3    H162734   4.008   1.272  14.611  1.1812 -0.5731 -0.1343
13773TIP3    H262735   3.949   1.152  14.541  1.5228 -0.6933 -0.2197
13774TIP3   OH262736   4.364   5.520   0.598  0.1305 -0.2240  0.2619
13774TIP3    H162737   4.396   5.557   0.516 -0.1154 -0.9434 -0.1690
13774TIP3    H262738   4.357   5.595   0.657  0.6121  0.2547 -0.2720
13775TIP3   OH262739   4.973   0.067  11.578  0.4744  0.1279  0.1300
13775TIP3    H162740   4.958   0.131  11.648  0.6671  0.6522 -0.3001
13775TIP3    H262741   5.001   0.120  11.503 -3.5270  0.1226 -1.6374
13776TIP3   OH262742   3.791   4.299  15.765 -0.3759  0.6816 -0.4925
13776TIP3    H162743   3.745   4.375  15.800 -3.6747 -1.3347 -0.0601
13776TIP3    H262744   3.789   4.235  15.836 -0.6946 -0.9477 -1.9002
13777TIP3   OH262745   1.133   4.048   1.280  0.8560  0.1553  0.4744
13777TIP3    H162746   1.216   4.071   1.321  2.4050 -0.5004 -2.0997
13777TIP3    H262747   1.146   3.959   1.247 -0.6026  0.3057 -0.6129
13778TIP3   OH262748   5.160   5.681  11.336  0.0043  0.1295 -0.0021
13778TIP3    H162749   5.112   5.689  11.254 -0.0009 -0.2499 -0.0380
13778TIP3    H262750   5.140   5.593  11.367  3.8700 -1.6946 -2.0209
13779TIP3   OH262751   4.058   6.520   4.667  0.6791  0.4637  0.2756
13779TIP3    H162752   4.146   6.551   4.686  1.4614  0.0432 -2.2141
13779TIP3    H262753   4.012   6.521   4.751  2.7132  1.7400  1.4290
13780TIP3   OH262754   5.223   0.927   6.220 -0.9843  0.1020 -0.0722
13780TIP3    H162755   5.221   0.893   6.130 -0.2129 -1.0985  0.3299
13780TIP3    H262756   5.137   0.966   6.233 -0.8924  0.8722 -1.5331
13781TIP3   OH262757   6.463   4.052   5.530  0.3669  0.0996 -0.4941
13781TIP3    H162758   6.441   4.080   5.441  1.8916 -0.4354 -1.0779
13781TIP3    H262759   6.543   4.000   5.519 -0.4722 -1.6060  0.9440
13782TIP3   OH262760   1.978   5.357  13.820 -0.0850  0.5633 -0.3783
13782TIP3    H162761   1.953   5.449  13.811 -1.1494  0.2481 -0.8040
13782TIP3    H262762   2.033   5.339  13.744  1.1187  1.1509  0.3327
13783TIP3   OH262763   1.252   3.840   4.246  0.2425 -0.0222  0.4286
13783TIP3    H162764   1.185   3.776   4.270  0.6171 -1.0035 -1.0085
13783TIP3    H262765   1.328   3.814   4.299 -0.6700  1.6371  2.7412
13784TIP3   OH262766   4.775   1.466   4.720 -0.0552 -0.3007  0.7033
13784TIP3    H162767   4.842   1.428   4.663 -2.2331  0.4870 -2.6448
13784TIP3    H262768   4.730   1.390   4.758  0.4555 -0.8829  0.1610
13785TIP3   OH262769   5.514   0.546   0.814 -0.5736 -0.1815 -0.4169
13785TIP3    H162770   5.580   0.528   0.748  1.8174  0.9194  1.5039
13785TIP3    H262771   5.441   0.584   0.765  1.0316  0.4948 -2.4449
13786TIP3   OH262772   4.191   6.789   4.190 -0.2762  0.0296  0.3290
13786TIP3    H162773   4.137   6.837   4.253  1.8809 -1.5667  3.5967
13786TIP3    H262774   4.254   6.853   4.159 -0.2575  0.4173  1.1527
13787TIP3   OH262775   0.169   2.094  16.852  0.1040 -0.1147  0.1994
13787TIP3    H162776   0.240   2.148  16.818 -0.0544  1.1088  1.6637
13787TIP3    H262777   0.175   2.011  16.804  0.3439  1.1861 -2.1498
13788TIP3   OH262778   3.638   2.266  14.776 -0.1416 -0.0382 -0.8326
13788TIP3    H162779   3.593   2.186  14.746  1.1408 -0.8596 -0.6353
13788TIP3    H262780   3.721   2.266  14.730  0.2702  0.6932 -0.1229
13789TIP3   OH262781   1.566   5.115  15.448  0.1399  0.2306 -0.1988
13789TIP3    H162782   1.574   5.095  15.541 -1.7942 -0.6375 -0.1808
13789TIP3    H262783   1.492   5.062  15.418 -0.9214  2.3927 -1.6702
13790TIP3   OH262784   2.218   4.308  16.388  0.2989 -0.1033  0.4080
13790TIP3    H162785   2.143   4.250  16.380  0.3826 -0.0518 -0.9767
13790TIP3    H262786   2.281   4.276  16.324 -0.2552  2.3620 -1.5464
13791TIP3   OH262787   0.402   1.698   3.782  0.1272 -0.9363 -0.0084
13791TIP3    H162788   0.434   1.731   3.866 -1.4139 -2.0671  1.1082
13791TIP3    H262789   0.476   1.650   3.745  0.4750 -1.5028  1.3508
13792TIP3   OH262790   0.554   1.969   5.142  0.3622 -0.0233 -0.1532
13792TIP3    H162791   0.615   2.021   5.194  0.7192 -1.1296  0.5549
13792TIP3    H262792   0.558   2.009   5.055 -1.3355  2.8025  0.9032
13793TIP3   OH262793   4.670   5.181   3.263 -0.4218  0.2542  0.6211
13793TIP3    H162794   4.700   5.245   3.327 -2.8837  0.7680  1.3985
13793TIP3    H262795   4.681   5.096   3.306 -2.3339  0.6150  1.9516
13794TIP3   OH262796   4.655   0.361   0.666 -0.3058 -0.3397  0.1328
13794TIP3    H162797   4.683   0.319   0.585 -0.0701 -2.2132  1.1360
13794TIP3    H262798   4.670   0.454   0.652 -0.3429 -0.6143 -1.9890
13795TIP3   OH262799   2.080   0.468   3.672 -0.1929  0.2059  0.5022
13795TIP3    H162800   2.024   0.405   3.717 -1.0510 -0.1405 -0.9878
13795TIP3    H262801   2.028   0.548   3.667  0.1809  0.4716  0.7633
13796TIP3   OH262802   6.420   5.959  15.708  0.1539 -0.1400 -0.2191
13796TIP3    H162803   6.514   5.952  15.692  0.0671 -3.0521  0.0940
13796TIP3    H262804   6.413   6.015  15.785  1.5149  1.0963 -0.9434
13797TIP3   OH262805   0.922   4.367  15.936 -0.2154 -0.3161  0.0275
13797TIP3    H162806   1.001   4.352  15.988 -2.2181  0.1199  3.4962
13797TIP3    H262807   0.940   4.325  15.852  3.1540 -1.3688  1.1280
13798TIP3   OH262808   0.922   6.775  12.120  0.1404 -0.1325 -0.6798
13798TIP3    H162809   1.013   6.769  12.088 -0.1630  0.1162 -1.6248
13798TIP3    H262810   0.886   6.687  12.105  0.6178 -0.6456  0.9883
13799TIP3   OH262811   3.157   2.001  13.283 -0.1159  0.1865 -0.1339
13799TIP3    H162812   3.175   2.095  13.278  0.9980 -0.0452 -0.8525
13799TIP3    H262813   3.064   1.993  13.258  0.5346  0.8639 -3.2183
13800TIP3   OH262814   1.012   4.692   6.740 -0.4070  0.0182  0.2247
13800TIP3    H162815   1.068   4.717   6.813  0.8465  1.9820 -1.2913
13800TIP3    H262816   1.027   4.760   6.674  0.4758 -2.8954 -2.8939
13801TIP3   OH262817   1.884   2.811  13.782  0.2443  0.0821  0.5012
13801TIP3    H162818   1.826   2.885  13.769  1.3709  0.9059  0.0344
13801TIP3    H262819   1.953   2.821  13.717 -0.7836 -2.6769 -1.2117
13802TIP3   OH262820   6.361   4.676   5.229 -0.6742  0.0820 -0.0989
13802TIP3    H162821   6.332   4.733   5.158 -2.1446 -0.9315 -0.3671
13802TIP3    H262822   6.324   4.590   5.207  0.3447 -0.6631  0.9777
13803TIP3   OH262823   6.575   0.787   1.792  0.3091 -0.2233  0.5510
13803TIP3    H162824   6.567   0.774   1.697  0.8621 -1.7663  0.6958
13803TIP3    H262825   6.523   0.865   1.809 -0.9631 -0.7159 -0.8135
13804TIP3   OH262826   2.523   0.592  16.948 -0.3349  0.6911 -0.4422
13804TIP3    H162827   2.474   0.631  17.020 -1.7934  1.2811 -1.6927
13804TIP3    H262828   2.511   0.497  16.959 -1.7040  0.8183 -0.6535
13805TIP3   OH262829   3.103   4.768  13.335 -0.2397 -0.4288 -0.6242
13805TIP3    H162830   3.144   4.825  13.270  0.3259  0.1622  0.2335
13805TIP3    H262831   3.121   4.679  13.304  1.2437 -0.1703 -0.5470
13806TIP3   OH262832   5.847   4.164   0.021  0.9539  0.4946  0.4748
13806TIP3    H162833   5.858   4.080   0.066 -0.4090 -0.1497 -0.3184
13806TIP3    H262834   5.877   4.147  -0.068 -2.8234 -0.3720 -0.8041
13807TIP3   OH262835   0.085   6.616  16.306  0.4228  0.0495  0.6551
13807TIP3    H162836   0.046   6.693  16.264 -0.4720 -0.3859  0.6594
13807TIP3    H262837   0.159   6.651  16.355 -0.5575  1.0707  1.4691
13808TIP3   OH262838   6.078   3.918   1.948 -0.1059  0.4015  0.3600
13808TIP3    H162839   6.139   3.987   1.974  0.3807 -0.8714  2.8764
13808TIP3    H262840   6.133   3.848   1.914 -0.6003  1.1377 -2.1933
13809TIP3   OH262841   4.261   1.468  14.791 -0.3416  0.0799 -0.6502
13809TIP3    H162842   4.246   1.414  14.869  0.8550 -0.8457 -1.0179
13809TIP3    H262843   4.326   1.533  14.819  0.1995 -0.3444 -0.8892
13810TIP3   OH262844   2.068   1.011   0.193  0.2511 -0.1132  0.7430
13810TIP3    H162845   2.151   1.058   0.184 -0.0282  0.5307  1.4576
13810TIP3    H262846   2.011   1.071   0.240 -0.2295 -1.0213  1.3486
13811TIP3   OH262847   5.524   3.062   0.304 -0.5920  0.2065 -0.6873
13811TIP3    H162848   5.453   3.043   0.244 -0.9163 -0.8633  0.0191
13811TIP3    H262849   5.548   2.978   0.342 -0.8457  0.9224  1.1812
13812TIP3   OH262850   4.854   4.558   5.497  0.3429  0.0546  0.1272
13812TIP3    H162851   4.780   4.616   5.511  0.3120  0.6270 -2.0545
13812TIP3    H262852   4.869   4.517   5.582 -1.2945  1.2901  1.0646
13813TIP3   OH262853   4.916   0.845  14.525 -0.3332 -0.2068 -0.1404
13813TIP3    H162854   4.872   0.894  14.594 -0.4122  1.3309 -1.2531
13813TIP3    H262855   5.007   0.840  14.554 -0.2927  0.7350 -0.0982
13814TIP3   OH262856   0.797   4.538  14.287  0.4332 -0.1066 -0.4417
13814TIP3    H162857   0.809   4.627  14.254 -0.5555 -0.0216 -0.6027
13814TIP3    H262858   0.703   4.523  14.282  0.1976 -0.0476  2.4657
13815TIP3   OH262859   1.125   2.632  11.315 -0.4864  0.0500  0.1021
13815TIP3    H162860   1.096   2.692  11.246 -0.0356 -1.2163 -1.2368
13815TIP3    H262861   1.167   2.560  11.268  0.2450 -0.6335  1.7363
13816TIP3   OH262862   0.139   0.892   0.623 -0.3295  0.9765  0.6446
13816TIP3    H162863   0.178   0.893   0.711 -0.2372  0.5286  0.6122
13816TIP3    H262864   0.156   0.804   0.591  0.3602  1.3934 -0.1572
13817TIP3   OH262865   4.677   0.319   3.444 -0.0662  0.1997 -0.3482
13817TIP3    H162866   4.708   0.394   3.495 -0.5961  1.7670 -2.2222
13817TIP3    H262867   4.748   0.255   3.451  0.2245  0.6560  1.6443
13818TIP3   OH262868   0.023   3.896  11.453 -0.5618  0.2207 -0.0096
13818TIP3    H162869  -0.000   3.831  11.387 -2.0971  0.1635  0.5496
13818TIP3    H262870   0.066   3.845  11.522  1.4772  0.3428 -1.0945
13819TIP3   OH262871   4.760   6.110   3.025  0.6511  0.3736  0.6163
13819TIP3    H162872   4.828   6.165   3.064 -0.8393  3.4765 -0.8120
13819TIP3    H262873   4.688   6.170   3.008 -1.4453 -2.2384 -0.4034
13820TIP3   OH262874   0.330   0.525   0.175  0.9972 -0.5178  0.0526
13820TIP3    H162875   0.278   0.455   0.214 -0.4481  0.9313  0.8411
13820TIP3    H262876   0.270   0.570   0.116  1.1120  1.5502  1.4143
13821TIP3   OH262877   2.338   1.506   0.739  0.0971  0.4625 -0.4405
13821TIP3    H162878   2.408   1.489   0.676  1.4413  0.2882  1.0295
13821TIP3    H262879   2.352   1.441   0.808 -1.7054  0.2470 -0.2395
13822TIP3   OH262880   3.469   1.233  13.338 -0.2819  0.1964  0.9207
13822TIP3    H162881   3.494   1.214  13.247  0.6273 -3.6751  1.7688
13822TIP3    H262882   3.460   1.328  13.341  0.5082  0.5857 -2.9794
13823TIP3   OH262883   1.365   3.918  15.341  0.2876  0.0796 -0.3369
13823TIP3    H162884   1.299   3.901  15.408  0.9018  1.9168  0.8164
13823TIP3    H262885   1.448   3.901  15.384  0.6546 -0.1294 -1.1057
13824TIP3   OH262886   0.356   2.563   4.801  0.2787  0.7067 -0.4884
13824TIP3    H162887   0.367   2.658   4.794  0.5545  1.0381  2.9873
13824TIP3    H262888   0.443   2.530   4.822  0.0172 -0.2565 -0.8545
13825TIP3   OH262889   6.505   6.776   0.189  0.1613 -0.2480  0.3497
13825TIP3    H162890   6.419   6.740   0.168 -0.6062  1.0184  1.2025
13825TIP3    H262891   6.498   6.870   0.170  1.4692 -0.1770  0.1037
13826TIP3   OH262892   5.830   5.586  13.293 -0.3378 -0.3601  0.2832
13826TIP3    H162893   5.752   5.531  13.286 -1.3168  1.0547 -0.2159
13826TIP3    H262894   5.870   5.582  13.206 -0.4532 -0.2233  0.2233
13827TIP3   OH262895   0.266   2.540  11.493  0.1603  0.0913  0.0451
13827TIP3    H162896   0.296   2.562  11.581 -1.4031  1.2551  0.3232
13827TIP3    H262897   0.320   2.465  11.468  0.7349 -0.1851  1.9306
13828TIP3   OH262898   0.694   5.078   2.268 -0.1633  0.3520  0.3128
13828TIP3    H162899   0.754   5.122   2.328 -1.5552  1.0155  1.2535
13828TIP3    H262900   0.645   5.017   2.324  0.2811 -0.8898 -0.6102
13829TIP3   OH262901   5.271   3.199  13.820  0.2680  0.1558 -0.1528
13829TIP3    H162902   5.325   3.131  13.860 -0.5191 -0.8589 -0.7577
13829TIP3    H262903   5.185   3.158  13.809 -0.1542  1.1664 -0.7734
13830TIP3   OH262904   4.280   1.088  11.264 -0.1286 -0.3541  0.4669
13830TIP3    H162905   4.322   1.012  11.303  0.4925 -0.3759 -0.2287
13830TIP3    H262906   4.219   1.052  11.201  1.6091 -0.2858 -1.3464
13831TIP3   OH262907   2.040   0.856  16.304 -0.9066 -0.1807 -0.1809
13831TIP3    H162908   2.121   0.867  16.254 -0.8225  0.7328  0.1346
13831TIP3    H262909   2.065   0.803  16.379 -0.7973 -0.6442 -0.5401
13832TIP3   OH262910   0.807   0.853   0.226  0.7099 -0.3255 -0.2466
13832TIP3    H162911   0.751   0.819   0.156 -1.1999 -1.8888  1.9038
13832TIP3    H262912   0.793   0.948   0.224  0.7512 -0.3207 -1.9587
13833TIP3   OH262913   0.991   2.580  12.648 -0.4246 -0.2351 -0.0078
13833TIP3    H162914   0.927   2.545  12.710  2.2811 -1.4629  2.3186
13833TIP3    H262915   1.051   2.508  12.632  0.1001  0.6869 -2.5771
13834TIP3   OH262916   3.168   3.373   3.173 -0.0399  0.2537 -0.2091
13834TIP3    H162917   3.237   3.433   3.202 -0.0685 -0.3044  1.0675
13834TIP3    H262918   3.189   3.290   3.216 -0.5608 -0.3902 -1.1686
13835TIP3   OH262919   1.167   2.105   0.603  0.1537  0.2286 -0.3573
13835TIP3    H162920   1.119   2.104   0.520 -1.6936 -0.1955  0.6633
13835TIP3    H262921   1.228   2.032   0.596 -0.3271 -0.1097 -1.1639
13836TIP3   OH262922   2.708   2.128   0.866 -0.5637 -0.0571 -0.4217
13836TIP3    H162923   2.692   2.043   0.825  1.5859 -0.7266 -0.0009
13836TIP3    H262924   2.748   2.107   0.950 -2.3574  1.3536  0.8644
13837TIP3   OH262925   4.337   6.787  10.875  0.0069  0.2511  0.2063
13837TIP3    H162926   4.382   6.837  10.807  1.7262  1.5075  2.1346
13837TIP3    H262927   4.252   6.831  10.885 -0.3652 -0.0983 -1.2284
13838TIP3   OH262928   2.256   6.296   3.945 -0.4995  0.2123 -0.0856
13838TIP3    H162929   2.238   6.202   3.951  0.2903 -0.1692 -2.3488
13838TIP3    H262930   2.174   6.338   3.971 -1.7893 -1.2109 -1.5666
13839TIP3   OH262931   6.453   0.200   3.242  0.0572  0.6524 -0.3227
13839TIP3    H162932   6.431   0.208   3.149 -1.7053 -0.3843 -0.0494
13839TIP3    H262933   6.422   0.281   3.281 -0.7424  0.3867 -0.3923
13840TIP3   OH262934   5.683   2.899  16.946  0.8112  0.2396  0.1727
13840TIP3    H162935   5.722   2.950  16.874  0.2946 -1.0319 -1.0649
13840TIP3    H262936   5.741   2.824  16.955  0.1534 -0.2767  0.1763
13841TIP3   OH262937   3.359   0.364   1.572  0.3084  0.0638  0.5126
13841TIP3    H162938   3.389   0.444   1.615  0.1684  1.6151 -2.0627
13841TIP3    H262939   3.422   0.350   1.501 -1.6005 -0.0126 -1.2754
13842TIP3   OH262940   4.110   6.666  13.554 -0.1875 -0.0034 -0.0872
13842TIP3    H162941   4.156   6.717  13.621 -0.6657 -0.5909  0.7011
13842TIP3    H262942   4.126   6.714  13.472  0.4633  0.6840  0.4300
13843TIP3   OH262943   2.906   5.494   6.444  0.1271 -0.0269 -0.5356
13843TIP3    H162944   2.977   5.526   6.499  0.6485 -0.6628 -0.8303
13843TIP3    H262945   2.949   5.460   6.366 -0.5939  0.7294 -1.2790
13844TIP3   OH262946   0.561   2.043   4.876 -0.8620  0.2542  0.7657
13844TIP3    H162947   0.611   2.090   4.810 -0.2887 -2.0711 -0.5681
13844TIP3    H262948   0.469   2.065   4.858 -0.7585 -0.7122 -1.1988
13845TIP3   OH262949   1.902   6.707  12.810  0.3210 -0.2511 -0.0979
13845TIP3    H162950   1.977   6.754  12.775  1.3110  0.4669  2.7376
13845TIP3    H262951   1.833   6.773  12.817  0.9988  0.3267  1.7493
13846TIP3   OH262952   6.335   2.403  12.573 -0.1685  0.0931 -0.7264
13846TIP3    H162953   6.400   2.471  12.556 -0.3492  0.4250 -0.1206
13846TIP3    H262954   6.252   2.451  12.576 -0.1931 -0.0057  0.6478
13847TIP3   OH262955   2.574   2.426  17.214 -0.1646  0.2968  0.4561
13847TIP3    H162956   2.500   2.376  17.180 -2.0823  2.2243  1.5053
13847TIP3    H262957   2.629   2.361  17.258 -1.2425 -1.2085 -0.3563
13848TIP3   OH262958   6.377   4.200  11.824 -0.1624 -0.3223  0.8039
13848TIP3    H162959   6.468   4.229  11.818 -0.8915  2.2727  0.7553
13848TIP3    H262960   6.365   4.177  11.916  0.5222 -0.6616  0.8156
13849TIP3   OH262961   3.208   4.429  11.497  0.4125 -0.1456 -0.0778
13849TIP3    H162962   3.198   4.433  11.402 -0.1508 -0.7670 -0.0490
13849TIP3    H262963   3.134   4.479  11.531  0.7292  0.2503  0.0327
13850TIP3   OH262964   6.452   6.075   6.262 -0.8930 -0.4462  0.2054
13850TIP3    H162965   6.511   6.073   6.337  0.2332  0.5361 -0.6042
13850TIP3    H262966   6.378   6.128   6.291 -0.4373 -0.0225  0.6196
13851TIP3   OH262967   4.997   2.612   2.194  0.1980 -0.0973  0.1972
13851TIP3    H162968   4.999   2.575   2.283  1.4792  0.0232  0.2264
13851TIP3    H262969   4.916   2.664   2.193  0.7433  0.8714  1.7077
13852TIP3   OH262970   5.640   0.496   1.648 -0.0951  0.0874 -0.3548
13852TIP3    H162971   5.690   0.573   1.621  0.3015 -0.6988 -1.9508
13852TIP3    H262972   5.556   0.505   1.603  0.0206 -0.4949 -0.6956
13853TIP3   OH262973   1.628   0.283  17.087 -0.3376 -0.6157 -0.1992
13853TIP3    H162974   1.687   0.347  17.126  1.5803 -1.5567 -1.4191
13853TIP3    H262975   1.600   0.228  17.160  0.4312 -0.2493  0.3764
13854TIP3   OH262976   3.131   4.188  13.531  0.4544  0.2528  0.8902
13854TIP3    H162977   3.203   4.125  13.532 -1.1497 -1.7337 -0.7269
13854TIP3    H262978   3.114   4.203  13.438  0.2635  2.5200  1.2373
13855TIP3   OH262979   6.782   0.898   2.180  0.7286  0.7751  0.1108
13855TIP3    H162980   6.856   0.850   2.144  0.4435 -1.1898  1.9582
13855TIP3    H262981   6.817   0.943   2.256  0.2146  0.5686  0.4754
13856TIP3   OH262982   6.084   3.705   6.433 -0.2207  0.4502  0.6477
13856TIP3    H162983   6.073   3.771   6.364  0.3693  0.2246  0.3314
13856TIP3    H262984   6.003   3.711   6.484 -1.3703 -0.4431 -0.9645
13857TIP3   OH262985   3.187   4.327  17.061 -0.7136  0.1199 -0.3322
13857TIP3    H162986   3.251   4.334  17.132 -1.1156  0.5176 -0.0049
13857TIP3    H262987   3.188   4.234  17.038 -2.8638 -0.7277  2.3637
13858TIP3   OH262988   2.755   5.086   0.186  0.4062  0.1844 -0.4702
13858TIP3    H162989   2.834   5.119   0.228  0.6636 -1.3850  0.3336
13858TIP3    H262990   2.784   5.011   0.134 -0.6523 -1.0650  0.6371
13859TIP3   OH262991   1.366   6.474  13.812  0.2960 -0.2113  0.5541
13859TIP3    H162992   1.305   6.404  13.835 -1.0950  0.4527 -0.9346
13859TIP3    H262993   1.434   6.469  13.879 -0.7554 -1.7547  1.5808
13860TIP3   OH262994   2.755   4.207  14.002  0.3264  0.5684  0.0529
13860TIP3    H162995   2.679   4.180  13.950  0.6487  1.7258 -1.0972
13860TIP3    H262996   2.719   4.234  14.086 -1.0191  3.8463 -1.4030
13861TIP3   OH262997   5.820   5.034   2.146 -0.1914  0.4149  0.1073
13861TIP3    H162998   5.881   5.085   2.199 -0.6074 -0.9388  1.9662
13861TIP3    H262999   5.876   4.989   2.083  0.6701 -0.1656  1.2481
13862TIP3   OH263000   4.652   1.065   2.827 -0.3485 -0.8862  0.5687
13862TIP3    H163001   4.703   1.112   2.892  1.0463 -1.7757  0.1462
13862TIP3    H263002   4.687   0.976   2.828 -1.5015 -1.3724 -0.1520
13863TIP3   OH263003   6.105   1.608  13.627 -0.4299  0.5268  0.6307
13863TIP3    H163004   6.123   1.681  13.686  0.5547  0.4511  0.4368
13863TIP3    H263005   6.095   1.649  13.541  1.2800  0.3593  0.3105
13864TIP3   OH263006   5.803   3.915   5.113  0.3296 -0.1557 -0.6117
13864TIP3    H163007   5.733   3.895   5.174 -0.6587  0.8158 -1.3803
13864TIP3    H263008   5.833   3.830   5.082  0.0771 -0.6121  0.3602
13865TIP3   OH263009   4.751   5.601  16.775  0.3545 -0.3687 -0.4381
13865TIP3    H163010   4.718   5.680  16.818  2.3683 -0.9772  2.5045
13865TIP3    H263011   4.846   5.609  16.779  0.6458 -3.2944  0.8054
13866TIP3   OH263012   4.125   2.193  15.874  0.0663  0.0843  0.0656
13866TIP3    H163013   4.103   2.115  15.923  0.0486 -0.5871 -0.9701
13866TIP3    H263014   4.221   2.193  15.871  0.0686 -1.1548 -1.7949
13867TIP3   OH263015   5.788   0.696   0.270  0.3261  0.7131  0.3736
13867TIP3    H163016   5.805   0.783   0.233 -2.4388  2.0262  1.8949
13867TIP3    H263017   5.841   0.693   0.350 -0.6465  1.6241  1.0734
13868TIP3   OH263018   0.816   4.267  11.445 -0.1833  0.5730  0.0218
13868TIP3    H163019   0.839   4.196  11.505 -0.4836 -0.7204 -1.3215
13868TIP3    H263020   0.823   4.227  11.358 -0.8959  2.0470 -0.7406
13869TIP3   OH263021   3.038   4.300  14.740  0.2142 -0.1917  0.1451
13869TIP3    H163022   3.035   4.383  14.787 -0.1721  0.5083 -1.0618
13869TIP3    H263023   3.026   4.324  14.648  1.3346 -1.4640 -0.3746
13870TIP3   OH263024   0.951   6.522  12.679 -0.3911 -0.0708  0.4042
13870TIP3    H163025   1.033   6.572  12.672 -0.8193  0.6452  0.3944
13870TIP3    H263026   0.961   6.471  12.759 -0.9488  1.9457  1.8499
13871TIP3   OH263027   5.660   4.517  12.350 -0.7440  0.0821 -0.1120
13871TIP3    H163028   5.685   4.534  12.441  0.3983  0.0431 -0.3982
13871TIP3    H263029   5.599   4.444  12.355  0.0031 -0.5132  0.5624
13872TIP3   OH263030   3.633   0.982   5.399 -0.6802  0.2526 -0.5897
13872TIP3    H163031   3.604   1.003   5.310 -0.0067 -1.7329 -1.3366
13872TIP3    H263032   3.563   0.929   5.436 -0.4154  0.0419 -0.3839
13873TIP3   OH263033   5.987   2.270  14.443  0.2569 -0.4623  0.3878
13873TIP3    H163034   5.898   2.252  14.414 -0.2042 -0.0924  1.5163
13873TIP3    H263035   5.990   2.238  14.533  0.9425  0.4942  0.7230
13874TIP3   OH263036   3.658   2.081  15.070 -0.1132 -0.0424 -0.0198
13874TIP3    H163037   3.591   2.046  15.128 -0.3664  0.8848  0.2568
13874TIP3    H263038   3.689   2.160  15.113 -0.1700  0.5561 -1.0516
13875TIP3   OH263039   2.447   0.529   4.002 -0.3581  0.5720  0.3939
13875TIP3    H163040   2.531   0.485   4.016 -1.4516 -1.5951  0.4675
13875TIP3    H263041   2.408   0.484   3.928 -2.1346  0.4837  1.3418
13876TIP3   OH263042   5.196   0.006   5.597 -0.6246  0.3386  0.1260
13876TIP3    H163043   5.117  -0.037   5.630  0.2005  0.3321  2.2638
13876TIP3    H263044   5.268  -0.047   5.631  0.3573  2.0931  0.8914
13877TIP3   OH263045   5.511   0.133   3.421  0.2845 -0.0838 -0.5908
13877TIP3    H163046   5.513   0.166   3.331  0.3133 -1.1626 -0.9998
13877TIP3    H263047   5.433   0.174   3.459 -1.0999 -1.4130 -1.8470
13878TIP3   OH263048   0.128   1.546  12.465  0.0163  0.3211  0.1509
13878TIP3    H163049   0.111   1.638  12.485 -1.2948 -0.2469  1.8689
13878TIP3    H263050   0.058   1.521  12.404 -0.5158  0.1020  0.8379
13879TIP3   OH263051   0.327   6.702   5.942  0.0671 -0.3934  0.1432
13879TIP3    H163052   0.249   6.651   5.963 -1.4773  2.0514  0.7888
13879TIP3    H263053   0.389   6.682   6.012  0.4841 -3.0567 -0.8570
13880TIP3   OH263054   1.345   2.371  13.251 -0.2739 -0.3408  0.0140
13880TIP3    H163055   1.302   2.382  13.336 -0.2135  0.5801 -0.0652
13880TIP3    H263056   1.360   2.461  13.220 -0.2437 -0.6643 -0.9423
13881TIP3   OH263057   4.884   2.073  15.670  0.5882  0.1847  0.0613
13881TIP3    H163058   4.914   2.133  15.739 -1.6572  0.9788  0.4198
13881TIP3    H263059   4.919   2.111  15.589  4.1579 -1.3301  0.7134
13882TIP3   OH263060   1.721   5.302  12.209  0.2630  0.2245 -0.0123
13882TIP3    H163061   1.649   5.299  12.147 -0.0848  1.3366  0.3061
13882TIP3    H263062   1.695   5.370  12.272  1.8050  1.0250 -0.1826
13883TIP3   OH263063   6.345   1.004   1.301 -0.1428 -0.2952 -0.6390
13883TIP3    H163064   6.416   1.047   1.349 -0.5381  0.2791 -0.5664
13883TIP3    H263065   6.325   1.063   1.229 -0.5542 -0.4519 -0.6560
13884TIP3   OH263066   5.156   5.047   4.099 -0.4862 -0.2383 -0.6114
13884TIP3    H163067   5.194   5.067   4.013  0.3203 -1.3093 -0.5241
13884TIP3    H263068   5.077   4.996   4.079 -1.1276  0.7861 -0.7498
13885TIP3   OH263069   5.867   5.527  13.936 -0.2766 -0.3678 -0.2081
13885TIP3    H163070   5.902   5.442  13.910  1.0482  0.1237 -0.1161
13885TIP3    H263071   5.930   5.590  13.902  0.8989  0.3922  3.0374
13886TIP3   OH263072   5.416   4.021  14.641 -0.5878 -0.5642 -0.3663
13886TIP3    H163073   5.391   3.929  14.633 -1.7352 -0.1636 -1.6786
13886TIP3    H263074   5.486   4.034  14.578  0.0298 -0.6736  0.2826
13887TIP3   OH263075   4.782   1.085  15.771  0.1911 -0.0901  0.1336
13887TIP3    H163076   4.726   1.152  15.730  0.5942  0.3385  0.2736
13887TIP3    H263077   4.723   1.038  15.830 -0.3544 -0.5957 -0.7872
13888TIP3   OH263078   2.063   5.234   0.943 -0.2290 -0.6851  0.3537
13888TIP3    H163079   1.976   5.201   0.921 -0.2068  0.3981 -1.5348
13888TIP3    H263080   2.118   5.155   0.949 -1.1678 -1.3168  0.8267
13889TIP3   OH263081   3.833   0.461   4.020 -0.1821  0.4893  0.0248
13889TIP3    H163082   3.778   0.414   4.084 -1.5741  1.1364 -0.6492
13889TIP3    H263083   3.777   0.471   3.943  0.9680  1.0185 -0.7736
13890TIP3   OH263084   3.050   2.162  16.447  0.8787  0.0266 -0.0302
13890TIP3    H163085   3.130   2.135  16.401  0.6621 -0.1683 -0.3038
13890TIP3    H263086   3.014   2.232  16.393  1.5621  1.0362  0.8100
13891TIP3   OH263087   4.281   6.313  16.489 -0.3532 -0.1136  1.1739
13891TIP3    H163088   4.329   6.393  16.467  1.1216 -1.5661 -1.2837
13891TIP3    H263089   4.238   6.288  16.408 -1.2716 -1.5016  2.0632
13892TIP3   OH263090   3.561   3.708  14.497  0.0431  0.2627  0.2362
13892TIP3    H163091   3.554   3.746  14.409 -1.0810  2.6730  1.2579
13892TIP3    H263092   3.647   3.735  14.529 -0.0743  0.5260  0.3365
13893TIP3   OH263093   1.613   0.516   5.114  0.2699 -0.0039  0.2302
13893TIP3    H163094   1.683   0.478   5.061 -1.6691 -1.5928 -1.3858
13893TIP3    H263095   1.610   0.608   5.089 -0.3343 -0.6304 -2.2353
13894TIP3   OH263096   1.979   5.801   2.548  0.2423 -0.0673 -0.1613
13894TIP3    H163097   2.075   5.808   2.544  0.3515 -0.1137  1.5045
13894TIP3    H263098   1.963   5.710   2.573 -0.3173 -0.4249 -1.7341
13895TIP3   OH263099   4.472   0.112   0.600  0.0312 -0.1569 -0.3199
13895TIP3    H163100   4.458   0.026   0.562 -0.3295  0.7361 -2.3339
13895TIP3    H263101   4.566   0.115   0.617  0.3003 -0.4312 -1.6314
13896TIP3   OH263102   2.381   6.001   5.191 -0.1516 -0.0701  0.1571
13896TIP3    H163103   2.340   5.935   5.247 -2.0902 -0.7414 -1.8902
13896TIP3    H263104   2.313   6.069   5.181  0.5454  0.5499 -0.5138
13897TIP3   OH263105   2.611   3.440  14.982 -0.3553 -0.2920  0.0298
13897TIP3    H163106   2.531   3.435  15.035 -0.9123 -2.8051 -0.9167
13897TIP3    H263107   2.629   3.350  14.957  1.0390  0.5716 -2.3962
13898TIP3   OH263108   2.864   1.786  13.110 -0.0188  0.1542  0.2624
13898TIP3    H163109   2.788   1.777  13.053  0.1698  0.5204 -0.0552
13898TIP3    H263110   2.893   1.876  13.097 -0.5744  0.5777  1.7011
13899TIP3   OH263111   4.119   5.265   5.997 -0.2348 -0.2605 -0.1476
13899TIP3    H163112   4.212   5.284   6.012  0.2506 -0.8895 -1.9965
13899TIP3    H263113   4.083   5.348   5.965  0.1798 -0.4819 -1.2625
13900TIP3   OH263114   6.024   4.092  13.248  0.3261  0.4100  0.2316
13900TIP3    H163115   6.117   4.094  13.272 -0.1720 -1.6626  2.7363
13900TIP3    H263116   5.998   4.001  13.262 -2.2111  1.0395  0.0364
13901TIP3   OH263117   0.885   5.799  13.766 -0.0241  0.8618 -0.6575
13901TIP3    H163118   0.943   5.740  13.815 -0.0344 -0.2396 -1.9108
13901TIP3    H263119   0.943   5.856  13.717 -0.0103  1.2954 -0.1376
13902TIP3   OH263120   6.138   3.080  13.123  0.1542 -0.0194  0.1424
13902TIP3    H163121   6.167   3.157  13.075 -1.7740  1.2943  0.9697
13902TIP3    H263122   6.212   3.059  13.180  0.7199  1.2272 -0.0936
13903TIP3   OH263123   4.336   3.563   2.126 -0.1409 -0.0966 -0.1858
13903TIP3    H163124   4.360   3.471   2.137 -2.3672 -0.8935 -1.3152
13903TIP3    H263125   4.418   3.611   2.136  1.8133 -2.4703 -2.9870
13904TIP3   OH263126   3.971   5.872   5.357 -0.1365  0.1411  0.2052
13904TIP3    H163127   4.012   5.788   5.341 -0.6367 -0.1398  0.3722
13904TIP3    H263128   3.993   5.892   5.449  2.5927  1.6744 -0.6656
13905TIP3   OH263129   5.094   1.583  13.268 -0.5221 -0.4423 -0.3541
13905TIP3    H163130   5.141   1.511  13.226 -0.2150 -0.0653 -0.6589
13905TIP3    H263131   5.162   1.644  13.297 -0.8268  0.3530 -1.2465
13906TIP3   OH263132   2.548   4.646  17.062 -0.2587 -0.0251  0.0267
13906TIP3    H163133   2.551   4.634  16.967 -0.4276  1.2469 -0.1612
13906TIP3    H263134   2.506   4.731  17.074  0.0111 -0.0448  1.2325
13907TIP3   OH263135   1.325   3.018  14.495 -0.4294 -0.3826  0.0065
13907TIP3    H163136   1.301   3.038  14.404 -0.8945  0.0690  0.2226
13907TIP3    H263137   1.243   3.029  14.544 -0.3193 -1.2163  0.3901
13908TIP3   OH263138   2.792   6.714   1.294 -0.1981 -0.5883  0.3186
13908TIP3    H163139   2.833   6.631   1.270  1.6334  0.0526  1.0310
13908TIP3    H263140   2.718   6.723   1.234  1.0355 -1.5555 -1.4402
13909TIP3   OH263141   3.020   6.020   5.804  0.3347 -0.5090 -0.4023
13909TIP3    H163142   3.016   6.018   5.900  0.6337  0.7632 -0.3464
13909TIP3    H263143   3.114   6.023   5.784  0.2530  0.7141 -0.6700
13910TIP3   OH263144   1.417   6.673   4.088  0.1795 -0.3046 -0.0376
13910TIP3    H163145   1.352   6.741   4.071  1.2526  0.7521 -0.0116
13910TIP3    H263146   1.446   6.690   4.178  0.6028 -0.6611 -0.1035
13911TIP3   OH263147   1.733   1.251  12.461  0.4885 -0.5732 -0.4614
13911TIP3    H163148   1.826   1.247  12.438  0.3348  1.5397 -1.8023
13911TIP3    H263149   1.717   1.344  12.477 -1.4310 -0.8646 -0.4712
13912TIP3   OH263150   0.849   3.369  13.043 -0.2770  0.6127  0.1034
13912TIP3    H163151   0.797   3.308  13.096  0.1898 -0.7683 -0.9545
13912TIP3    H263152   0.910   3.409  13.104  2.9579 -3.7424  0.2576
13913TIP3   OH263153   0.794   6.192  14.948  0.0192  0.3928 -0.2509
13913TIP3    H163154   0.836   6.110  14.974  0.5681  0.5469 -0.6307
13913TIP3    H263155   0.704   6.183  14.978  0.7316  0.8173  2.2321
13914TIP3   OH263156   1.997   4.823   0.207  0.1119 -0.8441 -0.1948
13914TIP3    H163157   1.966   4.807   0.117  0.5865 -1.8539 -0.1913
13914TIP3    H263158   2.059   4.895   0.198 -0.3706 -0.4631 -0.5691
13915TIP3   OH263159   2.951   3.961  11.871  1.0987  0.0545  0.2741
13915TIP3    H163160   2.912   3.876  11.852 -2.4039  0.9603  2.4773
13915TIP3    H263161   2.921   4.018  11.800 -0.2758  0.3367  1.0350
13916TIP3   OH263162   6.485   6.774  14.353  0.1572  0.2552 -0.4758
13916TIP3    H163163   6.541   6.771  14.275 -0.6434  1.2356 -1.1096
13916TIP3    H263164   6.516   6.851  14.401 -0.0017  0.2238 -0.3224
13917TIP3   OH263165   5.721   5.780  13.987  0.5485  0.1295  0.3626
13917TIP3    H163166   5.739   5.784  14.081  1.4261 -0.9167  0.2562
13917TIP3    H263167   5.765   5.701  13.958  0.0404  0.2911 -0.8888
13918TIP3   OH263168   0.936   5.372  11.359  0.4904 -0.4511 -0.1944
13918TIP3    H163169   0.926   5.431  11.285 -0.7648 -0.4653 -0.0625
13918TIP3    H263170   0.878   5.298  11.339 -0.2876 -0.2072  1.0263
13919TIP3   OH263171   6.369   1.998   6.723 -0.4126  0.3856  0.6344
13919TIP3    H163172   6.303   2.048   6.771 -1.5061 -1.0525  0.6687
13919TIP3    H263173   6.354   2.022   6.631  0.7083  1.9811  0.8139
13920TIP3   OH263174   5.955   3.323  11.127 -0.1127 -0.7059 -0.1751
13920TIP3    H163175   5.923   3.267  11.197  1.5793 -1.1471  0.2921
13920TIP3    H263176   6.050   3.308  11.125 -0.1394 -1.1299 -2.8991
13921TIP3   OH263177   4.434   6.222  14.864 -0.3070 -0.0726  0.1417
13921TIP3    H163178   4.514   6.273  14.855 -0.1345 -0.5657 -1.4118
13921TIP3    H263179   4.380   6.273  14.924  0.8400  0.6739  0.5826
13922TIP3   OH263180   4.172   4.960  14.774 -0.3522 -0.2878 -0.1334
13922TIP3    H163181   4.250   4.957  14.830 -0.4306  1.9489  0.1968
13922TIP3    H263182   4.137   4.871  14.776  1.1309 -0.8907  1.2337
13923TIP3   OH263183   1.317   6.366   5.626 -0.8077  0.1170  0.4846
13923TIP3    H163184   1.226   6.352   5.649 -1.6522  2.0953 -1.3468
13923TIP3    H263185   1.316   6.387   5.533  1.5176  0.2848  0.4248
13924TIP3   OH263186   0.392   1.956  12.040  0.0559  0.1920  0.4645
13924TIP3    H163187   0.357   2.045  12.042  0.6278  0.4818 -1.0476
13924TIP3    H263188   0.315   1.900  12.036 -0.2849  0.6981 -0.2532
13925TIP3   OH263189   6.247   5.802  11.784 -0.5380 -0.1382 -0.0893
13925TIP3    H163190   6.338   5.787  11.807 -0.4967  0.8728  0.4155
13925TIP3    H263191   6.198   5.780  11.863 -0.7840 -1.0887 -0.4871
13926TIP3   OH263192   3.295   4.890   1.223  0.4250 -0.1356 -0.6228
13926TIP3    H163193   3.345   4.957   1.176  0.0696  0.5534 -0.0304
13926TIP3    H263194   3.333   4.890   1.311 -0.4799  0.2458 -0.2282
13927TIP3   OH263195   6.164   6.197  16.414 -0.2423  0.2892 -0.2359
13927TIP3    H163196   6.176   6.164  16.325 -1.1061  1.6771 -0.9081
13927TIP3    H263197   6.076   6.171  16.439  0.3949 -1.0923  0.7011
13928TIP3   OH263198   1.686   0.330   2.619  0.5200 -0.4861 -0.0098
13928TIP3    H163199   1.710   0.418   2.649 -2.2533  0.4624 -0.2691
13928TIP3    H263200   1.766   0.296   2.578  1.0171  2.9495 -2.3117
13929TIP3   OH263201   4.647   0.361   5.898 -0.2651  0.1186 -0.4505
13929TIP3    H163202   4.641   0.265   5.894 -0.1074  0.1371 -2.0929
13929TIP3    H263203   4.600   0.385   5.977  0.0138 -1.3454  0.1883
13930TIP3   OH263204   5.362   5.799   5.223 -0.2555 -0.2507 -0.0534
13930TIP3    H163205   5.390   5.843   5.304  2.9441  1.9110 -2.0894
13930TIP3    H263206   5.364   5.706   5.245  6.2846 -0.3503  1.2004
13931TIP3   OH263207   4.593   4.733  14.535 -0.2310 -0.0615  0.5328
13931TIP3    H163208   4.556   4.777  14.611 -0.2831 -0.2462  0.6156
13931TIP3    H263209   4.624   4.649  14.570  2.1797  0.9195  0.9227
13932TIP3   OH263210   3.323   5.006   5.439 -0.4810 -0.0156  0.3655
13932TIP3    H163211   3.407   5.040   5.408 -0.2016 -1.1119 -0.1137
13932TIP3    H263212   3.324   4.914   5.415 -1.1464 -0.4192  1.7910
13933TIP3   OH263213   4.379   5.764  11.281 -0.1263 -0.6453 -0.4555
13933TIP3    H163214   4.289   5.794  11.289 -0.3389 -1.3597 -0.0231
13933TIP3    H263215   4.405   5.787  11.192 -0.8471 -0.7116 -0.6894
13934TIP3   OH263216   6.557   4.178  16.630  0.4603 -0.1657 -0.2253
13934TIP3    H163217   6.517   4.092  16.639 -0.8309  0.3935 -0.4231
13934TIP3    H263218   6.518   4.230  16.700  0.7484  0.4314 -0.4970
13935TIP3   OH263219   2.647   6.187  13.422 -0.0392  0.2256 -0.4267
13935TIP3    H163220   2.627   6.259  13.483 -0.2299 -0.5566  0.4621
13935TIP3    H263221   2.630   6.108  13.473  0.7055 -0.4547 -1.2140
13936TIP3   OH263222   5.887   2.971  10.971 -0.3507 -0.3340 -0.4016
13936TIP3    H163223   5.967   2.995  10.923 -0.2496 -0.6748 -0.4056
13936TIP3    H263224   5.830   3.047  10.961  0.2083  0.1718  0.1236
13937TIP3   OH263225   4.650   4.737   4.963 -0.5833 -0.1526 -0.2737
13937TIP3    H163226   4.613   4.750   5.050  2.6633  0.4761  1.1413
13937TIP3    H263227   4.721   4.801   4.957 -0.3438 -0.5645 -3.1844
13938TIP3   OH263228   6.375   4.810  14.636  0.1253  0.0907 -0.6300
13938TIP3    H163229   6.339   4.853  14.558 -0.2738  0.3761 -0.2928
13938TIP3    H263230   6.337   4.722  14.634 -1.4747  0.7123  0.2807
13939TIP3   OH263231   0.195   4.153  13.703  0.1116 -0.3029 -0.0746
13939TIP3    H163232   0.184   4.059  13.718 -1.9317 -0.0693  0.2193
13939TIP3    H263233   0.234   4.187  13.783 -0.0451 -0.7643  0.1981
13940TIP3   OH263234   5.957   1.730  16.664 -0.4523 -0.1669 -0.2466
13940TIP3    H163235   5.919   1.728  16.576 -1.4890 -0.9093  0.1977
13940TIP3    H263236   6.044   1.692  16.653  0.2824  1.6903 -1.3150
13941TIP3   OH263237   6.260   1.671  16.964  0.3820  0.5112  0.6646
13941TIP3    H163238   6.268   1.673  17.059  2.3890 -1.9267  0.6354
13941TIP3    H263239   6.347   1.649  16.932 -0.9710 -2.5018 -1.4943
13942TIP3   OH263240   2.403   2.916  14.590  0.1587 -0.5907 -0.3496
13942TIP3    H163241   2.311   2.937  14.573  0.0939  0.0039  0.6953
13942TIP3    H263242   2.450   2.955  14.516 -0.2973  0.3264 -0.1693
13943TIP3   OH263243   4.551   0.077   5.892  0.1417 -0.8308  0.0226
13943TIP3    H163244   4.596   0.025   5.826  1.5821 -0.8039  0.9401
13943TIP3    H263245   4.606   0.069   5.970 -1.4236 -0.7323  1.1780
13944TIP3   OH263246   3.106   2.874  13.391 -0.2568  0.3886  0.1629
13944TIP3    H163247   3.034   2.901  13.448  0.4645 -0.6320  1.5998
13944TIP3    H263248   3.082   2.786  13.362  1.0124 -0.5070  1.7373
13945TIP3   OH263249   6.776   4.114  16.773  0.1503 -0.1648  0.0073
13945TIP3    H163250   6.860   4.086  16.736  0.7866  0.3062  1.0611
13945TIP3    H263251   6.737   4.169  16.705  1.3563  0.7976  0.0581
13946TIP3   OH263252   3.930   4.043  12.655  0.9516  0.0797  0.4692
13946TIP3    H163253   3.977   4.112  12.702  1.4249  1.3175 -1.6678
13946TIP3    H263254   3.977   4.034  12.573 -0.7493 -0.8370 -0.4514
13947TIP3   OH263255   3.482   1.062   3.342 -0.7097  0.0267  0.2786
13947TIP3    H163256   3.473   1.056   3.247  2.5464  0.5692 -0.1910
13947TIP3    H263257   3.511   1.152   3.358  3.1776 -1.2020  1.1821
13948TIP3   OH263258   1.593   1.320   2.043 -0.2023 -0.6322 -0.1103
13948TIP3    H163259   1.633   1.280   2.121  0.1293 -1.2628 -0.5914
13948TIP3    H263260   1.579   1.411   2.067 -0.4117 -0.8901  0.8099
13949TIP3   OH263261   5.779   0.078   1.278 -0.2782 -0.2944 -0.1944
13949TIP3    H163262   5.859   0.108   1.234  0.6552 -0.3869  1.3740
13949TIP3    H263263   5.711   0.137   1.246  0.4151 -0.1673 -1.5206
13950TIP3   OH263264   1.511   5.824   1.990  0.1818 -0.1167  0.4373
13950TIP3    H163265   1.521   5.736   2.028  0.0888  0.1381  1.0770
13950TIP3    H263266   1.520   5.883   2.065  0.5632  0.4390 -0.0420
13951TIP3   OH263267   0.259   3.243   0.122 -0.4170 -0.4809 -0.0925
13951TIP3    H163268   0.252   3.148   0.127  0.7044 -0.6331 -1.0865
13951TIP3    H263269   0.218   3.274   0.203 -0.7235 -1.8017  0.2832
13952TIP3   OH263270   6.044   4.082   1.712  0.5150  0.0575  0.7974
13952TIP3    H163271   6.024   4.018   1.781  2.1819 -0.8575  0.4704
13952TIP3    H263272   6.038   4.167   1.756 -0.2844 -0.3980  1.5978
13953TIP3   OH263273   0.071   0.610  16.578 -0.6668  0.2373 -0.2125
13953TIP3    H163274   0.110   0.523  16.579  0.8246  0.8821  0.1905
13953TIP3    H263275   0.069   0.635  16.486  0.3669  0.3987 -0.1973
13954TIP3   OH263276   0.720   0.399  16.044  0.0287  0.0687  0.1374
13954TIP3    H163277   0.716   0.449  16.126  1.1405  2.0132 -0.9045
13954TIP3    H263278   0.791   0.336  16.058  1.2267  1.3747  0.2199
13955TIP3   OH263279   6.476   3.011   5.635  0.2422 -0.4174 -0.1733
13955TIP3    H163280   6.431   2.975   5.711  1.4201 -0.0706  0.7251
13955TIP3    H263281   6.481   2.938   5.573 -0.0188 -0.9482  0.4165
13956TIP3   OH263282   4.001   0.546   2.354 -0.1107  0.6549  0.1025
13956TIP3    H163283   3.929   0.600   2.388  0.5302  1.1487  0.7177
13956TIP3    H263284   3.978   0.457   2.380 -1.7573  0.4062 -1.9146
13957TIP3   OH263285   3.491   5.640  12.265  0.1022  0.0511  0.3106
13957TIP3    H163286   3.555   5.711  12.275 -0.2288  0.4018 -0.0514
13957TIP3    H263287   3.440   5.664  12.187  0.1942 -0.7458  0.0030
13958TIP3   OH263288   1.183   3.400   1.167  0.0543 -1.0598 -0.7161
13958TIP3    H163289   1.240   3.365   1.235  0.7699 -0.1624 -0.8272
13958TIP3    H263290   1.242   3.419   1.094  0.1375  2.3128  0.0596
13959TIP3   OH263291   3.699   1.718  14.092 -0.2388  0.1484  0.2543
13959TIP3    H163292   3.680   1.788  14.030 -0.8135 -1.1252 -1.0899
13959TIP3    H263293   3.788   1.690  14.071  0.5431  1.3745  1.7488
13960TIP3   OH263294   6.624   0.090   5.526 -0.5201 -0.3397  0.3136
13960TIP3    H163295   6.575   0.028   5.473 -0.2601 -0.8136  0.6160
13960TIP3    H263296   6.652   0.157   5.465 -1.7425  0.0688  0.1770
13961TIP3   OH263297   1.650   5.969   3.258 -0.3723  0.0342 -0.1881
13961TIP3    H163298   1.731   5.984   3.306  0.5392  0.2416 -1.7376
13961TIP3    H263299   1.640   6.046   3.203 -1.0309 -0.4793 -0.8136
13962TIP3   OH263300   4.533   0.741  16.034 -0.0682 -0.1773 -0.2534
13962TIP3    H163301   4.481   0.783  15.966 -1.9617 -1.5904  0.2510
13962TIP3    H263302   4.550   0.810  16.098  0.1456  0.7000 -1.2264
13963TIP3   OH263303   0.844   2.830  10.913  0.6195 -0.3129 -0.2588
13963TIP3    H163304   0.819   2.885  10.988  0.7694  0.5136 -0.8053
13963TIP3    H263305   0.920   2.781  10.944  0.1345 -0.6655  0.4300
13964TIP3   OH263306   2.363   2.252  14.411 -0.3095  0.5571 -0.4031
13964TIP3    H163307   2.274   2.226  14.435 -1.1598  3.4470 -0.1455
13964TIP3    H263308   2.360   2.261  14.316 -0.4709  1.2590 -0.3320
13965TIP3   OH263309   5.807   1.219   0.754 -0.4513 -0.0477 -0.1375
13965TIP3    H163310   5.780   1.140   0.802 -1.9319  0.3096 -0.3318
13965TIP3    H263311   5.816   1.286   0.821 -1.7436  0.2517 -0.2394
13966TIP3   OH263312   5.144   3.381   5.074 -0.4378  0.0398  0.4494
13966TIP3    H163313   5.071   3.319   5.077  0.0376 -0.6067 -0.8106
13966TIP3    H263314   5.112   3.453   5.019 -1.1442  1.1710  2.2521
13967TIP3   OH263315   6.109   3.908  14.379  0.4423  0.4407 -0.3645
13967TIP3    H163316   6.177   3.974  14.390  0.2025  0.4959  0.9346
13967TIP3    H263317   6.155   3.824  14.382  0.4885  0.4865  0.1936
13968TIP3   OH263318   4.656   4.913   3.352  0.7141 -0.0709 -0.0709
13968TIP3    H163319   4.648   4.893   3.446  1.2683  0.6701  0.1439
13968TIP3    H263320   4.739   4.873   3.326 -0.2118 -1.6907 -0.6449
13969TIP3   OH263321   4.251   3.428  15.429 -0.0350  0.2777  0.7630
13969TIP3    H163322   4.197   3.505  15.410  0.3615  0.1242 -1.2579
13969TIP3    H263323   4.249   3.377  15.348  0.6626 -1.2718  1.6747
13970TIP3   OH263324   2.695   6.139  12.773 -0.3482  0.7172  0.4517
13970TIP3    H163325   2.775   6.146  12.826  0.6442 -0.4489 -0.8223
13970TIP3    H263326   2.690   6.047  12.751 -1.7272  0.8935 -0.0148
13971TIP3   OH263327   2.697   4.294  17.046  0.5542 -1.1112 -0.1241
13971TIP3    H163328   2.723   4.385  17.062  1.2094 -1.5558  1.5427
13971TIP3    H263329   2.669   4.293  16.954 -1.3367  1.1895  0.3433
13972TIP3   OH263330   5.911   5.689   1.967  0.1913 -0.9084  0.0713
13972TIP3    H163331   5.870   5.707   1.882  2.4011 -1.0160 -1.1060
13972TIP3    H263332   5.946   5.774   1.995 -0.0139 -0.9903  0.5826
13973TIP3   OH263333   0.500   2.532  16.885 -0.4464  0.0307 -0.5735
13973TIP3    H163334   0.505   2.494  16.973  2.0070  0.4449 -0.4821
13973TIP3    H263335   0.487   2.458  16.827 -2.2391 -0.2411  0.0799
13974TIP3   OH263336   6.515   1.511  12.443 -0.1318 -0.2850 -0.2345
13974TIP3    H163337   6.517   1.557  12.527 -0.2692  1.1358 -0.9746
13974TIP3    H263338   6.555   1.426  12.461 -1.4061 -0.5592  1.5821
13975TIP3   OH263339   3.740   0.314  16.095  0.3240  0.1304 -0.6597
13975TIP3    H163340   3.661   0.341  16.141 -0.6928  0.5428 -2.5373
13975TIP3    H263341   3.808   0.373  16.126 -0.4097  0.6162  0.0472
13976TIP3   OH263342   4.446   0.869  14.485  0.0322 -0.1328 -0.1987
13976TIP3    H163343   4.476   0.800  14.543 -0.1508 -2.5007 -2.6852
13976TIP3    H263344   4.526   0.909  14.451  0.1870 -0.3924 -0.1400
13977TIP3   OH263345   4.540   2.483   2.833 -0.1765  0.0856  0.0229
13977TIP3    H163346   4.588   2.554   2.875 -0.8789 -0.0345  1.0840
13977TIP3    H263347   4.458   2.523   2.804 -0.2056 -0.1000 -0.1596
13978TIP3   OH263348   4.829   4.955  11.423 -0.1416  1.0120  0.1968
13978TIP3    H163349   4.771   5.032  11.432  0.2010  1.4046 -0.8759
13978TIP3    H263350   4.827   4.934  11.330 -1.4951 -1.2975  0.6754
13979TIP3   OH263351   2.484   3.741   5.877 -0.5978 -0.4314  0.3266
13979TIP3    H163352   2.420   3.682   5.915 -0.0693 -1.2013  0.0456
13979TIP3    H263353   2.504   3.703   5.791  0.4958 -0.3969  0.5577
13980TIP3   OH263354   5.968   1.653   5.759  0.1593  0.1494  0.2733
13980TIP3    H163355   6.032   1.724   5.768 -0.2908  0.7571 -1.1513
13980TIP3    H263356   5.920   1.654   5.842  2.7308 -1.1211  1.9332
13981TIP3   OH263357   4.660   2.324  13.222  0.2865 -0.0824  0.3130
13981TIP3    H163358   4.711   2.381  13.279  0.3686 -0.6898  0.8622
13981TIP3    H263359   4.585   2.377  13.195  1.1984  0.8179 -0.5121
13982TIP3   OH263360   1.278   5.112   3.468 -0.5493 -0.2994 -0.0541
13982TIP3    H163361   1.264   5.024   3.433 -1.4590 -0.1671 -0.0566
13982TIP3    H263362   1.338   5.153   3.407 -2.3803  0.0510 -1.7268
13983TIP3   OH263363   5.534   3.906  11.512 -0.4845  0.4941 -0.3962
13983TIP3    H163364   5.589   3.838  11.472 -1.1643 -0.6413  0.5448
13983TIP3    H263365   5.444   3.879  11.494 -0.7688  1.3799 -0.3749
13984TIP3   OH263366   5.098   5.510  15.637  0.2617  0.2899 -0.2063
13984TIP3    H163367   5.193   5.525  15.632  0.1422  0.9836 -0.4714
13984TIP3    H263368   5.084   5.480  15.727  1.0628 -2.3340 -0.8640
13985TIP3   OH263369   0.205   4.472   4.252  0.0842 -0.0167 -0.8973
13985TIP3    H163370   0.192   4.524   4.173  0.8002  1.1298 -0.2849
13985TIP3    H263371   0.296   4.443   4.247  0.6002  1.3152  0.2042
13986TIP3   OH263372   5.383   6.604   2.810 -0.2029 -0.4315 -0.1667
13986TIP3    H163373   5.436   6.682   2.828 -1.7158  0.3349  1.1799
13986TIP3    H263374   5.445   6.531   2.820  0.3727  0.3165  2.8409
13987TIP3   OH263375   1.709   4.876  14.690  0.2325 -0.0369 -0.1773
13987TIP3    H163376   1.733   4.908  14.777 -1.8977 -1.0140  0.8653
13987TIP3    H263377   1.613   4.874  14.691  0.1578 -0.8934 -2.2603
13988TIP3   OH263378   6.703   6.212  11.535  0.3394  0.0792  0.8050
13988TIP3    H163379   6.708   6.133  11.481  0.4958 -0.1098  1.0912
13988TIP3    H263380   6.614   6.211  11.571  0.1197  0.3939  0.2692
13989TIP3   OH263381   6.504   4.873  13.989 -0.0142  0.7054 -0.3138
13989TIP3    H163382   6.457   4.884  13.907  2.0797  2.2352 -1.3910
13989TIP3    H263383   6.460   4.931  14.051 -1.1885  0.0425 -0.4966
13990TIP3   OH263384   5.406   1.121  12.979 -0.1025  0.0855  0.4398
13990TIP3    H163385   5.491   1.160  13.000 -0.1440 -0.5723  1.9695
13990TIP3    H263386   5.383   1.072  13.058 -2.4006  1.1250  0.4796
13991TIP3   OH263387   6.593   4.700   5.605  0.0519  0.5056  0.1546
13991TIP3    H163388   6.685   4.709   5.630 -0.1387  2.6217  0.2866
13991TIP3    H263389   6.546   4.689   5.687  0.0856  0.3634  0.1556
13992TIP3   OH263390   5.039   5.599  14.457 -0.4594  0.0145  0.4083
13992TIP3    H163391   4.981   5.532  14.422 -1.6028  1.9809 -1.8133
13992TIP3    H263392   5.127   5.573  14.428 -0.7308 -1.0803  0.5550
13993TIP3   OH263393   2.206   2.620  14.770 -0.0270 -0.0932 -0.1765
13993TIP3    H163394   2.120   2.662  14.778  0.7326  1.5654 -0.2639
13993TIP3    H263395   2.244   2.627  14.858  0.0640 -0.7304 -0.1604
13994TIP3   OH263396   2.658   1.207  13.241 -0.2802  0.4719 -0.1061
13994TIP3    H163397   2.596   1.163  13.182 -0.1170 -2.3492  1.6364
13994TIP3    H263398   2.611   1.212  13.324  1.0335  0.3394  0.6576
13995TIP3   OH263399   6.536   4.927   3.484  0.6911  0.0566 -0.1560
13995TIP3    H163400   6.568   4.885   3.404  0.1290 -0.3001 -0.2039
13995TIP3    H263401   6.461   4.873   3.510  2.5708 -1.5734  2.2333
13996TIP3   OH263402   0.098   3.534   2.888  0.6572  0.0274 -0.7616
13996TIP3    H163403   0.141   3.450   2.867  1.2227  0.3840 -1.0603
13996TIP3    H263404   0.021   3.535   2.832  1.3430  0.2823 -1.7298
13997TIP3   OH263405   2.333   1.573  15.776 -0.4473  0.0590 -0.5193
13997TIP3    H163406   2.289   1.495  15.809 -0.9209  0.1733 -0.8808
13997TIP3    H263407   2.354   1.552  15.685  2.5243 -0.9975  0.2707
13998TIP3   OH263408   5.718   3.396   2.795 -0.4745  0.0535 -0.9999
13998TIP3    H163409   5.755   3.458   2.732 -1.2325 -1.0436 -2.5659
13998TIP3    H263410   5.787   3.332   2.809  0.5943  1.5432  1.1915
13999TIP3   OH263411   4.233   5.194  16.173  0.7402 -0.0213  0.3895
13999TIP3    H163412   4.167   5.126  16.189 -3.4864  3.0696 -2.0841
13999TIP3    H263413   4.254   5.228  16.260 -2.6026  0.2172  1.2111
14000TIP3   OH263414   3.823   1.869  16.709 -0.1556  0.4334 -0.4696
14000TIP3    H163415   3.754   1.916  16.756  0.3701  2.5275 -1.6241
14000TIP3    H263416   3.901   1.883  16.762 -0.2843 -0.5292 -0.0106
14001TIP3   OH263417   3.425   6.037   4.778 -0.3136  0.0559  0.4212
14001TIP3    H163418   3.501   5.979   4.774  0.7288  1.3592  0.6199
14001TIP3    H263419   3.351   5.979   4.794 -0.2163 -1.9462 -4.5869
14002TIP3   OH263420   0.841   5.402  16.803 -0.0506 -0.3169  0.0382
14002TIP3    H163421   0.858   5.308  16.797  1.4114 -0.2139  1.6492
14002TIP3    H263422   0.823   5.416  16.896 -1.7849  0.7917 -0.4313
14003TIP3   OH263423   3.682   4.578  15.267  0.6010 -0.3582 -0.0543
14003TIP3    H163424   3.745   4.624  15.213  0.0433 -0.6890 -1.0132
14003TIP3    H263425   3.734   4.534  15.334  1.0659  2.6320  1.6882
14004TIP3   OH263426   4.380   3.835   4.899  0.2769  0.3116 -0.5833
14004TIP3    H163427   4.284   3.841   4.901 -0.1654 -2.0672 -4.4357
14004TIP3    H263428   4.402   3.776   4.971 -1.0513  1.2610  0.6529
14005TIP3   OH263429   4.451   3.167   5.411  0.0533 -0.4679 -0.2976
14005TIP3    H163430   4.417   3.122   5.333  0.2967 -1.2627  0.0451
14005TIP3    H263431   4.533   3.121   5.431  0.6027  0.4865 -0.2563
14006TIP3   OH263432   0.963   3.579   4.970  0.5539 -0.1572 -0.4249
14006TIP3    H163433   0.919   3.494   4.972  0.1280  0.0759  1.2560
14006TIP3    H263434   1.033   3.572   5.035  0.0074  1.0272  0.3234
14007TIP3   OH263435   1.495   3.521   6.898 -0.5017 -0.4898 -0.0464
14007TIP3    H163436   1.470   3.496   6.809  0.8560 -1.6236 -0.1416
14007TIP3    H263437   1.587   3.547   6.890 -0.4079 -0.4876  1.0063
14008TIP3   OH263438   2.881   6.643   3.812  0.5165  0.2144 -0.0434
14008TIP3    H163439   2.816   6.573   3.822  1.2928 -0.6219 -0.6965
14008TIP3    H263440   2.961   6.598   3.784  1.5841  1.1286  1.3413
14009TIP3   OH263441   4.531   5.468  10.736 -0.4461 -0.3104  0.0044
14009TIP3    H163442   4.614   5.459  10.782  1.2045  0.5406 -2.6008
14009TIP3    H263443   4.515   5.563  10.735 -1.0463 -0.4100 -0.1875
14010TIP3   OH263444   3.209   5.788   1.533  0.2725  0.2648  0.0880
14010TIP3    H163445   3.286   5.746   1.572  0.5524  2.5449  2.2505
14010TIP3    H263446   3.136   5.760   1.587 -0.1575 -0.4351 -0.8315
14011TIP3   OH263447   2.483   6.455   4.587 -0.3052  0.0203  0.5996
14011TIP3    H163448   2.399   6.495   4.607 -1.3058 -0.9379 -1.4414
14011TIP3    H263449   2.476   6.366   4.622 -0.6222 -0.4558 -0.6595
14012TIP3   OH263450   2.337   3.429  10.528 -0.0205  0.0935  0.1981
14012TIP3    H163451   2.370   3.505  10.480 -0.6779 -0.0705 -0.5381
14012TIP3    H263452   2.388   3.356  10.494 -0.8651 -0.1072 -0.6849
14013TIP3   OH263453   0.236   5.386  15.259  0.2086  0.0647 -0.6561
14013TIP3    H163454   0.230   5.321  15.189  0.5735 -1.3770  0.5981
14013TIP3    H263455   0.309   5.357  15.313  1.0980  2.1452 -0.6409
14014TIP3   OH263456   5.341   0.922   2.494  0.0500  0.2791 -0.6415
14014TIP3    H163457   5.431   0.956   2.490  0.5506 -1.0739 -1.4846
14014TIP3    H263458   5.296   0.964   2.421 -0.4463  2.0581  0.6141
14015TIP3   OH263459   6.616   2.796   5.148  0.2227  0.3299 -0.9640
14015TIP3    H163460   6.698   2.844   5.160  1.0321 -0.9421 -1.2790
14015TIP3    H263461   6.591   2.814   5.057  0.5540  0.1369 -1.0981
14016TIP3   OH263462   2.867   5.506  12.083  0.3413  0.5425  0.7949
14016TIP3    H163463   2.895   5.452  12.157 -1.2545  0.3177  1.2727
14016TIP3    H263464   2.797   5.456  12.041  2.8732 -0.5782 -2.5344
14017TIP3   OH263465   4.245   4.873   5.015  0.4598  0.0434 -0.2670
14017TIP3    H163466   4.261   4.925   4.936 -1.8841  1.9422  0.4012
14017TIP3    H263467   4.165   4.824   4.996  0.3314 -0.1172  0.6453
14018TIP3   OH263468   0.689   4.373  11.122 -0.3725 -0.6242  0.2594
14018TIP3    H163469   0.600   4.338  11.123 -0.8370  0.4910 -0.3342
14018TIP3    H263470   0.740   4.311  11.173 -1.2506 -1.9223 -0.3927
14019TIP3   OH263471   4.133   6.221  14.036  0.1903  0.2944 -0.3429
14019TIP3    H163472   4.222   6.198  14.063 -0.1281  0.3484  0.8220
14019TIP3    H263473   4.094   6.261  14.114 -0.6385  0.8980 -1.0469
14020TIP3   OH263474   6.480   6.446   2.284  0.2913  0.4189  0.6441
14020TIP3    H163475   6.537   6.519   2.263  0.9389 -0.3268 -0.2710
14020TIP3    H263476   6.465   6.454   2.378  2.4746  0.2606  1.0574
14021TIP3   OH263477   6.087   1.262  12.859  0.5162  0.4838 -0.3021
14021TIP3    H163478   6.111   1.316  12.934  1.7530 -0.6551  0.1569
14021TIP3    H263479   5.991   1.258  12.862  0.4082  2.1760 -0.0610
14022TIP3   OH263480   1.648   1.961   4.316 -0.5317 -0.2405 -0.1839
14022TIP3    H163481   1.581   1.916   4.368 -0.0610  0.2297  0.8667
14022TIP3    H263482   1.604   1.983   4.234 -1.5415 -0.3090  0.3231
14023TIP3   OH263483   5.035   5.084  14.908 -0.2958 -0.2087  0.7185
14023TIP3    H163484   4.984   5.111  14.983  1.1016  0.6171  1.4057
14023TIP3    H263485   5.094   5.157  14.890 -0.6857 -0.3101 -1.2947
14024TIP3   OH263486   2.500   2.021  10.890 -0.2097  0.3694 -0.4292
14024TIP3    H163487   2.448   2.087  10.844 -1.5971  1.4993  2.4717
14024TIP3    H263488   2.482   1.940  10.844  0.3251  1.7148 -3.1793
14025TIP3   OH263489   0.884   3.328   5.111 -0.0308 -0.2601  0.0275
14025TIP3    H163490   0.823   3.299   5.180 -1.2795  0.6964 -0.6480
14025TIP3    H263491   0.938   3.250   5.094 -1.3515 -1.2901  0.3316
14026TIP3   OH263492   5.450   2.541   1.893  0.2673 -0.1028 -0.4991
14026TIP3    H163493   5.406   2.457   1.886  0.7001 -0.3379 -0.4827
14026TIP3    H263494   5.404   2.588   1.963 -1.1335  0.4064 -1.7292
14027TIP3   OH263495   1.129   4.629   2.215 -0.0442 -0.3572 -0.0099
14027TIP3    H163496   1.223   4.648   2.214  0.1123 -0.7649  2.1069
14027TIP3    H263497   1.107   4.613   2.124  2.0819 -0.9207 -0.4758
14028TIP3   OH263498   6.188   4.746   6.174  0.0355 -0.2407 -0.4675
14028TIP3    H163499   6.149   4.758   6.260 -1.0000 -0.1487 -0.9281
14028TIP3    H263500   6.233   4.828   6.156 -1.0976  0.3489 -0.6750
14029TIP3   OH263501   4.202   0.291   3.455 -0.3248  0.0141  0.3262
14029TIP3    H163502   4.278   0.325   3.408  0.0972  0.1111  1.0580
14029TIP3    H263503   4.197   0.345   3.534  0.2232 -1.4376  1.3970
14030TIP3   OH263504   4.022   4.443  16.957  0.2166 -0.1121 -0.3420
14030TIP3    H163505   4.054   4.394  16.882 -0.3384  2.3050 -2.3155
14030TIP3    H263506   4.093   4.440  17.020  0.8657 -1.8865 -1.0908
14031TIP3   OH263507   5.065   6.426  14.144 -0.5747 -0.1123 -0.0901
14031TIP3    H163508   5.070   6.508  14.094  0.6461 -1.3403 -2.1357
14031TIP3    H263509   4.991   6.379  14.106  0.8406 -1.3942 -1.4117
14032TIP3   OH263510   2.960   4.577  11.486 -0.5428 -0.5746  0.1596
14032TIP3    H163511   2.882   4.619  11.521  0.3551 -0.6989  2.4461
14032TIP3    H263512   2.926   4.510  11.426 -2.1174  0.3619 -0.0555
14033TIP3   OH263513   0.002   1.157   0.246 -0.5302 -0.2252 -0.1152
14033TIP3    H163514  -0.024   1.241   0.283  0.0781  0.0293 -0.2487
14033TIP3    H263515   0.069   1.125   0.307 -1.3317 -1.0038  0.3863
14034TIP3   OH263516   6.232   4.605   5.787 -0.8110 -0.4594 -0.1408
14034TIP3    H163517   6.195   4.683   5.829  0.4788  0.1515 -0.0859
14034TIP3    H263518   6.226   4.623   5.693 -1.9365 -0.9900 -0.1843
14035TIP3   OH263519   1.990   3.564   5.047  0.6537 -0.0931  0.0114
14035TIP3    H163520   2.080   3.539   5.069  0.3433 -1.5339 -0.2311
14035TIP3    H263521   1.978   3.533   4.957 -0.4542 -1.0092  0.4553
14036TIP3   OH263522   1.249   3.685   0.974 -0.4702  0.5174 -0.2278
14036TIP3    H163523   1.297   3.692   0.892 -0.3474  3.7001 -0.0205
14036TIP3    H263524   1.160   3.714   0.953 -0.8035  0.0666  0.4941
14037TIP3   OH263525   1.395   4.417  14.969  0.5207 -0.0972  0.5688
14037TIP3    H163526   1.397   4.362  15.047  0.5069 -0.4291  0.3376
14037TIP3    H263527   1.342   4.493  14.994  0.6515 -0.1245  0.9286
14038TIP3   OH263528   3.605   3.706   3.554 -0.2429 -0.2424  0.3176
14038TIP3    H163529   3.614   3.758   3.474 -0.7495 -2.4683 -1.2867
14038TIP3    H263530   3.518   3.730   3.588 -0.0441  0.6834  0.1920
14039TIP3   OH263531   3.560   3.649   5.934 -0.8360  0.0702  0.3687
14039TIP3    H163532   3.499   3.719   5.958 -1.6645 -0.6025  0.2503
14039TIP3    H263533   3.534   3.575   5.988 -0.8196 -0.5497 -0.4546
14040TIP3   OH263534   2.745   1.507  12.850 -0.1379  0.2428 -0.2492
14040TIP3    H163535   2.757   1.454  12.770  1.1475 -0.6565  0.5023
14040TIP3    H263536   2.655   1.490  12.876  0.3245 -1.9087  0.1460
14041TIP3   OH263537   4.187   2.502   5.396  0.2215  0.4683  0.1970
14041TIP3    H163538   4.138   2.434   5.350  0.3581  0.1482  0.5196
14041TIP3    H263539   4.186   2.475   5.488 -0.0141  1.0791  0.3839
14042TIP3   OH263540   1.950   5.948   0.124 -0.9176  0.6012 -0.4735
14042TIP3    H163541   1.977   5.880   0.185 -0.7738 -0.0333 -1.2207
14042TIP3    H263542   1.881   5.996   0.170 -1.3330 -0.3345 -0.0865
14043TIP3   OH263543   6.595   4.812  14.340  0.6021 -0.3570  0.6289
14043TIP3    H163544   6.643   4.833  14.259  0.5648 -0.1704  0.6569
14043TIP3    H263545   6.609   4.887  14.397  1.3330 -0.8511  1.1213
14044TIP3   OH263546   5.932   5.034   3.754 -0.7533  0.2004  0.3690
14044TIP3    H163547   5.933   4.943   3.724  0.5268  0.5641 -0.8095
14044TIP3    H263548   6.025   5.060   3.753 -0.5485  0.3538  4.4505
14045TIP3   OH263549   3.616   6.141   6.141 -0.0134  0.6726  0.3773
14045TIP3    H163550   3.704   6.156   6.174  0.5416  0.7831 -1.0887
14045TIP3    H263551   3.559   6.188   6.202  0.9078  0.4168  1.4649
14046TIP3   OH263552   1.013   3.799   3.791  0.1107  0.4186  0.6106
14046TIP3    H163553   1.030   3.827   3.701  2.0315 -0.3090  0.7059
14046TIP3    H263554   0.994   3.880   3.837  0.2500  0.9336 -0.2092
14047TIP3   OH263555   4.249   6.633  12.997  0.4113  0.2564 -0.0932
14047TIP3    H163556   4.156   6.659  12.999  0.7498  1.5116  0.0719
14047TIP3    H263557   4.284   6.677  12.920  0.4543 -1.8552 -1.3853
14048TIP3   OH263558   6.474   2.386  14.460  0.4004 -0.3694 -0.1266
14048TIP3    H163559   6.525   2.422  14.533  1.2020 -1.9410  0.1196
14048TIP3    H263560   6.405   2.452  14.445  3.4075  2.7540 -1.6276
14049TIP3   OH263561   1.909   4.044   3.619 -0.0244  0.9316 -0.4615
14049TIP3    H163562   1.894   4.034   3.712 -0.5106  2.7187 -0.3032
14049TIP3    H263563   1.908   4.139   3.604 -0.9074  0.6728 -2.4269
14050TIP3   OH263564   0.497   1.344  13.704 -0.4113  0.3181 -0.3655
14050TIP3    H163565   0.590   1.322  13.707 -0.5467 -0.2145  0.2117
14050TIP3    H263566   0.490   1.424  13.755 -0.2393  0.4586 -0.5638
14051TIP3   OH263567   3.933   4.767  16.359  0.0244  0.1581 -0.1504
14051TIP3    H163568   3.885   4.848  16.343 -1.9936 -0.8843  0.3055
14051TIP3    H263569   4.001   4.765  16.291 -1.2569  1.1896 -1.5152
14052TIP3   OH263570   5.983   5.790   0.059  0.2124 -0.5761  0.8636
14052TIP3    H163571   5.893   5.820   0.057  0.7043  0.9847  1.2508
14052TIP3    H263572   5.989   5.736   0.138  0.0539  0.8117  1.8518
14053TIP3   OH263573   4.352   4.970  13.654 -0.2724 -0.2643 -0.3537
14053TIP3    H163574   4.269   4.998  13.691 -0.6142 -1.8014  0.1254
14053TIP3    H263575   4.387   5.048  13.611 -2.0254  0.3826 -0.7059
14054TIP3   OH263576   6.422   2.499  13.071 -0.0012 -0.1794  0.3106
14054TIP3    H163577   6.372   2.564  13.120  1.3997  1.4993 -0.3741
14054TIP3    H263578   6.356   2.448  13.024 -1.1193  1.2681  0.2553
14055TIP3   OH263579   4.845   3.621  13.719 -0.1365 -0.6048 -0.3396
14055TIP3    H163580   4.846   3.563  13.795  2.3173  1.6855  1.5527
14055TIP3    H263581   4.914   3.586  13.662  0.1475 -0.5816 -0.0172
14056TIP3   OH263582   6.782   3.141  15.926  0.4651 -0.1328  0.3479
14056TIP3    H163583   6.687   3.130  15.922  0.5240 -0.7576  0.6163
14056TIP3    H263584   6.802   3.200  15.853 -0.2960  1.2689  1.2250
14057TIP3   OH263585   6.346   2.930   1.349 -0.0488  0.4918  0.3277
14057TIP3    H163586   6.268   2.974   1.315  0.2262  0.6526 -0.1165
14057TIP3    H263587   6.315   2.878   1.423 -0.7286 -0.1099 -0.3642
14058TIP3   OH263588   5.514   4.488   0.532  0.1903 -0.0430  0.5424
14058TIP3    H163589   5.605   4.496   0.561  0.9176 -1.1475 -1.2514
14058TIP3    H263590   5.490   4.398   0.552 -0.2155 -0.0082  0.2273
14059TIP3   OH263591   1.905   0.940  14.911 -0.5934 -0.8072  0.2031
14059TIP3    H163592   1.998   0.920  14.916 -0.4426 -0.9760 -2.2339
14059TIP3    H263593   1.862   0.859  14.937 -0.0359 -1.3332 -0.4766
14060TIP3   OH263594   2.666   6.257   4.824 -0.0921  0.4425 -0.3917
14060TIP3    H163595   2.573   6.266   4.803 -0.4546 -0.0346  0.9099
14060TIP3    H263596   2.708   6.236   4.741 -1.0963  0.9655 -1.0473
14061TIP3   OH263597   3.297   3.694   4.394  0.8869 -0.1814  0.1621
14061TIP3    H163598   3.340   3.711   4.311  1.6751 -0.5587  0.4799
14061TIP3    H263599   3.369   3.679   4.456  0.3121 -0.0759  0.8719
14062TIP3   OH263600   4.313   2.687  16.804  0.0575 -0.0697 -1.4646
14062TIP3    H163601   4.396   2.654  16.769  0.4338  1.6079 -2.2551
14062TIP3    H263602   4.288   2.757  16.744 -0.4792  1.3589  0.3318
14063TIP3   OH263603   5.895   2.104  13.902  0.3713  0.1244 -0.3268
14063TIP3    H163604   5.881   2.198  13.916  1.2359  0.0782  1.1169
14063TIP3    H263605   5.937   2.075  13.983 -1.3020 -1.8222 -0.0756
14064TIP3   OH263606   2.643   0.037   1.516  0.3566 -0.5003  0.2124
14064TIP3    H163607   2.712   0.008   1.456 -0.5830 -0.9865 -0.6780
14064TIP3    H263608   2.663   0.129   1.533  0.7955 -0.4248 -0.6484
14065TIP3   OH263609   5.690   6.652   2.365  0.2886 -0.6247  0.3321
14065TIP3    H163610   5.658   6.581   2.309  1.2806 -0.6275 -0.2451
14065TIP3    H263611   5.767   6.685   2.321  1.1173 -0.6340  1.6994
14066TIP3   OH263612   5.486   5.007  15.084 -0.1952  0.1114  0.4068
14066TIP3    H163613   5.546   5.078  15.061 -0.7985  0.8744  1.1436
14066TIP3    H263614   5.399   5.042  15.066 -0.4717 -0.6804  0.1577
14067TIP3   OH263615   2.063   0.987   6.374  0.0222  0.0208 -0.4745
14067TIP3    H163616   2.008   1.028   6.440  1.3748 -0.9656  1.3690
14067TIP3    H263617   2.014   0.995   6.292 -2.7457 -0.6411  1.0143
14068TIP3   OH263618   6.398   4.869   1.063 -0.1959  0.3303  0.9065
14068TIP3    H163619   6.398   4.840   0.972 -0.4840 -0.6511  1.2056
14068TIP3    H263620   6.334   4.812   1.107  0.8922 -0.0975  1.9979
14069TIP3   OH263621   4.880   6.142   0.517  0.5754  0.4623 -0.2618
14069TIP3    H163622   4.975   6.132   0.520  0.6585  1.0393 -0.6982
14069TIP3    H263623   4.851   6.133   0.607  1.0347  0.1961 -0.1392
14070TIP3   OH263624   5.622   6.102  13.493  0.0292 -0.3898  0.6212
14070TIP3    H163625   5.641   6.010  13.510  0.3958 -0.5039 -0.3218
14070TIP3    H263626   5.647   6.115  13.401 -2.4869 -0.0052 -0.0723
14071TIP3   OH263627   3.430   5.279  12.668  0.3920  0.3834 -0.0519
14071TIP3    H163628   3.449   5.352  12.726  0.3950 -1.3340  2.2475
14071TIP3    H263629   3.337   5.289  12.647  0.1793  0.6169  0.9355
14072TIP3   OH263630   3.072   1.416  13.831 -0.6252 -0.2381 -0.3687
14072TIP3    H163631   3.115   1.500  13.844 -1.4775  0.0281  0.9570
14072TIP3    H263632   2.994   1.420  13.887 -0.1374 -2.3116  0.5493
14073TIP3   OH263633   1.337   0.138   0.974  0.2103 -0.6565  0.4163
14073TIP3    H163634   1.286   0.074   1.023 -0.8473 -0.1208  0.0529
14073TIP3    H263635   1.282   0.216   0.973  1.5008  0.2889  0.9062
14074TIP3   OH263636   2.136   6.241   0.207  0.1339 -0.6409 -0.1308
14074TIP3    H163637   2.130   6.158   0.159 -1.3905 -0.6022 -0.0678
14074TIP3    H263638   2.073   6.232   0.278  3.1551 -1.1635  2.6916
14075TIP3   OH263639   3.941   0.835  15.143  0.5258 -0.6925  0.2016
14075TIP3    H163640   4.027   0.869  15.116  0.1056  0.8245  0.6758
14075TIP3    H263641   3.959   0.746  15.175  1.8413 -0.5593 -0.1085
14076TIP3   OH263642   1.344   5.588  12.036 -0.5116  0.1534  0.3448
14076TIP3    H163643   1.319   5.581  11.944  1.4303 -2.0094 -0.0907
14076TIP3    H263644   1.324   5.502  12.073  1.2290  0.1077  1.2624
14077TIP3   OH263645   0.842   0.842  16.306 -0.1931  0.4086 -0.0012
14077TIP3    H163646   0.821   0.801  16.390 -0.4161 -0.2367 -0.3593
14077TIP3    H263647   0.791   0.923  16.305 -1.6034 -0.4494 -0.2646
14078TIP3   OH263648   2.584   1.968  13.321 -0.3261 -0.1554  0.4686
14078TIP3    H163649   2.612   2.017  13.244  1.5859  0.0593  1.2645
14078TIP3    H263650   2.564   2.035  13.386 -0.1334 -0.3726  0.7543
14079TIP3   OH263651   3.323   2.793   4.519  0.6964  0.6412 -0.4967
14079TIP3    H163652   3.305   2.830   4.433 -0.8244 -0.6859 -0.7824
14079TIP3    H263653   3.313   2.699   4.507  1.7867  0.3289  0.8405
14080TIP3   OH263654   3.467   6.258  13.662 -0.0137 -0.0781  0.9767
14080TIP3    H163655   3.546   6.271  13.714  0.7112 -0.9543  0.1300
14080TIP3    H263656   3.482   6.176  13.615  0.2159  1.5711 -2.0730
14081TIP3   OH263657   2.575   4.004   1.506  0.0843  0.0567 -0.2838
14081TIP3    H163658   2.613   4.077   1.457  1.0077 -1.0071 -1.2199
14081TIP3    H263659   2.569   3.933   1.441 -0.8324 -0.6859  0.5884
14082TIP3   OH263660   3.363   0.185   4.136  0.1043 -0.0849 -0.7633
14082TIP3    H163661   3.329   0.165   4.049  0.4366  1.0137 -1.1595
14082TIP3    H263662   3.309   0.133   4.195 -1.6344  0.8471 -1.4454
14083TIP3   OH263663   0.866   2.799  15.949  0.2462 -0.5902 -0.4395
14083TIP3    H163664   0.867   2.768  16.039  1.1090 -1.6971 -0.8077
14083TIP3    H263665   0.847   2.893  15.955 -0.6987 -0.8470  0.8181
14084TIP3   OH263666   0.414   3.608  12.557 -0.2961 -0.0864  0.3661
14084TIP3    H163667   0.462   3.658  12.490  2.6329 -0.0372  2.2971
14084TIP3    H263668   0.408   3.520  12.520  1.9772 -0.2661  0.2275
14085TIP3   OH263669   0.911   6.573  11.890 -1.1609 -0.5428 -0.7036
14085TIP3    H163670   0.994   6.526  11.897 -1.3171 -0.6297  0.9681
14085TIP3    H263671   0.930   6.648  11.834  1.3665  2.1031  3.2326
14086TIP3   OH263672   4.577   3.094   3.000  0.4973  0.2665 -0.1540
14086TIP3    H163673   4.621   3.050   3.073 -0.8606 -0.6606  0.1547
14086TIP3    H263674   4.524   3.025   2.960  1.4001  0.6881 -2.2050
14087TIP3   OH263675   0.318   4.690  13.509 -0.4976  0.5159  0.3547
14087TIP3    H163676   0.234   4.656  13.478  0.2465 -0.6809 -0.4117
14087TIP3    H263677   0.383   4.647  13.455  0.6331  1.4064  0.9588
14088TIP3   OH263678   3.352   0.124  13.502  0.0384 -0.1023  0.1541
14088TIP3    H163679   3.355   0.046  13.447  0.0907  0.5229 -0.7464
14088TIP3    H263680   3.297   0.186  13.454  0.9550  0.8363  0.2774
14089TIP3   OH263681   2.380   2.732   3.209  0.0944 -0.3063  0.1792
14089TIP3    H163682   2.398   2.661   3.147  1.8650 -0.7054  1.0852
14089TIP3    H263683   2.359   2.688   3.291  0.8492  0.1861  0.6540
14090TIP3   OH263684   3.633   6.645  11.933 -0.1749  0.3093 -0.2232
14090TIP3    H163685   3.572   6.674  11.865  0.2969 -1.8140 -1.6487
14090TIP3    H263686   3.578   6.633  12.011 -0.8356  2.1924 -0.3576
14091TIP3   OH263687   3.745   0.331   5.717 -0.1699  0.0098  0.3017
14091TIP3    H163688   3.794   0.259   5.757 -0.3100 -0.3512 -0.1704
14091TIP3    H263689   3.712   0.381   5.792 -1.6447 -1.4652  0.7034
14092TIP3   OH263690   5.193   0.162   0.172  0.0455 -0.0134 -0.3626
14092TIP3    H163691   5.235   0.129   0.252  0.4291  1.6947  0.1801
14092TIP3    H263692   5.137   0.091   0.144  2.2909 -1.9050 -0.3684
14093TIP3   OH263693   4.722   3.023   0.923  0.0636  0.1601 -0.1710
14093TIP3    H163694   4.722   2.995   0.832 -0.8238 -1.3140  0.2449
14093TIP3    H263695   4.755   2.948   0.972  2.8910  1.7387  0.5788
14094TIP3   OH263696   6.753   6.270   0.559 -0.2038  0.8132 -0.1967
14094TIP3    H163697   6.683   6.205   0.553 -1.3781  1.9945  0.2716
14094TIP3    H263698   6.829   6.220   0.590 -1.7257  0.0437  2.6558
14095TIP3   OH263699   4.666   0.857   1.337  0.0518 -0.1544 -0.4277
14095TIP3    H163700   4.701   0.891   1.419 -0.2216 -1.0595  0.0838
14095TIP3    H263701   4.654   0.934   1.282  0.5695  0.4281  0.2514
14096TIP3   OH263702   3.543   4.194   6.709 -0.1788 -0.3931 -0.3392
14096TIP3    H163703   3.477   4.125   6.699  0.3138 -0.8217 -0.7588
14096TIP3    H263704   3.607   4.157   6.770 -0.6559  0.2864  0.6021
14097TIP3   OH263705   5.506   6.385  16.858  0.1315 -0.1374 -0.0220
14097TIP3    H163706   5.525   6.401  16.765  0.8113 -0.1623  0.1059
14097TIP3    H263707   5.443   6.453  16.882  2.7545  2.3514  0.4548
14098TIP3   OH263708   3.585   0.909  10.723 -0.1823  0.0873  0.6751
14098TIP3    H163709   3.652   0.977  10.729 -1.2566  1.2487 -0.0074
14098TIP3    H263710   3.621   0.835  10.772  1.1830  1.0060  1.1091
14099TIP3   OH263711   0.425   2.520  10.909 -0.4490  0.4184 -0.6268
14099TIP3    H163712   0.373   2.559  10.838  0.1894  3.0955  0.2650
14099TIP3    H263713   0.515   2.525  10.878 -0.3416 -0.4896 -0.4981
14100TIP3   OH263714   3.579   5.737   4.196 -0.2738  0.4895  0.2108
14100TIP3    H163715   3.602   5.656   4.151 -2.0351  0.0343  0.0738
14100TIP3    H263716   3.646   5.799   4.169  0.0148 -0.4050 -1.2015
14101TIP3   OH263717   3.529   2.651   0.129  0.0351  0.2109  0.1324
14101TIP3    H163718   3.445   2.667   0.086  0.9253  1.3515 -1.2713
14101TIP3    H263719   3.580   2.603   0.064  0.9577  0.7924  0.4132
14102TIP3   OH263720   6.491   4.812   0.096 -0.2504 -0.1224 -0.5897
14102TIP3    H163721   6.480   4.897   0.139  1.2982  0.7475 -1.8113
14102TIP3    H263722   6.487   4.831   0.003 -0.5110 -1.4970 -0.8726
14103TIP3   OH263723   2.608   4.321   0.996  0.5375 -0.0672  0.1455
14103TIP3    H163724   2.548   4.367   0.938  1.7733 -1.6078 -2.5294
14103TIP3    H263725   2.655   4.391   1.042 -0.2673  1.2208 -0.9100
14104TIP3   OH263726   4.900   4.869   5.062  0.2233  0.2984  0.3262
14104TIP3    H163727   4.933   4.803   5.123  1.5591  1.1645  0.5890
14104TIP3    H263728   4.826   4.910   5.108 -0.5300 -0.8961  0.2081
14105TIP3   OH263729   0.352   0.702  14.462  0.4348 -0.2932  0.7492
14105TIP3    H163730   0.303   0.770  14.509  0.4136 -0.8726  1.5829
14105TIP3    H263731   0.423   0.677  14.521  0.7179 -0.6714  0.2603
14106TIP3   OH263732   2.663   4.562   5.882 -0.0300 -0.0860  0.1161
14106TIP3    H163733   2.680   4.470   5.860 -1.6263 -0.3757 -0.0209
14106TIP3    H263734   2.633   4.601   5.800 -1.4666 -0.0028  0.6513
14107TIP3   OH263735   3.731   1.253   4.766 -0.2390 -0.3460 -0.9333
14107TIP3    H163736   3.764   1.338   4.794  1.3351 -1.2272  0.0331
14107TIP3    H263737   3.806   1.195   4.771 -1.9933 -2.6268  1.8747
14108TIP3   OH263738   4.917   1.352   3.941 -0.2425  0.2341 -0.3465
14108TIP3    H163739   5.003   1.386   3.967  0.8999 -2.3723 -0.4711
14108TIP3    H263740   4.868   1.345   4.022  0.1869  0.3494 -0.0735
14109TIP3   OH263741   3.078   2.283   3.185 -0.1875 -0.0793 -0.6271
14109TIP3    H163742   3.159   2.328   3.163 -0.0443  0.3293  0.6919
14109TIP3    H263743   3.052   2.240   3.103 -0.1909  2.1238 -1.8681
14110TIP3   OH263744   0.874   6.246  10.993  0.5674  0.1687  0.3489
14110TIP3    H163745   0.880   6.270  10.900  0.2944 -0.0637  0.2690
14110TIP3    H263746   0.848   6.153  10.991 -0.4557  0.4369  0.6656
14111TIP3   OH263747   3.787   4.567  16.456  0.3754 -0.1439  0.1396
14111TIP3    H163748   3.851   4.522  16.511 -0.2322  0.6165  1.5568
14111TIP3    H263749   3.837   4.634  16.410  1.1566 -1.7465 -1.4338
14112TIP3   OH263750   5.781   4.521  15.369  0.2378  0.2551 -0.4009
14112TIP3    H163751   5.825   4.582  15.428  1.9411  0.0132 -1.3656
14112TIP3    H263752   5.714   4.574  15.326 -0.5990  0.5831  1.2372
14113TIP3   OH263753   1.329   0.612  13.851  0.3824  0.0566 -0.0902
14113TIP3    H163754   1.336   0.569  13.766  1.0753 -0.1832  0.0767
14113TIP3    H263755   1.263   0.680  13.839 -0.9816 -1.2617 -0.2691
14114TIP3   OH263756   3.694   0.830  11.438 -0.1075 -0.0679  0.1099
14114TIP3    H163757   3.703   0.862  11.348  1.3540 -1.2127 -0.1903
14114TIP3    H263758   3.707   0.736  11.431  1.0863 -0.0536  1.6391
14115TIP3   OH263759   4.270   4.104   0.761  0.1929  0.3381  0.0181
14115TIP3    H163760   4.301   4.182   0.717  0.6265  0.1150 -0.0793
14115TIP3    H263761   4.288   4.033   0.700 -1.7259  0.3451 -0.6155
14116TIP3   OH263762   2.536   3.028   5.061  0.4181 -0.9595  0.2567
14116TIP3    H163763   2.566   3.012   5.150  1.4745 -0.6025 -0.0229
14116TIP3    H263764   2.604   3.083   5.022 -0.2654 -0.7139 -0.6218
14117TIP3   OH263765   4.056   0.832  12.310  0.1961 -0.6127  0.5556
14117TIP3    H163766   4.124   0.826  12.243 -0.6536 -2.2675 -0.2228
14117TIP3    H263767   4.034   0.925  12.313  0.7473 -0.3986 -0.9784
14118TIP3   OH263768   1.644   3.954  11.132 -0.1276  0.3523  0.0846
14118TIP3    H163769   1.633   3.876  11.186 -1.0114  0.2705 -0.1988
14118TIP3    H263770   1.634   3.923  11.042  0.3030  0.6627 -0.0752
14119TIP3   OH263771   1.740   5.534   4.551  0.0494 -0.2333 -0.3401
14119TIP3    H163772   1.712   5.473   4.619 -0.3571  0.8986  0.5305
14119TIP3    H263773   1.669   5.597   4.544  0.0397 -0.3759 -1.9045
14120TIP3   OH263774   5.708   1.449   0.602 -0.6628  0.0391 -0.7581
14120TIP3    H163775   5.720   1.370   0.654  0.8913  0.5922 -0.2019
14120TIP3    H263776   5.733   1.520   0.661 -0.2856  0.7941 -1.7971
14121TIP3   OH263777   4.320   3.168   2.835 -0.3987  0.2107  0.1121
14121TIP3    H163778   4.346   3.106   2.766  0.6879 -0.3864  1.0301
14121TIP3    H263779   4.322   3.253   2.791 -0.5591 -0.2435 -0.8212
14122TIP3   OH263780   6.768   5.399   0.644 -0.2058  0.3152 -0.1040
14122TIP3    H163781   6.676   5.407   0.617 -0.2418  1.2687  0.2535
14122TIP3    H263782   6.785   5.305   0.644 -0.6841  0.2032 -1.8279
14123TIP3   OH263783   4.127   3.618  16.878  0.1940 -0.0578  0.6749
14123TIP3    H163784   4.059   3.578  16.823  0.0693 -0.6139  1.2243
14123TIP3    H263785   4.203   3.561  16.866  0.9850  1.2386 -0.9043
14124TIP3   OH263786   3.479   2.173  15.592 -0.3123 -0.0819 -0.4988
14124TIP3    H163787   3.544   2.220  15.540  0.4096  1.7699  1.8845
14124TIP3    H263788   3.520   2.090  15.612  0.3782  0.1593 -0.8675
14125TIP3   OH263789   4.082   3.017   2.741  0.5071 -0.1747 -0.7026
14125TIP3    H163790   4.036   2.967   2.674 -2.4423 -0.2265  1.1741
14125TIP3    H263791   4.081   3.107   2.709 -1.4489 -0.0912 -0.5708
14126TIP3   OH263792   6.224   4.765  16.841  0.0679 -0.1261 -0.3053
14126TIP3    H163793   6.189   4.737  16.926 -0.1556 -0.7592 -0.5960
14126TIP3    H263794   6.192   4.699  16.779  1.3718 -0.4463 -0.6663
14127TIP3   OH263795   1.550   4.885   5.838  0.1531  0.5980 -0.6696
14127TIP3    H163796   1.557   4.791   5.855  0.8708  0.5129 -1.3842
14127TIP3    H263797   1.528   4.923   5.923 -0.2694 -0.2256 -0.3990
14128TIP3   OH263798   5.104   0.897   5.274  0.4275 -0.0767  0.4338
14128TIP3    H163799   5.161   0.904   5.198 -0.9183 -0.5800 -0.6665
14128TIP3    H263800   5.018   0.873   5.238 -0.0928 -1.0243  2.1704
14129TIP3   OH263801   3.462   0.227  14.424 -0.0513  0.0315  0.0795
14129TIP3    H163802   3.401   0.252  14.355 -0.0021  0.5677  0.2307
14129TIP3    H263803   3.408   0.219  14.502 -0.2907 -1.5617 -0.1959
14130TIP3   OH263804   0.212   5.835   1.263  0.7195 -0.7948 -0.1534
14130TIP3    H163805   0.303   5.856   1.285  1.2169 -1.7780 -1.1725
14130TIP3    H263806   0.209   5.840   1.167 -0.4279 -0.3376 -0.1149
14131TIP3   OH263807   0.749   4.673   0.317  0.0706 -0.3256 -0.1106
14131TIP3    H163808   0.741   4.583   0.349  1.4383 -0.1682  0.7740
14131TIP3    H263809   0.707   4.672   0.231 -0.1964 -1.7378  0.0189
14132TIP3   OH263810   2.961   3.032  14.790  0.6070  0.3496  0.0757
14132TIP3    H163811   2.983   2.969  14.860 -0.6864 -0.5664 -0.3025
14132TIP3    H263812   3.041   3.083  14.778  0.6138  1.1932  2.8776
14133TIP3   OH263813   6.083   5.039  11.580  0.2099  0.2488  0.2247
14133TIP3    H163814   6.118   5.085  11.503 -0.1072 -0.3491 -0.2878
14133TIP3    H263815   6.103   5.097  11.653  1.2268  0.4679 -0.2034
14134TIP3   OH263816   3.233   5.509   4.415  0.2614 -0.2101  0.1185
14134TIP3    H163817   3.259   5.542   4.329 -0.3096  0.6261  0.2541
14134TIP3    H263818   3.213   5.588   4.466 -0.5238 -0.7389  0.6498
14135TIP3   OH263819   0.726   6.629  12.566  0.2291 -0.4832 -0.2089
14135TIP3    H163820   0.782   6.701  12.534  1.0649 -1.1871 -0.3686
14135TIP3    H263821   0.788   6.564  12.599 -0.4192 -1.8794 -1.6133
14136TIP3   OH263822   6.075   5.399  12.652  0.5888  1.2467 -0.7817
14136TIP3    H163823   6.154   5.363  12.691 -0.8559 -1.0607  0.2699
14136TIP3    H263824   6.046   5.332  12.590 -2.7260 -0.1658  1.9296
14137TIP3   OH263825   5.729   1.952   3.001 -0.1383  0.1984 -0.2253
14137TIP3    H163826   5.726   1.972   3.094 -0.7928 -1.3529  0.1161
14137TIP3    H263827   5.815   1.913   2.987 -0.0069  0.5107 -0.2868
14138TIP3   OH263828   6.066   4.902  11.970 -0.0587 -0.6379  0.2647
14138TIP3    H163829   6.044   4.819  11.929  1.6164 -1.0780  0.1858
14138TIP3    H263830   6.046   4.889  12.063 -1.9240 -0.3281 -0.0551
14139TIP3   OH263831   4.591   2.639  16.733 -0.3725  0.1024 -0.1648
14139TIP3    H163832   4.564   2.724  16.700  1.2364  0.6854 -0.0633
14139TIP3    H263833   4.584   2.580  16.657 -1.8936  0.2150 -0.1259
14140TIP3   OH263834   2.290   5.712  11.767  0.0940  0.0411 -0.1653
14140TIP3    H163835   2.359   5.685  11.707  0.0059 -1.8409  0.5066
14140TIP3    H263836   2.218   5.741  11.711  0.5776 -0.2306 -0.9348
14141TIP3   OH263837   5.975   6.688   2.312 -0.1458 -0.0424  0.2005
14141TIP3    H163838   5.977   6.602   2.353  1.2710 -0.1218  0.0144
14141TIP3    H263839   6.048   6.687   2.251  0.5232  1.6415  0.9171
14142TIP3   OH263840   2.217   3.839  16.189  0.1248 -0.2110  0.7669
14142TIP3    H163841   2.256   3.754  16.208  0.3405 -0.4720 -0.7129
14142TIP3    H263842   2.277   3.902  16.229  0.1776 -0.7370  1.5268
14143TIP3   OH263843   2.351   0.507   5.097 -0.3636 -0.0963 -0.1341
14143TIP3    H163844   2.382   0.507   5.007 -0.9523  0.2991 -0.3364
14143TIP3    H263845   2.395   0.431   5.137  1.3379  0.7900 -0.2354
14144TIP3   OH263846   1.482   1.066  14.818  0.1210 -0.3318  0.7773
14144TIP3    H163847   1.512   0.984  14.856 -0.5170 -0.3783  1.1995
14144TIP3    H263848   1.492   1.054  14.723  1.3043 -0.3807  0.8996
14145TIP3   OH263849   4.585   2.632   0.753  0.3594  0.2821 -0.2285
14145TIP3    H163850   4.636   2.554   0.774 -0.9449 -0.4236  0.4536
14145TIP3    H263851   4.581   2.634   0.657 -0.4081 -1.0562 -0.2397
14146TIP3   OH263852   0.574   5.759  14.095 -0.8662  0.2778  0.1627
14146TIP3    H163853   0.613   5.672  14.095 -1.7745 -0.1452  0.3875
14146TIP3    H263854   0.627   5.810  14.156  0.1111  0.0970 -0.5198
14147TIP3   OH263855   0.685   5.516  15.649  0.0905  0.0789  0.4029
14147TIP3    H163856   0.768   5.562  15.649 -0.2643  0.7463  1.0452
14147TIP3    H263857   0.700   5.437  15.596  0.4999  1.3111 -1.4030
14148TIP3   OH263858   0.024   1.364   2.451 -0.1298 -0.2602  0.2659
14148TIP3    H163859   0.070   1.375   2.368 -0.4812  0.9655  0.2166
14148TIP3    H263860   0.093   1.345   2.514  0.4062  0.9194  0.0725
14149TIP3   OH263861   2.574   0.318   0.377  0.6541  0.1293  0.0359
14149TIP3    H163862   2.592   0.361   0.293  0.3268  1.1858  0.4879
14149TIP3    H263863   2.572   0.389   0.440  1.4036 -0.7141  1.0367
14150TIP3   OH263864   0.171   1.054   3.892 -0.1620 -0.0736 -0.2228
14150TIP3    H163865   0.156   1.050   3.986  0.0451  1.1335 -0.1218
14150TIP3    H263866   0.084   1.050   3.853 -0.5661  2.7538  0.1881
14151TIP3   OH263867   3.584   2.501  14.241 -0.0642  0.0094 -0.5866
14151TIP3    H163868   3.594   2.590  14.274  1.4302 -0.3784  0.0714
14151TIP3    H263869   3.493   2.496  14.212 -0.7895  1.1039  1.3424
14152TIP3   OH263870   1.155   1.688   0.148  0.3170  0.4029 -0.0040
14152TIP3    H163871   1.157   1.781   0.123 -2.0699  0.3291 -0.7450
14152TIP3    H263872   1.114   1.688   0.234  1.7451  0.1131  0.6947
14153TIP3   OH263873   5.673   5.939   2.836 -0.5393 -0.2484  0.9317
14153TIP3    H163874   5.743   5.955   2.899 -1.3895 -1.0170  2.1111
14153TIP3    H263875   5.668   5.844   2.828 -2.0191 -0.2558  1.5576
14154TIP3   OH263876   3.586   0.434   5.952  0.6293  0.0208 -0.0203
14154TIP3    H163877   3.497   0.437   5.916  1.1098  0.6412 -1.1904
14154TIP3    H263878   3.579   0.371   6.025 -0.5419 -0.6887 -0.7012
14155TIP3   OH263879   0.341   0.863   1.436 -0.0546  0.2662  0.6119
14155TIP3    H163880   0.335   0.775   1.473  1.6752 -0.8873 -1.6130
14155TIP3    H263881   0.430   0.893   1.458 -0.1119  0.8499  0.0896
14156TIP3   OH263882   5.853   2.789   0.532 -0.0375 -0.6367  0.1373
14156TIP3    H163883   5.897   2.869   0.504 -1.8514  0.8041  1.1617
14156TIP3    H263884   5.762   2.800   0.503 -0.1382 -2.8035 -0.5692
14157TIP3   OH263885   5.132   0.278   2.269 -0.6713 -0.3698  0.2798
14157TIP3    H163886   5.115   0.184   2.261 -0.5937 -0.2332 -2.4010
14157TIP3    H263887   5.107   0.299   2.359 -1.0902 -2.8658  0.8231
14158TIP3   OH263888   2.520   0.080  10.726  0.1133 -0.0362 -0.0675
14158TIP3    H163889   2.548   0.128  10.804 -1.1721 -1.6062  1.4155
14158TIP3    H263890   2.433   0.114  10.707  0.5167  0.5089 -0.9899
14159TIP3   OH263891   0.756   3.774  14.479  0.0026  0.5163  0.0358
14159TIP3    H163892   0.701   3.831  14.533  0.7530  0.6886  0.6387
14159TIP3    H263893   0.749   3.810  14.391 -2.7792 -0.8935 -0.4341
14160TIP3   OH263894   0.676   1.768   2.737 -0.2119 -0.4279  0.4620
14160TIP3    H163895   0.734   1.694   2.720  0.8023  0.6080 -0.9293
14160TIP3    H263896   0.733   1.833   2.779 -0.2569  0.7088 -1.1673
14161TIP3   OH263897   3.150   0.647  11.998  0.1953  0.1245 -0.7685
14161TIP3    H163898   3.232   0.629  11.952  1.4500 -0.3128  1.4745
14161TIP3    H263899   3.089   0.581  11.965  1.5503 -1.3064 -0.5713
14162TIP3   OH263900   2.476   3.752   2.840 -0.5561 -0.3619  0.4791
14162TIP3    H163901   2.437   3.791   2.918 -0.7570 -0.9241  0.6646
14162TIP3    H263902   2.405   3.702   2.799 -0.4908  0.0472 -0.1457
14163TIP3   OH263903   5.657   0.529  13.664 -0.2694  0.2403 -0.0731
14163TIP3    H163904   5.746   0.555  13.642  1.2517 -3.1727  1.3059
14163TIP3    H263905   5.631   0.587  13.736  0.8041  1.2712 -0.4942
14164TIP3   OH263906   6.790   3.594  15.185 -0.4407  0.0210 -0.0387
14164TIP3    H163907   6.697   3.585  15.207 -0.3615  0.2177  0.3909
14164TIP3    H263908   6.829   3.511  15.211 -0.2002  0.5433  1.3738
14165TIP3   OH263909   1.061   1.422   3.338 -0.3371  0.4262 -0.9150
14165TIP3    H163910   1.031   1.477   3.265 -0.7933  0.1287 -0.9545
14165TIP3    H263911   1.155   1.437   3.342 -0.2751  0.2736 -1.7063
14166TIP3   OH263912   3.493   6.357   1.069  0.6077  0.1356 -0.0485
14166TIP3    H163913   3.536   6.375   1.153 -1.5212  0.6206  1.0228
14166TIP3    H263914   3.432   6.286   1.089 -0.1003  0.4273 -1.1007
14167TIP3   OH263915   1.767   3.289   6.218 -0.1230 -0.0179  0.4821
14167TIP3    H163916   1.757   3.382   6.239  0.7965  0.0630  0.5996
14167TIP3    H263917   1.834   3.257   6.279  0.2963 -0.5139 -0.2214
14168TIP3   OH263918   1.907   2.598   6.773 -0.6666 -0.0881  0.1124
14168TIP3    H163919   1.930   2.551   6.692  0.2398 -0.4896  0.5795
14168TIP3    H263920   1.991   2.613   6.815 -1.0957  0.5731  0.7366
14169TIP3   OH263921   3.114   0.750   6.539 -0.2172  0.2989  0.0115
14169TIP3    H163922   3.140   0.658   6.541 -0.7864  0.1079 -0.6775
14169TIP3    H263923   3.042   0.757   6.601  1.0274  0.7078  1.4933
14170TIP3   OH263924   2.172   0.275  14.093 -0.3345 -0.9545  0.4296
14170TIP3    H163925   2.172   0.268  14.189 -1.2082 -1.1018  0.4286
14170TIP3    H263926   2.233   0.208  14.064  0.9718 -0.0344  0.9258
14171TIP3   OH263927   4.916   5.803  13.362  0.0747  0.5311  0.3047
14171TIP3    H163928   4.993   5.773  13.313  0.4346 -0.0727  1.2059
14171TIP3    H263929   4.870   5.722  13.385 -0.8532  0.8894 -0.2449
14172TIP3   OH263930   5.047   3.687  12.749 -0.2033  0.2886  0.9246
14172TIP3    H163931   5.051   3.729  12.663  3.3748 -1.3328  0.1184
14172TIP3    H263932   5.133   3.703  12.788 -0.0738 -2.8554  2.2360
14173TIP3   OH263933   5.218   6.127  12.318  0.0005 -0.4916  0.2265
14173TIP3    H163934   5.243   6.146  12.408 -0.0506  2.7495 -0.3208
14173TIP3    H263935   5.301   6.110  12.273  0.4159  1.3249  0.2391
14174TIP3   OH263936   1.855   3.671   0.405 -0.3451 -0.0702 -0.7247
14174TIP3    H163937   1.807   3.661   0.488  0.8093  1.0541  0.1087
14174TIP3    H263938   1.899   3.587   0.393 -1.0868 -0.4927 -0.5788
14175TIP3   OH263939   0.947   2.801   6.507  0.3171  0.0032 -0.9813
14175TIP3    H163940   0.900   2.776   6.586 -0.7051 -1.9380 -2.1279
14175TIP3    H263941   1.035   2.763   6.518  0.3286  0.1489 -0.5786
14176TIP3   OH263942   0.636   3.344   5.861 -0.3525  0.3428 -0.6741
14176TIP3    H163943   0.731   3.335   5.859 -0.3891  0.0665 -1.3136
14176TIP3    H263944   0.611   3.318   5.950 -0.0468 -1.9456 -1.1984
14177TIP3   OH263945   5.069   6.597  12.774  0.6253 -0.0328  0.2966
14177TIP3    H163946   5.052   6.503  12.766 -0.7237  0.0467  1.7755
14177TIP3    H263947   5.112   6.620  12.692 -0.6451 -1.6051 -0.8873
14178TIP3   OH263948   6.384   3.628  17.169 -0.0728  0.1497 -0.8744
14178TIP3    H163949   6.443   3.674  17.230  0.6397  0.0873 -1.5055
14178TIP3    H263950   6.296   3.650  17.200  0.2643  1.2350 -0.6389
14179TIP3   OH263951   0.210   0.771   5.810 -0.0520 -0.3920 -0.0913
14179TIP3    H163952   0.251   0.685   5.799  0.4990  0.1284 -3.2578
14179TIP3    H263953   0.230   0.796   5.900  1.0712 -2.9072  0.4497
14180TIP3   OH263954   0.120   0.461   5.544 -0.1326  0.0080 -0.3635
14180TIP3    H163955   0.214   0.475   5.557 -0.5158  1.0706  1.5391
14180TIP3    H263956   0.110   0.366   5.541  1.0223 -0.1229 -0.9947
14181TIP3   OH263957   1.434   0.096  15.927  0.1312 -0.0126  0.6922
14181TIP3    H163958   1.516   0.123  15.884  0.6376 -0.6253  1.2530
14181TIP3    H263959   1.398   0.177  15.961  0.7216  0.2132  0.8005
14182TIP3   OH263960   0.579   0.727  11.266 -0.4068 -0.0035 -0.0382
14182TIP3    H163961   0.548   0.692  11.182 -1.3792 -0.5302  0.5199
14182TIP3    H263962   0.648   0.789  11.242 -0.6913 -0.1174 -1.2305
14183TIP3   OH263963   3.204   1.682   1.589 -0.1160 -0.0458 -0.3398
14183TIP3    H163964   3.171   1.757   1.639  2.8896  1.5588 -0.5560
14183TIP3    H263965   3.252   1.630   1.652 -1.9425 -1.7707 -0.2586
14184TIP3   OH263966   1.120   4.354  14.616  0.0605 -0.1190  0.1310
14184TIP3    H163967   1.212   4.344  14.643 -0.7529 -1.1112  2.9018
14184TIP3    H263968   1.070   4.333  14.695 -2.5973 -0.7364 -1.6054
14185TIP3   OH263969   5.242   0.868  15.017  0.3382  0.2975 -0.6210
14185TIP3    H163970   5.256   0.835  15.106 -0.5053 -0.4983 -0.7708
14185TIP3    H263971   5.330   0.873  14.979  0.5715 -0.8637 -0.2646
14186TIP3   OH263972   4.611   6.662   5.716 -0.1414 -0.1562 -0.5199
14186TIP3    H163973   4.551   6.632   5.648 -2.2787  0.9881  0.7243
14186TIP3    H263974   4.634   6.582   5.764 -0.0463 -0.7176 -1.4751
14187TIP3   OH263975   3.652   0.645  10.803 -0.4614 -0.2224 -0.3233
14187TIP3    H163976   3.687   0.639  10.891 -0.8494 -0.8352 -0.2049
14187TIP3    H263977   3.729   0.640  10.746 -0.1548  0.7463 -0.0190
14188TIP3   OH263978   4.777   1.985  16.974  0.2835 -0.5051  0.5809
14188TIP3    H163979   4.762   1.936  17.055  1.5532  0.2951  1.3279
14188TIP3    H263980   4.807   2.071  17.003 -2.8451  1.1804 -0.6576
14189TIP3   OH263981   1.140   3.321  15.361 -1.1354 -0.5519 -0.5635
14189TIP3    H163982   1.060   3.322  15.413 -1.4486 -2.1948 -0.9461
14189TIP3    H263983   1.151   3.411  15.331 -2.0715 -0.0175  0.6312
14190TIP3   OH263984   3.174   6.454  12.976  0.3934  0.1284  0.3137
14190TIP3    H163985   3.226   6.510  12.919  0.1921  1.2980  1.2230
14190TIP3    H263986   3.130   6.516  13.035 -3.4080 -0.5959 -1.4725
14191TIP3   OH263987   5.549   6.659   3.430  0.5704 -0.2480  0.4912
14191TIP3    H163988   5.531   6.753   3.422 -0.3685 -0.3369  1.2426
14191TIP3    H263989   5.566   6.630   3.341 -0.7323  0.3504  0.0099
14192TIP3   OH263990   4.259   4.680   4.436  0.4947 -0.2202 -0.0691
14192TIP3    H163991   4.216   4.722   4.511 -0.5393  0.5071 -1.0376
14192TIP3    H263992   4.302   4.603   4.473  1.0908  0.8077  1.4837
14193TIP3   OH263993   5.192   4.728  16.526 -0.2565  0.1952 -0.0420
14193TIP3    H163994   5.174   4.800  16.587 -0.1059  0.6511 -0.5237
14193TIP3    H263995   5.189   4.649  16.580 -1.7828  0.4178  0.2599
14194TIP3   OH263996   4.274   3.560  12.992  0.5237  0.1323  0.3989
14194TIP3    H163997   4.250   3.575  13.084 -0.8036  1.2983 -0.0827
14194TIP3    H263998   4.359   3.603  12.982  0.1027  1.0884  0.8068
14195TIP3   OH263999   1.996   1.972  14.159  1.3011 -0.1423  0.4243
14195TIP3    H164000   1.986   1.880  14.137 -1.2925  0.4697 -1.4570
14195TIP3    H264001   2.003   1.974  14.254  1.3546 -2.2357  0.5126
14196TIP3   OH264002   3.570   3.624   0.159 -0.5362 -0.0740 -0.0814
14196TIP3    H164003   3.549   3.646   0.068 -0.9615  0.6589  0.1902
14196TIP3    H264004   3.666   3.630   0.164 -0.5082 -0.1615 -0.4896
14197TIP3   OH264005   0.105   2.830   4.210 -0.2229 -0.4889 -0.1885
14197TIP3    H164006   0.040   2.890   4.245  0.0000 -0.8475  0.8923
14197TIP3    H264007   0.147   2.792   4.288  1.9442  0.4480 -0.8093
14198TIP3   OH264008   6.399   2.459   5.426 -0.2120  0.7200 -0.0764
14198TIP3    H164009   6.439   2.500   5.502 -0.1449  1.6028 -0.5730
14198TIP3    H264010   6.400   2.527   5.359  0.3428 -0.2338 -1.0795
14199TIP3   OH264011   5.360   5.923   4.878 -0.0076  0.1834 -0.2648
14199TIP3    H164012   5.272   5.928   4.841 -0.6460 -1.2614  0.9557
14199TIP3    H264013   5.392   5.836   4.854  0.1564 -0.1938  1.2326
14200TIP3   OH264014   3.122   0.649  16.735  0.0216  0.1793  0.1545
14200TIP3    H164015   3.142   0.742  16.739 -0.0489  0.3493 -2.1517
14200TIP3    H264016   3.051   0.637  16.799  1.6805  1.1731  2.2927
14201TIP3   OH264017   0.151   5.001   2.013  0.0502 -0.5407  0.0033
14201TIP3    H164018   0.174   4.909   2.027  1.1006 -0.2803  0.0536
14201TIP3    H264019   0.235   5.046   2.005 -0.4518  0.2186 -1.3595
14202TIP3   OH264020   4.575   2.034  15.864 -0.1154 -0.3296 -0.1309
14202TIP3    H164021   4.539   2.023  15.776  0.3256 -1.3962 -0.2007
14202TIP3    H264022   4.668   2.014  15.855  0.1489  0.6293  0.3790
14203TIP3   OH264023   2.292   5.529   4.689  0.3500  0.5416  0.7357
14203TIP3    H164024   2.388   5.526   4.681  0.2703  1.0571 -0.6414
14203TIP3    H264025   2.271   5.622   4.684 -0.0936  0.6686  3.3343
14204TIP3   OH264026   0.226   2.332  11.730 -0.1996  0.3079  0.3797
14204TIP3    H164027   0.175   2.310  11.808  1.1368  2.7791  2.0690
14204TIP3    H264028   0.295   2.266  11.727 -1.6500 -1.2632 -0.2128
14205TIP3   OH264029   4.773   4.662   0.963  0.2887 -0.2551  0.3522
14205TIP3    H164030   4.808   4.677   0.876  3.5155 -2.4354  1.0728
14205TIP3    H264031   4.711   4.589   0.952 -1.3511  1.1800 -0.3972
14206TIP3   OH264032   0.110   4.191   0.420  0.1779 -0.4724  0.4109
14206TIP3    H164033   0.184   4.147   0.378 -0.1390 -0.6289  0.0114
14206TIP3    H264034   0.091   4.266   0.364 -0.2573 -0.6924  0.2534
14207TIP3   OH264035   4.447   6.715   3.124 -0.4097  0.4418  0.0806
14207TIP3    H164036   4.405   6.725   3.039 -0.0889 -1.0863 -0.2848
14207TIP3    H264037   4.496   6.797   3.136 -1.1079  1.0167 -0.8158
14208TIP3   OH264038   1.309   3.501   0.390 -0.2725  0.0494  0.0538
14208TIP3    H164039   1.262   3.583   0.377  0.4265  0.7573  1.7053
14208TIP3    H264040   1.382   3.505   0.327 -0.8588  0.1660 -0.6323
14209TIP3   OH264041   1.901   2.599   0.578  0.4111  0.0693 -0.2225
14209TIP3    H164042   1.903   2.517   0.527 -1.0259 -0.0577 -0.0931
14209TIP3    H264043   1.848   2.658   0.525  0.5337  0.5681  0.2133
14210TIP3   OH264044   5.531   2.797  15.708 -0.1131  0.6298 -0.1217
14210TIP3    H164045   5.474   2.758  15.774  0.6889 -0.6939 -0.1706
14210TIP3    H264046   5.520   2.742  15.630  2.1103 -0.4573  0.2421
14211TIP3   OH264047   4.416   2.208   2.935  0.0648 -0.1702 -0.1730
14211TIP3    H164048   4.439   2.128   2.886  2.4217  1.2195 -1.5766
14211TIP3    H264049   4.438   2.279   2.875 -4.7660  1.6402 -0.1675
14212TIP3   OH264050   3.864   1.694   2.026 -0.5150  0.4658  0.1385
14212TIP3    H164051   3.881   1.641   1.947  0.0408  3.3249 -1.8124
14212TIP3    H264052   3.786   1.745   2.004 -0.1944  1.5125  1.3481
14213TIP3   OH264053   2.922   2.828  16.047 -0.2994 -0.4201 -0.0509
14213TIP3    H164054   2.971   2.908  16.064 -0.8418  0.0270 -0.5243
14213TIP3    H264055   2.973   2.759  16.088  0.7808  0.0090 -0.6447
14214TIP3   OH264056   0.751   0.581  13.569  0.2295 -0.0194 -0.2061
14214TIP3    H164057   0.698   0.557  13.644  0.9895  0.7939  0.6171
14214TIP3    H264058   0.840   0.555  13.592  0.7518  1.6951 -0.0897
14215TIP3   OH264059   1.783   0.695  12.729 -0.5874 -0.0781 -0.2693
14215TIP3    H164060   1.861   0.732  12.770 -0.6923 -0.2310  0.0675
14215TIP3    H264061   1.711   0.752  12.758 -0.5153  0.4714 -1.1210
14216TIP3   OH264062   6.367   3.251   5.810 -0.3416  0.3256  0.3828
14216TIP3    H164063   6.327   3.244   5.723 -0.2499  1.4687  0.2310
14216TIP3    H264064   6.441   3.191   5.808 -0.5998  0.0257 -0.1882
14217TIP3   OH264065   6.022   6.027  15.903 -0.7112  0.5308 -0.0896
14217TIP3    H164066   6.033   5.981  15.986 -3.5286  0.7912  0.5336
14217TIP3    H264067   5.988   5.961  15.843 -0.8138  0.8495 -0.3872
14218TIP3   OH264068   0.190   2.635   1.111  0.0294  0.0168  0.4642
14218TIP3    H164069   0.219   2.676   1.192 -0.7881 -2.6529  2.2574
14218TIP3    H264070   0.199   2.541   1.127 -1.4890 -0.6617 -2.0471
14219TIP3   OH264071   2.127   4.472  14.004 -0.0594 -0.6561 -0.3831
14219TIP3    H164072   2.087   4.559  14.013  1.2531  0.0391 -1.0169
14219TIP3    H264073   2.055   4.416  13.972 -0.7737  0.3286 -0.5492
14220TIP3   OH264074   0.865   5.992   3.037 -0.1012 -0.2496 -0.1721
14220TIP3    H164075   0.840   6.067   2.982  1.2103  1.1030  0.9656
14220TIP3    H264076   0.859   6.026   3.127  0.6153 -1.4985  0.3709
14221TIP3   OH264077   4.124   5.950  13.567 -0.4260 -0.3593 -0.2161
14221TIP3    H164078   4.155   6.023  13.513  0.7875 -0.0731  0.8048
14221TIP3    H264079   4.102   5.991  13.651  1.5406 -1.3023  0.8245
14222TIP3   OH264080   0.175   1.621   0.899  0.1737  0.0158 -0.3453
14222TIP3    H164081   0.223   1.693   0.941  0.1969  0.4169 -1.0359
14222TIP3    H264082   0.155   1.654   0.811  2.1160 -1.6063 -1.4997
14223TIP3   OH264083   2.018   1.071   3.936 -0.4802 -0.6352 -0.0819
14223TIP3    H164084   2.099   1.120   3.944  1.1099 -2.9198 -1.0191
14223TIP3    H264085   1.966   1.097   4.012  0.5567  1.7975 -0.1213
14224TIP3   OH264086   6.510   1.767   0.624 -0.2650 -0.3364  0.4992
14224TIP3    H164087   6.544   1.760   0.535  0.3338 -0.3050  0.7193
14224TIP3    H264088   6.564   1.707   0.675 -1.5656 -1.4857  0.5780
14225TIP3   OH264089   0.258   1.645   5.205 -0.5160  0.4300  0.6597
14225TIP3    H164090   0.257   1.591   5.126  0.2178  0.2405  0.7701
14225TIP3    H264091   0.165   1.657   5.227 -0.9392  3.2475 -2.0640
14226TIP3   OH264092   4.841   5.375  11.349 -0.3941 -0.4035 -0.1122
14226TIP3    H164093   4.870   5.351  11.261 -0.2128  0.2444 -0.2327
14226TIP3    H264094   4.771   5.312  11.368 -1.8507  0.6730 -1.5442
14227TIP3   OH264095   5.075   6.007  14.463 -0.1310 -0.1118  0.4883
14227TIP3    H164096   4.989   5.987  14.426  0.4024 -0.8910 -0.3696
14227TIP3    H264097   5.101   5.926  14.508  1.0489 -0.6385 -1.0496
14228TIP3   OH264098   4.560   3.085   3.976 -0.4309  0.4336 -0.2309
14228TIP3    H164099   4.599   3.172   3.984 -0.8401  0.6506 -0.5416
14228TIP3    H264100   4.534   3.061   4.065 -1.3477  1.1214 -0.3021
14229TIP3   OH264101   4.948   1.861  11.569  0.4640 -0.5833  0.0112
14229TIP3    H164102   4.916   1.780  11.528  0.0801  0.0478 -0.9580
14229TIP3    H264103   5.007   1.899  11.505 -0.0552  0.3716  0.0819
14230TIP3   OH264104   1.062   3.277   4.072  0.6281 -0.2216 -0.1095
14230TIP3    H164105   0.988   3.230   4.110 -0.6146  0.2164 -1.8459
14230TIP3    H264106   1.072   3.355   4.127  1.0057 -1.1734  1.2105
14231TIP3   OH264107   5.249   0.713   6.004  0.2782 -0.6297  0.7538
14231TIP3    H164108   5.194   0.646   6.045 -0.7618  0.3408  0.9864
14231TIP3    H264109   5.208   0.729   5.919  1.9088 -1.9867 -0.3596
14232TIP3   OH264110   4.325   4.149  14.686 -0.1171  0.3773  0.4593
14232TIP3    H164111   4.307   4.182  14.774  0.1507  1.4733  0.1157
14232TIP3    H264112   4.326   4.227  14.631  0.0289 -0.2655 -0.4698
14233TIP3   OH264113   5.601   3.696  14.510  0.4413  0.0052 -0.6207
14233TIP3    H164114   5.693   3.678  14.489  0.8951  1.5960 -0.1415
14233TIP3    H264115   5.602   3.727  14.600 -0.7274 -0.9651 -0.2397
14234TIP3   OH264116   6.091   3.263   0.497  0.0776 -0.5428 -0.5173
14234TIP3    H164117   6.115   3.171   0.504  1.7865 -0.1131 -0.4316
14234TIP3    H264118   6.106   3.299   0.585 -2.3510 -0.5397 -0.0255
14235TIP3   OH264119   1.180   0.311  13.779 -0.2456  0.3408  0.4046
14235TIP3    H164120   1.236   0.378  13.740 -0.2495  1.1892  1.7996
14235TIP3    H264121   1.237   0.234  13.787  1.0114  1.4280  2.5411
14236TIP3   OH264122   3.062   3.837  16.033 -0.0467 -0.4466  0.2619
14236TIP3    H164123   2.982   3.871  15.992 -0.6268 -1.4569  0.5202
14236TIP3    H264124   3.111   3.916  16.058 -0.8641  0.1913 -0.0819
14237TIP3   OH264125   4.838   0.966   2.165 -0.1541 -0.3568 -0.4606
14237TIP3    H164126   4.748   0.944   2.140 -0.1846  0.9298 -1.6001
14237TIP3    H264127   4.878   0.997   2.084  0.9460  0.2664  0.3000
14238TIP3   OH264128   5.453   1.702   0.282  0.1940  0.7333  0.6928
14238TIP3    H164129   5.495   1.634   0.230  0.4931  0.5752  1.1363
14238TIP3    H264130   5.404   1.754   0.219  2.8555  2.3228 -0.2451
14239TIP3   OH264131   3.648   6.243   0.601 -0.4538 -0.7371  0.0350
14239TIP3    H164132   3.578   6.244   0.665 -1.3083 -2.5866 -0.7953
14239TIP3    H264133   3.612   6.287   0.524 -0.3509 -0.7920 -0.0459
14240TIP3   OH264134   1.872   1.974   4.125 -0.1537  0.0422  0.0088
14240TIP3    H164135   1.874   2.062   4.087  0.4501  0.3115  0.6530
14240TIP3    H264136   1.804   1.978   4.192 -0.1369  0.0092  0.0277
14241TIP3   OH264137   4.099   2.268   5.243  0.1273  0.2104  0.0318
14241TIP3    H164138   4.009   2.299   5.247  0.5531  1.3352  2.7013
14241TIP3    H264139   4.091   2.174   5.222 -1.5024  0.6364 -1.5526
14242TIP3   OH264140   1.839   1.508  11.508 -0.9206 -0.3426 -0.2194
14242TIP3    H164141   1.796   1.586  11.544  0.5633 -0.6430  2.4237
14242TIP3    H264142   1.923   1.541  11.474 -1.0471 -0.5251 -0.7158
14243TIP3   OH264143   5.947   3.354  14.735  0.4907  0.0705  0.1683
14243TIP3    H164144   6.020   3.308  14.776  1.4808  2.3427  1.1680
14243TIP3    H264145   5.869   3.319  14.779  1.2735  0.0135  1.5975
14244TIP3   OH264146   1.535   6.138   2.090 -0.1299  0.0527 -0.0884
14244TIP3    H164147   1.500   6.227   2.087 -2.0565 -0.6794 -0.5605
14244TIP3    H264148   1.538   6.116   2.183  0.1129  0.5287  0.0138
14245TIP3   OH264149   5.896   4.796  15.616  0.0652 -0.2226 -0.0887
14245TIP3    H164150   5.990   4.814  15.605  0.0126  0.9656  1.1132
14245TIP3    H264151   5.855   4.844  15.544  0.3284 -0.1195 -0.1744
14246TIP3   OH264152   3.586   2.105   6.023  0.1841 -0.7597 -0.6314
14246TIP3    H164153   3.591   2.118   6.118 -2.1136  2.5130 -0.8067
14246TIP3    H264154   3.669   2.139   5.989  2.0126 -3.9751  0.1936
14247TIP3   OH264155   3.637   5.617  13.637 -0.3164  0.5788  0.0791
14247TIP3    H164156   3.647   5.680  13.565 -1.3658  1.0805  0.3504
14247TIP3    H264157   3.722   5.619  13.682 -0.4882  2.2451  0.4191
14248TIP3   OH264158   1.611   0.975  13.182  0.0451 -0.1859  0.2748
14248TIP3    H164159   1.574   1.060  13.207  1.0070  0.5534 -0.7161
14248TIP3    H264160   1.536   0.926  13.146 -0.7989 -0.2903  2.0765
14249TIP3   OH264161   4.693   2.635  14.745  0.6365 -0.4241 -0.7451
14249TIP3    H164162   4.713   2.727  14.727  0.5238 -0.4134 -0.8211
14249TIP3    H264163   4.601   2.636  14.773  0.8317 -0.4319 -0.0996
14250TIP3   OH264164   5.722   0.773   4.938 -0.1882 -0.7075 -0.0922
14250TIP3    H164165   5.673   0.715   4.997  0.6983 -0.7193  0.6542
14250TIP3    H264166   5.734   0.854   4.988  0.2361 -0.5728 -0.4089
14251TIP3   OH264167   2.039   3.626   2.693 -0.5742  0.6349  0.3726
14251TIP3    H164168   1.988   3.557   2.650  0.2056  0.3970 -0.1929
14251TIP3    H264169   2.125   3.586   2.708  0.2042  1.7797 -0.8464
14252TIP3   OH264170   0.683   5.518  10.998  0.0948  0.2578 -0.8410
14252TIP3    H164171   0.718   5.575  10.929  0.5007  0.6856 -0.2839
14252TIP3    H264172   0.747   5.523  11.068  0.1656 -0.9370 -0.8020
14253TIP3   OH264173   2.557   6.527  16.561  0.1384  0.1488 -0.3898
14253TIP3    H164174   2.503   6.448  16.564 -0.5355  0.6076  0.0088
14253TIP3    H264175   2.627   6.510  16.624 -0.3541  0.1075  0.1574
14254TIP3   OH264176   0.751   1.153  12.172  0.1799  0.3657  0.1706
14254TIP3    H164177   0.701   1.209  12.231  1.3640  1.2140  0.3971
14254TIP3    H264178   0.787   1.213  12.106  2.2689  0.0824  0.9607
14255TIP3   OH264179   3.674   1.394  11.581 -0.2403  0.5255 -0.1382
14255TIP3    H164180   3.753   1.404  11.528  0.7506  1.1605  1.3803
14255TIP3    H264181   3.641   1.483  11.591 -0.1295  0.4815  0.6985
14256TIP3   OH264182   0.328   1.466  14.581  0.5339  0.8927 -0.0910
14256TIP3    H164183   0.244   1.421  14.580  0.7381  0.5109 -0.9356
14256TIP3    H264184   0.313   1.546  14.530  0.7877  0.6199 -0.5977
14257TIP3   OH264185   2.831   0.571  16.695  0.2508  0.0871 -0.5935
14257TIP3    H164186   2.801   0.646  16.747 -0.9102 -0.5556 -0.3058
14257TIP3    H264187   2.856   0.608  16.611 -1.0080  0.7069 -0.7102
14258TIP3   OH264188   1.614   4.530   4.837 -0.2944  0.5335  0.6681
14258TIP3    H164189   1.604   4.625   4.838 -0.4939  0.5622 -0.8887
14258TIP3    H264190   1.575   4.501   4.919 -2.2021  1.6321  0.2095
14259TIP3   OH264191   4.630   6.555   0.787  0.2189  0.1318 -0.2633
14259TIP3    H164192   4.693   6.531   0.719 -1.7295  0.4051 -2.2945
14259TIP3    H264193   4.651   6.647   0.807  0.3420  0.3010 -1.1027
14260TIP3   OH264194   3.521   5.133   4.106  0.5383 -0.1111 -0.0260
14260TIP3    H164195   3.462   5.156   4.178  0.7945 -0.7941  0.4112
14260TIP3    H264196   3.603   5.179   4.127  0.0964  1.0471 -0.7684
14261TIP3   OH264197   3.866   6.736  12.902 -0.3263 -0.4326 -1.0346
14261TIP3    H164198   3.903   6.756  12.817  0.5559 -1.5650 -0.9297
14261TIP3    H264199   3.774   6.714  12.884 -0.2788 -0.1699 -1.6072
14262TIP3   OH264200   0.144   1.035   5.810 -0.2078  0.1524  0.2938
14262TIP3    H164201   0.156   1.051   5.904 -1.3311  1.5090  0.2367
14262TIP3    H264202   0.202   0.961   5.791  0.3084  0.0772  1.9767
14263TIP3   OH264203   5.292   5.134   0.318  0.0432 -0.3463 -0.5879
14263TIP3    H164204   5.284   5.070   0.247 -1.4523  0.1661 -0.9220
14263TIP3    H264205   5.204   5.140   0.355  0.7516 -0.4476  1.1997
14264TIP3   OH264206   4.049   3.846  16.037 -0.7179 -0.0663 -0.0695
14264TIP3    H164207   4.042   3.823  15.945  0.8173  0.8914 -0.4705
14264TIP3    H264208   4.110   3.782  16.074  0.0264  0.5965 -0.1348
14265TIP3   OH264209   2.512   0.916  16.941  0.7890 -0.1736 -0.0764
14265TIP3    H164210   2.480   0.875  16.861  3.5501  1.2178 -2.0737
14265TIP3    H264211   2.471   1.002  16.943  1.2680  0.0697 -0.4356
14266TIP3   OH264212   1.068   1.665  14.015 -0.0837 -0.2753  0.7837
14266TIP3    H164213   1.086   1.620  13.932  1.0880  0.3943  0.6496
14266TIP3    H264214   1.127   1.624  14.078  0.8277  0.8987  0.7112
14267TIP3   OH264215   1.719   2.120   4.541 -0.4714 -0.1445  0.4153
14267TIP3    H164216   1.696   2.070   4.462 -0.2459  0.4305 -0.0172
14267TIP3    H264217   1.794   2.073   4.577 -0.7971 -0.6190  0.4933
14268TIP3   OH264218   5.488   2.505  14.716 -0.7014 -0.1851 -0.3251
14268TIP3    H164219   5.428   2.443  14.756  1.0410 -0.8058  1.4947
14268TIP3    H264220   5.494   2.478  14.625  0.2453 -2.9716  0.4841
14269TIP3   OH264221   4.452   5.275   0.878  0.6113 -1.1496  0.1434
14269TIP3    H164222   4.361   5.250   0.892  0.3535 -0.6199 -0.5799
14269TIP3    H264223   4.465   5.350   0.935  1.5885 -3.2013  2.8790
14270TIP3   OH264224   4.712   5.863  16.926  0.1289 -0.0299  0.1167
14270TIP3    H164225   4.663   5.893  16.849  1.5627  1.1525 -0.3834
14270TIP3    H264226   4.720   5.942  16.981 -0.0083 -0.6267  1.0111
14271TIP3   OH264227   3.770   2.935   5.177 -0.5199  0.2183  1.0685
14271TIP3    H164228   3.784   3.027   5.201 -0.0963  0.3504  0.3406
14271TIP3    H264229   3.779   2.934   5.082  1.0150 -0.8498  1.1972
14272TIP3   OH264230   5.703   4.294   0.244 -0.0672  0.4384 -0.1391
14272TIP3    H164231   5.732   4.367   0.298 -1.0289  0.1349  0.8220
14272TIP3    H264232   5.770   4.287   0.175  1.3235  0.6835  1.1366
14273TIP3   OH264233   0.687   4.546  13.893 -0.3264  0.7940  0.1375
14273TIP3    H164234   0.762   4.589  13.932  0.9911 -1.8840  0.7781
14273TIP3    H264235   0.724   4.487  13.828 -1.6790 -1.6047  1.3941
14274TIP3   OH264236   1.026   3.018  12.773  0.0180  0.4414  0.6127
14274TIP3    H164237   1.003   3.111  12.767 -0.8457  0.1578 -1.1139
14274TIP3    H264238   0.941   2.973  12.777  0.2949 -0.4048 -1.6668
14275TIP3   OH264239   4.038   1.119  12.265  0.2011  0.4553  0.1667
14275TIP3    H164240   3.956   1.166  12.250  1.1504  1.3935 -2.5082
14275TIP3    H264241   4.103   1.164  12.211  1.8617 -2.0060 -0.0654
14276TIP3   OH264242   2.392   2.275   4.065  0.3009  0.5355  0.6405
14276TIP3    H164243   2.432   2.361   4.077 -0.7461  0.9510  1.3918
14276TIP3    H264244   2.303   2.295   4.034  0.7613 -0.3592 -1.3481
14277TIP3   OH264245   3.061   6.019  14.217  0.0444 -0.2038 -0.0883
14277TIP3    H164246   2.985   5.984  14.264 -1.1467 -0.6910 -2.2275
14277TIP3    H264247   3.041   6.112  14.205 -0.8561 -0.5649 -1.6870
14278TIP3   OH264248   3.450   3.376  17.243  0.0519 -0.1785 -0.4322
14278TIP3    H164249   3.511   3.391  17.315  0.3875 -1.1132 -0.5107
14278TIP3    H264250   3.413   3.462  17.224 -0.0028  0.0831  0.8185
14279TIP3   OH264251   2.127   3.916  12.899 -0.6862  0.2268 -0.0284
14279TIP3    H164252   2.209   3.953  12.930 -1.7344  1.9421  0.8395
14279TIP3    H264253   2.136   3.822  12.915  1.3560  0.2684 -0.6368
14280TIP3   OH264254   1.067   2.561  15.259 -0.4641 -0.3943  0.6599
14280TIP3    H164255   1.023   2.476  15.252 -1.4462  0.0500  1.2197
14280TIP3    H264256   1.006   2.623  15.221  1.5941 -0.2818 -2.9078
14281TIP3   OH264257   3.444   2.104  11.461  0.2497  0.3956 -0.0572
14281TIP3    H164258   3.449   2.028  11.403  1.1683  0.5074 -0.1361
14281TIP3    H264259   3.507   2.166  11.425  0.6100  0.5916  0.8711
14282TIP3   OH264260   3.798   6.792   0.654 -0.0244 -0.4879  0.1332
14282TIP3    H164261   3.791   6.827   0.743 -1.0875 -2.4507  0.8852
14282TIP3    H264262   3.889   6.760   0.648 -0.4058 -1.9004  1.1935
14283TIP3   OH264263   2.208   3.881   6.015  0.0942  0.7392  0.3467
14283TIP3    H164264   2.244   3.792   6.019 -1.4681  0.0711  0.1365
14283TIP3    H264265   2.156   3.890   6.095 -0.4263  1.1565 -0.0286
14284TIP3   OH264266   4.045   4.818   1.522 -0.4160 -0.1516  0.6021
14284TIP3    H164267   4.057   4.793   1.430 -0.2269  0.3604  0.4852
14284TIP3    H264268   3.980   4.755   1.555 -1.7627  0.6788 -0.3416
14285TIP3   OH264269   0.023   3.848  13.643 -0.1292 -0.3200 -0.7527
14285TIP3    H164270   0.092   3.820  13.703 -0.6225  0.3687  0.1600
14285TIP3    H264271   0.057   3.827  13.556  0.8594 -0.7730 -0.2734
14286TIP3   OH264272   4.376   3.162   5.669 -0.0264 -0.1368  0.2832
14286TIP3    H164273   4.386   3.173   5.575 -0.5395 -0.6325  0.1709
14286TIP3    H264274   4.357   3.251   5.701 -0.4782 -0.0683 -0.1579
14287TIP3   OH264275   3.833   4.367  14.522 -0.1653  0.0668 -0.1759
14287TIP3    H164276   3.743   4.333  14.522 -0.1102 -0.0756 -0.4957
14287TIP3    H264277   3.834   4.428  14.596 -0.7419  0.6348 -0.6210
14288TIP3   OH264278   4.960   5.685   2.216  0.1887 -0.2635  0.6991
14288TIP3    H164279   4.925   5.725   2.137  0.3559 -1.9640 -0.2670
14288TIP3    H264280   4.901   5.612   2.235  0.4164 -0.1639  1.8897
14289TIP3   OH264281   5.656   5.258  12.512  0.0166  0.1784 -0.1363
14289TIP3    H164282   5.577   5.309  12.495  0.0314 -0.0401 -0.8550
14289TIP3    H264283   5.721   5.323  12.538 -0.2717  0.4052  0.0271
14290TIP3   OH264284   3.059   6.575   0.302 -0.1368  0.7794 -0.1226
14290TIP3    H164285   3.032   6.577   0.394  0.3190  2.1978 -0.0086
14290TIP3    H264286   3.131   6.637   0.296  0.1860  0.3258 -1.3452
14291TIP3   OH264287   4.480   2.360   4.849 -0.2217  0.2816  0.4331
14291TIP3    H164288   4.468   2.269   4.878 -0.9301 -0.0484 -0.8349
14291TIP3    H264289   4.391   2.390   4.828  0.0545  1.1427  0.4708
14292TIP3   OH264290   6.755   4.663   1.048 -0.1516 -0.0902 -0.5940
14292TIP3    H164291   6.809   4.653   0.970 -0.5730  1.9206 -1.1921
14292TIP3    H264292   6.669   4.629   1.022 -0.2141  0.3086 -0.9058
14293TIP3   OH264293   2.820   5.180  15.900 -0.1534  0.4774 -0.3209
14293TIP3    H164294   2.833   5.086  15.911 -1.5493  0.2413 -0.4686
14293TIP3    H264295   2.724   5.191  15.901 -0.0220  2.1976  2.1935
14294TIP3   OH264296   3.509   1.316  15.144  0.4994 -0.1766 -0.3636
14294TIP3    H164297   3.564   1.304  15.221  0.4843 -0.0004 -0.3263
14294TIP3    H264298   3.514   1.231  15.098 -0.3361 -0.6362  0.3706
14295TIP3   OH264299   5.291   2.719   1.660 -0.2878  0.4134  0.5012
14295TIP3    H164300   5.224   2.652   1.678 -0.1767  0.3708  0.7528
14295TIP3    H264301   5.291   2.774   1.737 -1.8645  1.9801 -0.5442
14296TIP3   OH264302   4.701   1.347   5.470 -0.4585 -0.8257  0.1002
14296TIP3    H164303   4.725   1.307   5.554 -0.2183  0.9652  0.9348
14296TIP3    H264304   4.785   1.367   5.429 -0.5525 -0.2843  0.1594
14297TIP3   OH264305   2.654   5.912  16.616 -0.3833 -0.3295 -0.1363
14297TIP3    H164306   2.730   5.955  16.576 -0.5360 -1.0643 -1.2595
14297TIP3    H264307   2.582   5.975  16.603 -0.0183  0.3068  0.8071
14298TIP3   OH264308   1.495   4.814  15.880  0.6689 -0.1961 -0.0302
14298TIP3    H164309   1.490   4.795  15.974  3.6413  0.7077  0.4273
14298TIP3    H264310   1.493   4.909  15.874 -1.5009 -0.2602 -1.1298
14299TIP3   OH264311   3.245   4.415   4.329 -0.0140  0.2538  0.1702
14299TIP3    H164312   3.272   4.505   4.314  0.0147  0.1226 -0.6101
14299TIP3    H264313   3.220   4.412   4.422 -1.4430  1.4339 -0.1445
14300TIP3   OH264314   3.428   4.950  13.774  0.0528  0.3104 -0.1920
14300TIP3    H164315   3.401   4.910  13.691 -0.7941  0.3567  0.0506
14300TIP3    H264316   3.417   4.881  13.839  0.1448  0.4483 -0.0279
14301TIP3   OH264317   1.131   3.860  11.905  0.0455 -0.3534 -0.0650
14301TIP3    H164318   1.130   3.928  11.973 -0.9366 -0.7168  0.2933
14301TIP3    H264319   1.040   3.832  11.897 -0.1188  0.5963 -2.4625
14302TIP3   OH264320   5.228   2.233  16.254  0.4012  0.2097 -0.0543
14302TIP3    H164321   5.312   2.216  16.297  0.3578  1.8853  0.7436
14302TIP3    H264322   5.248   2.229  16.160  1.7578  2.2330  0.0982
14303TIP3   OH264323   6.239   2.978  17.087 -0.4915  0.2522 -0.0086
14303TIP3    H164324   6.199   2.929  17.159 -1.9749  0.8204 -0.4090
14303TIP3    H264325   6.254   2.912  17.019 -2.0302  0.2316 -0.3625
14304TIP3   OH264326   3.319   2.345   5.158 -0.6023 -0.1439  0.0171
14304TIP3    H164327   3.388   2.279   5.148 -0.2842  0.1025  0.5086
14304TIP3    H264328   3.357   2.410   5.218 -1.6530 -0.5735  1.1971
14305TIP3   OH264329   3.608   3.477   3.308  0.2202 -0.4457 -0.3567
14305TIP3    H164330   3.636   3.461   3.398  1.7903 -0.2536 -0.7832
14305TIP3    H264331   3.650   3.407   3.257  0.5259  0.2777 -1.1272
14306TIP3   OH264332   5.455   6.212   1.961  0.3826  0.2324 -0.1502
14306TIP3    H164333   5.440   6.141   2.023 -0.7128  1.3883  0.9526
14306TIP3    H264334   5.480   6.168   1.880 -1.3720 -1.4840  0.1779
14307TIP3   OH264335   5.675   5.228  15.881 -0.2921 -0.5846 -0.3255
14307TIP3    H164336   5.710   5.177  15.808  0.9902  0.1311 -0.2387
14307TIP3    H264337   5.746   5.229  15.945 -0.4255  0.9897 -0.1724
14308TIP3   OH264338   4.529   3.677  13.760  0.1449 -0.1563 -0.0284
14308TIP3    H164339   4.621   3.663  13.738  0.7556  0.7791  1.7377
14308TIP3    H264340   4.523   3.771  13.779 -1.2217 -0.1697 -0.2714
14309TIP3   OH264341   4.037   1.220  15.792 -0.2001 -0.6396 -0.0549
14309TIP3    H164342   4.012   1.254  15.877  2.4132 -0.5466  0.7759
14309TIP3    H264343   4.052   1.298  15.739  0.8379 -0.5910  0.2837
14310TIP3   OH264344   3.934   5.007  14.054  0.0706  0.4543  0.4762
14310TIP3    H164345   3.954   5.069  13.983 -0.9183  0.2496  0.0032
14310TIP3    H264346   3.866   4.950  14.018 -0.7046  0.5579  1.7074
14311TIP3   OH264347   0.733   6.183  14.374  0.8280  0.1141 -0.1862
14311TIP3    H164348   0.719   6.275  14.398  1.3203  0.1783 -0.1380
14311TIP3    H264349   0.733   6.183  14.279 -1.5966 -0.2099 -0.2606
14312TIP3   OH264350   2.600   5.622   5.436  0.0559 -0.3109  0.1640
14312TIP3    H164351   2.690   5.589   5.428  0.2903 -0.0063  1.3516
14312TIP3    H264352   2.584   5.667   5.353  1.0028 -0.3553 -0.0563
14313TIP3   OH264353   5.545   5.777  13.296 -0.4225 -0.2864  0.2824
14313TIP3    H164354   5.606   5.778  13.370 -1.7317  0.5956  1.4145
14313TIP3    H264355   5.529   5.685  13.279  0.2387 -0.5053  0.8153
14314TIP3   OH264356   2.979   4.183   6.663 -0.5232  0.2383 -0.2505
14314TIP3    H164357   2.945   4.271   6.647 -1.1368  0.1335  0.4121
14314TIP3    H264358   2.938   4.157   6.745 -0.5540 -0.7756 -0.5807
14315TIP3   OH264359   2.781   5.257   1.282  0.6759  0.5820 -0.5819
14315TIP3    H164360   2.872   5.281   1.268  0.9101  1.5047  1.9058
14315TIP3    H264361   2.785   5.170   1.322  0.5241  0.7337 -0.2240
14316TIP3   OH264362   2.856   3.920  13.486 -0.1631  0.4816 -0.4601
14316TIP3    H164363   2.943   3.913  13.527 -1.0255  0.4942  1.4698
14316TIP3    H264364   2.807   3.980  13.542 -1.1614  1.2309 -2.0521
14317TIP3   OH264365   0.099   2.123   1.269  0.0673  0.3160 -0.0045
14317TIP3    H164366   0.151   2.052   1.306  0.1728  1.1162  1.4508
14317TIP3    H264367   0.010   2.105   1.298  0.0491  0.6278  0.1356
14318TIP3   OH264368   0.997   3.612   5.840  0.3262  0.5103  0.0850
14318TIP3    H164369   0.961   3.609   5.929  0.1649 -0.1143  0.0080
14318TIP3    H264370   1.064   3.680   5.843  1.5937 -0.7291  1.1741
14319TIP3   OH264371   4.236   2.707   5.633  0.0631  0.4108 -0.5348
14319TIP3    H164372   4.311   2.763   5.652  1.6591 -1.3782 -1.2831
14319TIP3    H264373   4.226   2.654   5.712  0.3555 -0.1662 -0.8817
14320TIP3   OH264374   5.221   1.072   1.574 -0.3922  0.0223  0.4489
14320TIP3    H164375   5.190   1.038   1.490  0.0736 -0.4490  0.4656
14320TIP3    H264376   5.208   0.999   1.635 -1.0172  0.4623  0.8595
14321TIP3   OH264377   6.421   2.596   2.029 -0.0048 -0.0111  0.0486
14321TIP3    H164378   6.331   2.626   2.042 -0.5266 -1.2145 -0.5518
14321TIP3    H264379   6.443   2.622   1.940  0.2994  0.4074  0.2432
14322TIP3   OH264380   1.339   0.129  17.197  0.3919 -0.6301 -0.0982
14322TIP3    H164381   1.300   0.048  17.230  2.1897 -1.7977 -0.7076
14322TIP3    H264382   1.430   0.126  17.226  0.1821  1.8821  1.0698
14323TIP3   OH264383   4.325   0.324  12.669  0.0130 -0.2205 -0.2536
14323TIP3    H164384   4.401   0.286  12.625 -0.6409 -0.2253 -1.4307
14323TIP3    H264385   4.265   0.347  12.598 -1.4714 -1.0255  0.6752
14324TIP3   OH264386   4.867   3.038  12.678  0.1778 -0.6007  0.3729
14324TIP3    H164387   4.851   3.078  12.763  1.6739 -1.3930  1.0606
14324TIP3    H264388   4.858   2.944  12.693 -2.1183 -0.6741 -0.9559
14325TIP3   OH264389   2.454   3.400  16.894  0.2376 -0.3247  0.6110
14325TIP3    H164390   2.420   3.377  16.981 -0.0101  0.2318  0.6663
14325TIP3    H264391   2.377   3.400  16.838 -0.0461  1.7905  0.9080
14326TIP3   OH264392   6.228   1.226   3.600  0.3867  0.2901 -0.1010
14326TIP3    H164393   6.199   1.137   3.576 -0.2256  0.4460  0.0484
14326TIP3    H264394   6.313   1.213   3.641  2.4179  0.1131 -3.8836
14327TIP3   OH264395   5.164   2.713   2.771 -0.1989 -0.6993  0.3502
14327TIP3    H164396   5.156   2.708   2.675 -0.0935  1.0798  0.2161
14327TIP3    H264397   5.246   2.759   2.786 -2.6332  3.9222  1.0815
14328TIP3   OH264398   5.168   3.287  14.300  0.2026 -0.0664 -0.0610
14328TIP3    H164399   5.254   3.274  14.261 -0.2409  0.6697 -1.4046
14328TIP3    H264400   5.117   3.330  14.230 -0.7207  1.1410  1.2808
14329TIP3   OH264401   6.175   1.343  13.562  0.1964  0.2005  0.1786
14329TIP3    H164402   6.196   1.434  13.584  0.6806  0.2853 -0.6320
14329TIP3    H264403   6.250   1.312  13.512 -0.4447 -0.3060 -0.4855
14330TIP3   OH264404   6.347   2.775  13.272 -0.1714  0.3186 -0.8565
14330TIP3    H164405   6.277   2.728  13.317  0.5273 -1.6826 -1.7375
14330TIP3    H264406   6.419   2.778  13.336 -0.9688  2.3083  0.0199
14331TIP3   OH264407   3.319   5.723  11.029  0.1895  0.1227  0.1829
14331TIP3    H164408   3.390   5.787  11.042  0.4793 -0.1226 -0.1741
14331TIP3    H264409   3.256   5.744  11.097  0.1432  0.9843 -0.1156
14332TIP3   OH264410   2.432   1.066  13.131  0.5775  0.5746 -0.0413
14332TIP3    H164411   2.358   1.055  13.190  1.0485  1.9791  0.8643
14332TIP3    H264412   2.398   1.123  13.061  0.2340 -0.4748 -0.7486
14333TIP3   OH264413   5.078   4.162  12.175  0.1771 -0.0580  0.1124
14333TIP3    H164414   5.023   4.099  12.130  0.2143  0.3096 -0.4587
14333TIP3    H264415   5.043   4.166  12.264 -0.4709 -0.1200 -0.1347
14334TIP3   OH264416   5.560   5.388  12.218 -0.0521 -0.0303 -0.0255
14334TIP3    H164417   5.535   5.475  12.187 -0.6132 -0.2888 -0.3235
14334TIP3    H264418   5.606   5.403  12.300 -3.8897  0.3450  2.2977
14335TIP3   OH264419   5.198   2.155  15.195 -0.4111  0.7761 -0.0959
14335TIP3    H164420   5.218   2.107  15.115 -2.1785 -0.1815  0.0061
14335TIP3    H264421   5.112   2.123  15.222 -0.6486  2.3883  1.2065
14336TIP3   OH264422   0.787   4.579   2.887  0.9625 -0.3199 -0.3185
14336TIP3    H164423   0.762   4.620   2.805  0.5209 -0.5091 -0.2840
14336TIP3    H264424   0.838   4.502   2.862  0.8698 -0.3496 -0.4136
14337TIP3   OH264425   0.281   6.115   0.181  0.5187 -0.3533 -0.3976
14337TIP3    H164426   0.191   6.113   0.212 -0.1561 -2.5138 -2.1614
14337TIP3    H264427   0.302   6.208   0.173 -0.8611  0.2161  1.8122
14338TIP3   OH264428   0.346   1.359  14.873  0.0919  0.8226  0.0736
14338TIP3    H164429   0.330   1.369  14.966 -1.6627  1.9782 -0.3058
14338TIP3    H264430   0.322   1.444  14.835  0.8429  0.4034 -1.4210
14339TIP3   OH264431   1.024   1.059   0.572 -0.2310 -0.3456 -0.4926
14339TIP3    H164432   1.078   1.104   0.508  1.4447  0.2361  1.2323
14339TIP3    H264433   1.038   1.108   0.654 -1.2730 -1.8087  0.6144
14340TIP3   OH264434   4.333   0.206  14.061  1.0194 -0.0063  0.4455
14340TIP3    H164435   4.394   0.133  14.073 -0.1368 -1.0091  0.3495
14340TIP3    H264436   4.267   0.194  14.130  1.0486  1.2154  0.7177
14341TIP3   OH264437   0.625   2.629   4.107 -0.4054  0.2157  0.1947
14341TIP3    H164438   0.709   2.585   4.122 -0.8657 -0.7719 -0.0304
14341TIP3    H264439   0.612   2.683   4.185 -0.0143 -0.3625  0.6689
14342TIP3   OH264440   4.531   1.257  14.251 -0.3056  0.1218 -0.2388
14342TIP3    H164441   4.519   1.219  14.164  2.1766  0.7458 -0.9123
14342TIP3    H264442   4.504   1.349  14.241 -1.3739 -0.1434  0.0569
14343TIP3   OH264443   2.128   2.265   0.196 -0.1735  0.1755 -0.3378
14343TIP3    H164444   2.125   2.319   0.117 -0.8196  1.2675  0.4132
14343TIP3    H264445   2.065   2.195   0.180  1.0644 -0.7275 -1.5437
14344TIP3   OH264446   2.311   0.772  16.247  0.6470  0.2498  0.5335
14344TIP3    H164447   2.296   0.745  16.338  0.1360  3.0106  1.3631
14344TIP3    H264448   2.402   0.799  16.245  0.6939  0.0650  0.1696
14345TIP3   OH264449   2.730   0.744   0.789  0.4529  0.3522  0.3600
14345TIP3    H164450   2.814   0.721   0.749  0.4060 -0.1836  0.5620
14345TIP3    H264451   2.727   0.693   0.869 -1.1878 -1.6652 -0.8782
14346TIP3   OH264452   1.359   4.921   4.883  0.2235 -0.3441 -0.2371
14346TIP3    H164453   1.342   5.013   4.861 -1.9425 -0.6362  0.0485
14346TIP3    H264454   1.337   4.914   4.976  1.6859 -0.8819  0.0971
14347TIP3   OH264455   5.544   2.920   5.882  0.5243 -0.2238 -0.3094
14347TIP3    H164456   5.542   2.913   5.978 -0.0546  2.2481 -0.0619
14347TIP3    H264457   5.637   2.931   5.861  0.8239 -2.2100 -0.2360
14348TIP3   OH264458   6.687   5.513   0.956 -0.2679 -0.4982 -0.0095
14348TIP3    H164459   6.632   5.578   0.911  1.0860 -0.4872 -1.7584
14348TIP3    H264460   6.624   5.453   0.997 -1.6011 -0.3408 -1.6922
14349TIP3   OH264461   3.409   0.407  11.616 -0.0678 -0.7541  0.5040
14349TIP3    H164462   3.373   0.369  11.536 -1.1922  1.9315 -0.4065
14349TIP3    H264463   3.429   0.333  11.672  0.8621 -2.7787 -2.2828
14350TIP3   OH264464   2.145   3.679  15.535 -0.3814 -0.6122  0.3711
14350TIP3    H164465   2.142   3.736  15.612 -0.7388 -0.8990  0.5706
14350TIP3    H264466   2.215   3.617  15.553  0.4682  0.1817 -0.1434
14351TIP3   OH264467   5.888   6.350   4.494  0.4608  0.3781 -0.2870
14351TIP3    H164468   5.876   6.256   4.483 -0.5033  0.6288 -1.6675
14351TIP3    H264469   5.801   6.383   4.519  0.9613  0.8249  0.9567
14352TIP3   OH264470   6.208   5.677  17.227 -0.3002 -0.4718  0.2795
14352TIP3    H164471   6.267   5.739  17.184 -0.7799 -0.1497  0.0841
14352TIP3    H264472   6.133   5.729  17.254 -0.2266 -0.7660  1.0728
14353TIP3   OH264473   1.805   3.297  12.554 -0.3028 -0.3461 -0.6058
14353TIP3    H164474   1.814   3.223  12.495  0.4554 -0.9085  0.1906
14353TIP3    H264475   1.829   3.263  12.640  0.6211  0.9456 -0.3092
14354TIP3   OH264476   5.559   1.282  17.007  0.4438 -0.0376  0.8898
14354TIP3    H164477   5.608   1.266  16.927 -1.1782  1.7307 -0.5880
14354TIP3    H264478   5.616   1.337  17.060  0.0820  2.3284 -0.9678
14355TIP3   OH264479   1.901   1.552  15.183  0.8626  0.3594 -0.2884
14355TIP3    H164480   1.927   1.520  15.270 -0.0649 -0.7361 -0.3877
14355TIP3    H264481   1.869   1.641  15.199 -0.9443 -0.4261  0.8356
14356TIP3   OH264482   4.921   2.524   4.844 -0.0741  0.4670  0.4209
14356TIP3    H164483   4.914   2.451   4.907 -1.1713  0.6700  0.5651
14356TIP3    H264484   4.833   2.532   4.808  0.4391  0.6399 -0.8454
14357TIP3   OH264485   1.340   0.735   2.944 -0.1553 -0.3169 -0.2057
14357TIP3    H164486   1.398   0.661   2.928 -0.0275 -0.0115 -1.2562
14357TIP3    H264487   1.299   0.717   3.029 -0.0483 -1.5254 -0.4040
14358TIP3   OH264488   1.579   3.657  16.633 -0.2645  0.3469  0.4496
14358TIP3    H164489   1.596   3.597  16.706  0.7460  1.9350  1.5690
14358TIP3    H264490   1.497   3.626  16.596 -0.1122 -1.3248  1.4035
14359TIP3   OH264491   2.153   2.308   2.536 -0.2655  0.2377  0.2870
14359TIP3    H164492   2.187   2.221   2.560  0.7156  0.6430  0.3917
14359TIP3    H264493   2.058   2.298   2.541 -0.1582 -0.7304  0.6714
14360TIP3   OH264494   0.865   5.222   0.646  0.3194 -0.1441 -0.3091
14360TIP3    H164495   0.774   5.216   0.617 -0.1311 -0.2489  1.0498
14360TIP3    H264496   0.892   5.311   0.624 -0.6309  0.4079  0.6734
14361TIP3   OH264497   5.028   3.089  16.077 -0.2186  0.0151  0.3735
14361TIP3    H164498   4.939   3.070  16.047 -0.2861 -1.0217  1.1714
14361TIP3    H264499   5.082   3.083  15.998 -0.6756 -0.6653  0.1035
14362TIP3   OH264500   1.603   5.379  16.331  0.0567 -0.7465 -0.3881
14362TIP3    H164501   1.512   5.353  16.351 -0.3991  1.8077  1.3817
14362TIP3    H264502   1.594   5.460  16.282  1.3082  0.8243  1.8295
14363TIP3   OH264503   5.401   1.508  17.093  0.2930  0.3351  0.3681
14363TIP3    H164504   5.379   1.429  17.043  0.5336  0.0260  0.7402
14363TIP3    H264505   5.470   1.479  17.153  1.3543  1.1507 -0.4267
14364TIP3   OH264506   4.819   6.256  16.581  0.3511 -0.0330  0.1242
14364TIP3    H164507   4.754   6.279  16.648  0.5265 -0.5068  0.4693
14364TIP3    H264508   4.836   6.337  16.534 -0.6381  0.0547 -0.0969
14365TIP3   OH264509   6.094   4.042  15.124  0.0328 -0.0801  0.0382
14365TIP3    H164510   6.169   3.985  15.107 -0.7351 -1.3054  0.5817
14365TIP3    H264511   6.105   4.115  15.065  2.1752  0.2699  0.7867
14366TIP3   OH264512   1.162   2.213   2.686  0.0797  0.4102  0.2235
14366TIP3    H164513   1.132   2.129   2.650 -0.0990 -0.4469  2.2236
14366TIP3    H264514   1.104   2.229   2.760  1.9815  0.7780  1.7004
14367TIP3   OH264515   6.497   2.859   0.584  0.3483 -0.0930  0.7368
14367TIP3    H164516   6.529   2.770   0.600  1.8517  0.0756 -1.0914
14367TIP3    H264517   6.569   2.904   0.540 -0.6912  1.8008  0.8487
14368TIP3   OH264518   4.521   3.160  12.839 -0.2533 -0.3477  0.1343
14368TIP3    H164519   4.461   3.085  12.841 -1.4788  0.6078  1.1926
14368TIP3    H264520   4.559   3.162  12.926  0.7016 -0.4459 -0.2733
14369TIP3   OH264521   1.014   3.639   2.353  0.7559  0.1338 -0.0791
14369TIP3    H164522   0.931   3.599   2.326 -0.9895  2.7871  0.9471
14369TIP3    H264523   1.031   3.601   2.440 -0.2372  0.6786  0.3725
14370TIP3   OH264524   2.241   2.990   3.520  0.8504  0.2522  0.5328
14370TIP3    H164525   2.236   2.981   3.425  1.1817  2.2476  0.2987
14370TIP3    H264526   2.174   3.054   3.543  1.2782  0.3676  1.5503
14371TIP3   OH264527   6.362   5.286   2.438  0.7578 -0.2064 -0.0173
14371TIP3    H164528   6.279   5.252   2.472  0.1694 -1.2859 -2.3401
14371TIP3    H264529   6.337   5.339   2.363  2.0187  1.8450  0.9295
14372TIP3   OH264530   1.395   0.001   6.754 -0.1654  0.1759 -0.4161
14372TIP3    H164531   1.441   0.030   6.675  2.4634 -1.5509  0.3524
14372TIP3    H264532   1.427   0.061   6.823  0.0539 -0.3084 -0.0912
14373TIP3   OH264533   3.223   2.340   1.900 -0.6578  0.6234  0.0550
14373TIP3    H164534   3.221   2.372   1.809 -0.4680  1.3051  0.2884
14373TIP3    H264535   3.306   2.371   1.935  1.5529 -3.5812 -0.9173
14374TIP3   OH264536   5.705   4.651  17.016  0.0566  0.4074 -0.3191
14374TIP3    H164537   5.741   4.572  16.975  0.9254 -1.8470  4.1941
14374TIP3    H264538   5.771   4.718  17.000 -0.1872  0.0906 -3.3406
14375TIP3   OH264539   3.341   3.518   4.642 -0.0656  0.4580 -0.5023
14375TIP3    H164540   3.331   3.463   4.720 -0.7450 -0.1317 -0.9881
14375TIP3    H264541   3.274   3.586   4.652 -0.8120 -0.1761 -1.0125
14376TIP3   OH264542   0.487   2.215   6.100  0.2989  0.1143 -0.4075
14376TIP3    H164543   0.525   2.128   6.086 -0.5943 -0.4296  0.3675
14376TIP3    H264544   0.560   2.269   6.128  0.5792 -0.8610  0.8669
14377TIP3   OH264545   3.645   6.422  11.632  0.2271 -0.0034 -0.3368
14377TIP3    H164546   3.709   6.397  11.698 -0.6426 -0.3150  0.4060
14377TIP3    H264547   3.676   6.380  11.551  1.6416  0.8991 -0.2971
14378TIP3   OH264548   2.474   6.580  14.815  0.3624 -0.3092  1.1357
14378TIP3    H164549   2.422   6.504  14.843 -0.5713 -0.3589 -0.5800
14378TIP3    H264550   2.465   6.643  14.887 -0.7747 -0.9330  1.5673
14379TIP3   OH264551   1.002   0.336   0.461 -0.1100  0.3616 -0.6998
14379TIP3    H164552   1.026   0.248   0.434 -0.0298  0.4113 -0.7896
14379TIP3    H264553   1.056   0.354   0.538 -2.1787 -0.7959  1.1592
14380TIP3   OH264554   4.460   5.244   3.797  0.0482  0.1678  0.0998
14380TIP3    H164555   4.536   5.262   3.742 -0.8517  2.8968 -0.4035
14380TIP3    H264556   4.474   5.298   3.875 -0.8305 -0.1681  0.5015
14381TIP3   OH264557   6.142   5.908   4.136 -1.2414  0.4038 -0.3695
14381TIP3    H164558   6.224   5.922   4.183 -0.3923  0.7495 -1.9176
14381TIP3    H264559   6.085   5.866   4.201 -0.3269  1.3991  1.1494
14382TIP3   OH264560   0.452   2.151   0.178  0.5339  0.0209  0.4526
14382TIP3    H164561   0.457   2.096   0.100  0.8620 -1.8332  1.7093
14382TIP3    H264562   0.358   2.153   0.199  0.4239  0.6695 -0.0592
14383TIP3   OH264563   3.018   2.283  11.688 -0.0391  0.5867  0.0365
14383TIP3    H164564   3.033   2.347  11.618 -0.1061 -0.4639 -0.9780
14383TIP3    H264565   3.103   2.241  11.702 -0.4463 -0.5922 -0.8553
14384TIP3   OH264566   6.260   6.068  12.304 -0.0069  0.4688 -0.1410
14384TIP3    H164567   6.274   6.022  12.221 -1.2392  1.0044 -0.6703
14384TIP3    H264568   6.217   6.150  12.279 -1.0006  0.3531  1.0616
14385TIP3   OH264569   1.935   5.078  16.254 -0.8787  0.4559 -0.0593
14385TIP3    H164570   1.976   5.127  16.325 -2.8929  0.2871  1.2830
14385TIP3    H264571   1.894   5.145  16.199  2.1892  0.7636 -2.2363
14386TIP3   OH264572   4.372   6.681   0.498  0.8801  0.4822  0.1808
14386TIP3    H164573   4.287   6.673   0.455  0.5651 -0.7643  0.9806
14386TIP3    H264574   4.393   6.592   0.527  2.5560  0.7204 -0.1730
14387TIP3   OH264575   3.646   0.298   2.736 -0.0911 -0.1709  0.4746
14387TIP3    H164576   3.597   0.230   2.784  0.8466 -1.4439 -0.3080
14387TIP3    H264577   3.651   0.371   2.798 -1.8488 -0.4698  1.0461
14388TIP3   OH264578   5.501   3.762   0.449  0.7738 -0.3687 -0.5916
14388TIP3    H164579   5.594   3.782   0.461  1.0006 -1.9634  0.5282
14388TIP3    H264580   5.495   3.667   0.453 -0.7114 -0.4224 -2.3612
14389TIP3   OH264581   0.309   1.939   0.744 -0.2182 -0.6039 -0.1774
14389TIP3    H164582   0.399   1.970   0.747  0.9491 -3.6403 -0.6542
14389TIP3    H264583   0.279   1.943   0.835  0.4350  0.2389  0.0103
14390TIP3   OH264584   2.205   1.477  11.771  0.2151 -0.0535 -0.1241
14390TIP3    H164585   2.214   1.384  11.793 -0.2288 -0.4653 -1.5685
14390TIP3    H264586   2.124   1.504  11.815  1.4382  0.2515  2.0714
14391TIP3   OH264587   0.650   4.909  16.314 -0.2021 -0.2819 -0.2888
14391TIP3    H164588   0.601   4.989  16.332  0.5046  0.5702 -1.9155
14391TIP3    H264589   0.737   4.926  16.350 -0.4208 -0.8732  0.5480
14392TIP3   OH264590   6.673   6.262  13.419  0.0474 -0.3726  0.1556
14392TIP3    H164591   6.656   6.170  13.435  1.5460 -0.4786  1.4134
14392TIP3    H264592   6.723   6.291  13.495 -0.2473  1.4449 -0.2808
14393TIP3   OH264593   4.129   5.277  16.981 -0.6754  0.1230 -0.0788
14393TIP3    H164594   4.115   5.367  17.011 -2.4516  0.2019 -1.0233
14393TIP3    H264595   4.222   5.261  16.996 -0.8328  1.1625  2.6844
14394TIP3   OH264596   2.110   2.412   2.278  0.0496  0.0384 -0.6009
14394TIP3    H164597   2.128   2.331   2.326 -2.5708 -0.6321 -0.5599
14394TIP3    H264598   2.026   2.395   2.234 -1.0965  3.0334  0.1631
14395TIP3   OH264599   3.812   2.325  15.196  0.4313 -0.2451  0.3413
14395TIP3    H164600   3.843   2.345  15.285  1.8030  1.0336 -0.3687
14395TIP3    H264601   3.892   2.303  15.148 -0.3057 -0.9955 -0.5566
14396TIP3   OH264602   3.738   4.107   2.053  0.4815  0.1974 -0.1994
14396TIP3    H164603   3.801   4.177   2.069 -1.7666  2.1024  1.0529
14396TIP3    H264604   3.665   4.127   2.112 -0.3939 -3.1322  0.0608
14397TIP3   OH264605   3.001   4.250  15.840 -0.3601  0.4622 -0.1622
14397TIP3    H164606   2.999   4.197  15.761  1.4021  1.4765 -0.9442
14397TIP3    H264607   3.041   4.333  15.813 -1.0439  1.4007  1.4820
14398TIP3   OH264608   3.728   3.922   4.217 -0.6648 -0.3953  0.0487
14398TIP3    H164609   3.786   3.880   4.154  1.5966  0.0314  1.7346
14398TIP3    H264610   3.783   3.985   4.263 -2.5425  0.2572  1.5762
14399TIP3   OH264611   3.089   3.972   1.935 -0.4726 -0.1699 -0.3874
14399TIP3    H164612   3.081   3.967   1.840 -0.7908  1.1403 -0.4464
14399TIP3    H264613   3.001   3.996   1.965 -0.5251 -1.1594  0.3002
14400TIP3   OH264614   1.567   5.303   2.723  0.6878 -0.4400  0.0699
14400TIP3    H164615   1.567   5.389   2.765 -0.7550 -0.2611 -0.2693
14400TIP3    H264616   1.569   5.240   2.795 -0.6441 -0.1302  0.3869
14401TIP3   OH264617   2.477   2.730  13.312  0.9169 -0.0672  0.2341
14401TIP3    H164618   2.399   2.682  13.339  0.5407  0.5028  0.1679
14401TIP3    H264619   2.499   2.694  13.226 -0.5240  1.2190 -0.7259
14402TIP3   OH264620   4.203   0.206   2.890  0.4290  0.1398 -0.3253
14402TIP3    H164621   4.216   0.245   2.977  0.8089 -0.0741 -0.2865
14402TIP3    H264622   4.279   0.233   2.839  0.3706 -0.0111 -0.4941
14403TIP3   OH264623   5.872   0.134  15.547  0.2993 -0.3481  0.1314
14403TIP3    H164624   5.826   0.050  15.541 -0.3409 -0.1340  1.7229
14403TIP3    H264625   5.805   0.196  15.573  1.1075  0.3490  0.5921
14404TIP3   OH264626   4.918   4.512  16.744 -0.2786 -0.1015  0.7779
14404TIP3    H164627   4.889   4.423  16.763 -0.3352 -0.0744  0.8214
14404TIP3    H264628   4.887   4.529  16.655 -3.1335  1.0215  1.8664
14405TIP3   OH264629   4.658   2.700  14.168 -0.1858 -0.1739 -0.2541
14405TIP3    H164630   4.614   2.664  14.245 -1.1985  1.8531  0.2059
14405TIP3    H264631   4.621   2.788  14.159  1.5479  0.4648 -1.7479
14406TIP3   OH264632   3.968   3.050   0.228  0.4113  0.3724 -0.2382
14406TIP3    H164633   4.062   3.068   0.227  0.4925  0.1320 -2.8363
14406TIP3    H264634   3.959   2.966   0.183 -1.0147  0.0729  0.5491
14407TIP3   OH264635   4.432   6.488  17.191  0.0883 -0.1991 -1.1010
14407TIP3    H164636   4.473   6.468  17.275  0.2906  1.9361 -0.6230
14407TIP3    H264637   4.398   6.404  17.160 -1.0694 -0.8889  1.6900
14408TIP3   OH264638   3.817   4.110  16.391  0.4471 -0.1508 -0.3930
14408TIP3    H164639   3.832   4.185  16.333  1.4550  0.4330  0.5662
14408TIP3    H264640   3.839   4.034  16.338 -0.0100  0.2693 -1.2001
14409TIP3   OH264641   1.170   6.111  11.481 -0.5610 -0.0950  0.0002
14409TIP3    H164642   1.256   6.095  11.520  0.2633 -0.5616 -1.8933
14409TIP3    H264643   1.108   6.070  11.541  0.6416 -0.8068  0.7910
14410TIP3   OH264644   5.000   2.299   6.308  0.7511 -0.4590  0.2741
14410TIP3    H164645   5.074   2.352   6.279  0.3466 -0.9583 -1.7854
14410TIP3    H264646   4.994   2.228   6.245 -0.0544 -1.7858  1.7552
14411TIP3   OH264647   6.118   2.698   1.301  0.3221 -0.3361  0.1843
14411TIP3    H164648   6.109   2.692   1.206  0.5974  0.6264  0.0885
14411TIP3    H264649   6.031   2.724   1.331  0.6737  1.0558  0.0253
14412TIP3   OH264650   2.861   2.933   4.095 -0.1572  0.0857  0.2280
14412TIP3    H164651   2.850   2.970   4.008  0.6040  1.6564  0.7614
14412TIP3    H264652   2.930   2.868   4.084  1.1852  1.4931 -0.0567
14413TIP3   OH264653   6.595   0.786   1.148 -0.4565 -0.3200 -0.4415
14413TIP3    H164654   6.577   0.835   1.068 -1.7544 -0.2002 -0.0863
14413TIP3    H264655   6.603   0.852   1.216 -1.0523 -0.5314 -0.1677
14414TIP3   OH264656   4.486   2.852  16.592 -0.5143  0.8086  0.3830
14414TIP3    H164657   4.499   2.819  16.503  0.9598  0.7715  0.5764
14414TIP3    H264658   4.548   2.925  16.600 -0.4776  0.6866  1.4353
14415TIP3   OH264659   3.513   3.405   6.369  0.3873 -0.1195  0.1513
14415TIP3    H164660   3.463   3.450   6.437 -1.2670 -1.9366  0.2529
14415TIP3    H264661   3.599   3.391   6.408 -0.2015 -0.1934  1.4855
14416TIP3   OH264662   6.546   0.307  16.960 -0.0026  0.1691  0.4135
14416TIP3    H164663   6.607   0.322  16.887  0.9188 -3.1014  0.3731
14416TIP3    H264664   6.528   0.395  16.994  1.3773  1.6228 -2.2371
14417TIP3   OH264665   1.693   0.843   0.761 -0.1836  0.7864  0.1077
14417TIP3    H164666   1.664   0.789   0.834 -0.7178  1.5848  0.5068
14417TIP3    H264667   1.612   0.882   0.727 -0.0721 -0.3340 -1.5446
14418TIP3   OH264668   0.018   3.447  11.029  0.3638  0.2281  0.4649
14418TIP3    H164669   0.010   3.486  10.943  2.2822 -0.5353 -0.1050
14418TIP3    H264670   0.098   3.484  11.065 -0.5632  0.7728  2.0791
14419TIP3   OH264671   0.291   0.908   4.748  0.1001  0.3331 -0.2462
14419TIP3    H164672   0.282   0.882   4.840  1.6177 -0.5216 -0.3052
14419TIP3    H264673   0.279   1.003   4.748 -1.3932  0.1754  0.5971
14420TIP3   OH264674   6.008   5.547  10.574 -0.4461  0.2385  0.4110
14420TIP3    H164675   6.081   5.515  10.521 -0.5710  0.7195 -0.0590
14420TIP3    H264676   5.992   5.477  10.638 -0.5152 -0.5057 -0.4009
14421TIP3   OH264677   6.740   6.444   5.841 -0.1016 -0.4239  0.1757
14421TIP3    H164678   6.757   6.518   5.782  1.4176  0.6500  1.8758
14421TIP3    H264679   6.655   6.464   5.880  0.3041  0.4417  0.6328
14422TIP3   OH264680   6.085   0.791   4.242  0.5159  0.1055  0.1812
14422TIP3    H164681   5.994   0.763   4.251  0.7101 -0.9214 -0.7779
14422TIP3    H264682   6.080   0.886   4.240 -0.3991  0.1087  1.3973
14423TIP3   OH264683   2.126   2.321   3.531 -0.1957  0.1789 -0.3073
14423TIP3    H164684   2.179   2.241   3.537 -1.4820 -1.0577 -3.3169
14423TIP3    H264685   2.063   2.313   3.603  0.0089 -1.3049 -0.2516
14424TIP3   OH264686   0.434   4.170   1.900  0.0961  0.3000 -0.2811
14424TIP3    H164687   0.440   4.102   1.967 -0.1372 -1.2437 -1.7661
14424TIP3    H264688   0.341   4.173   1.877  0.2712  0.2842 -1.0327
14425TIP3   OH264689   2.402   0.294   4.282  0.1580 -0.0887 -0.3775
14425TIP3    H164690   2.455   0.220   4.310 -0.1386 -0.5834 -1.0950
14425TIP3    H264691   2.317   0.255   4.260 -0.0807  0.5025 -0.5185
14426TIP3   OH264692   3.066   1.118  16.337  0.2539  0.8921 -0.1861
14426TIP3    H164693   2.973   1.139  16.323 -0.3085  0.0875  1.9410
14426TIP3    H264694   3.090   1.168  16.415  1.1173 -0.1927  0.2694
14427TIP3   OH264695   6.520   4.715  15.491  0.3245  0.3323  0.5211
14427TIP3    H164696   6.492   4.804  15.511  0.1831  0.4654 -0.2556
14427TIP3    H264697   6.439   4.665  15.486  0.4532 -0.0721  1.9710
14428TIP3   OH264698   0.503   2.842   0.515 -0.2609 -0.1237 -0.2158
14428TIP3    H164699   0.506   2.918   0.573  0.9134 -0.6623  0.4604
14428TIP3    H264700   0.565   2.780   0.553 -1.5769 -1.6541 -0.4458
14429TIP3   OH264701   2.436   2.889  12.699 -0.1820 -0.0568 -0.0582
14429TIP3    H164702   2.415   2.799  12.725 -1.4052  0.5635  1.2669
14429TIP3    H264703   2.358   2.939  12.722  0.5974  1.3996 -0.4686
14430TIP3   OH264704   0.963   4.641  14.038 -0.2733 -0.5535 -0.1812
14430TIP3    H164705   0.927   4.720  14.078  0.2732 -1.0674  1.3877
14430TIP3    H264706   1.040   4.620  14.091  1.1711 -0.6411 -2.2179
14431TIP3   OH264707   4.877   4.027   0.397  0.1075  0.0786 -0.0333
14431TIP3    H164708   4.831   4.042   0.314 -0.7728 -1.0930  0.2182
14431TIP3    H264709   4.824   3.961   0.442  1.8488 -1.0716  0.4216
14432TIP3   OH264710   1.970   5.995   6.053 -0.6202 -0.0395  0.0865
14432TIP3    H164711   2.001   6.028   6.138  0.2186  1.0065 -0.5988
14432TIP3    H264712   1.952   5.902   6.069  2.5587 -0.6803  0.6800
14433TIP3   OH264713   5.894   6.737  12.186  0.1411 -0.0696  0.3326
14433TIP3    H164714   5.923   6.730  12.095  0.7697 -1.4884  0.6044
14433TIP3    H264715   5.956   6.682  12.234 -0.7705 -0.1213  1.4795
14434TIP3   OH264716   3.595   1.527  16.048  0.0048 -0.5395 -0.1477
14434TIP3    H164717   3.542   1.569  16.115 -1.8152 -1.1630 -1.1157
14434TIP3    H264718   3.638   1.600  16.003  0.9919 -0.0988  1.4376
14435TIP3   OH264719   6.397   4.971  13.305 -0.3203 -0.2601 -0.5034
14435TIP3    H164720   6.403   4.910  13.379 -0.2403 -2.1833 -1.9993
14435TIP3    H264721   6.349   5.046  13.339 -0.1523 -1.0179  1.5261
14436TIP3   OH264722   4.353   0.181  14.331  0.3885  0.4709  0.3367
14436TIP3    H164723   4.441   0.218  14.332 -0.1392  1.8240 -0.1878
14436TIP3    H264724   4.365   0.088  14.350  2.1655  0.1255 -2.0963
14437TIP3   OH264725   5.265   1.148  16.961  0.3908  0.0449 -0.6939
14437TIP3    H164726   5.275   1.206  16.885 -0.5253  2.6380  1.0441
14437TIP3    H264727   5.352   1.145  17.000  0.0762  1.8750  0.2494
14438TIP3   OH264728   0.890   4.338   0.748 -0.0717  0.1412  0.0377
14438TIP3    H164729   0.986   4.341   0.747 -0.0832  0.8506  0.4741
14438TIP3    H264730   0.864   4.425   0.778 -0.8744  0.2443 -0.9251
14439TIP3   OH264731   0.899   4.986   5.639 -0.7096  0.0821 -0.7288
14439TIP3    H164732   0.938   4.961   5.723  0.0364 -1.0850 -1.3931
14439TIP3    H264733   0.808   4.956   5.646 -1.1235  1.4330  0.2373
14440TIP3   OH264734   6.185   6.683  17.051 -0.0480  0.1256 -0.0427
14440TIP3    H164735   6.176   6.695  16.956  1.5418 -0.4029 -0.2952
14440TIP3    H264736   6.123   6.745  17.089 -0.6942  0.3727 -1.4219
14441TIP3   OH264737   1.876   6.591   1.246 -0.2956  0.2687 -0.0797
14441TIP3    H164738   1.790   6.588   1.288  0.1270 -0.5951  0.7707
14441TIP3    H264739   1.924   6.659   1.293  0.0735 -0.4862  0.6648
14442TIP3   OH264740   6.358   3.864  15.338 -0.1620  0.2072  0.0047
14442TIP3    H164741   6.305   3.810  15.397  0.3673 -0.0523  0.2596
14442TIP3    H264742   6.336   3.954  15.361 -0.4932  0.1019  0.1048
14443TIP3   OH264743   5.837   5.504   0.462  0.1605  0.3234  0.2219
14443TIP3    H164744   5.868   5.445   0.532 -0.6406 -0.4570 -0.0556
14443TIP3    H264745   5.841   5.591   0.501  0.1020 -0.0574  1.1219
14444TIP3   OH264746   0.278   2.108   5.177  0.0100  0.3823 -0.6645
14444TIP3    H164747   0.357   2.059   5.196 -0.1506  0.8133  1.3829
14444TIP3    H264748   0.309   2.193   5.145  0.3707  0.3884 -0.3015
14445TIP3   OH264749   1.013   6.132   1.914 -0.5279 -0.6453 -0.0934
14445TIP3    H164750   0.950   6.175   1.971  0.0684 -0.1130  0.1788
14445TIP3    H264751   1.003   6.175   1.830 -0.1598 -0.1942  0.0919
14446TIP3   OH264752   5.467   0.164   5.084 -0.2588  0.4017  0.5236
14446TIP3    H164753   5.452   0.221   5.159 -2.3398  0.3028  0.2512
14446TIP3    H264754   5.423   0.082   5.107  0.5792 -0.2461 -0.0972
14447TIP3   OH264755   1.738   2.194   1.551 -0.0298 -0.1307 -0.2806
14447TIP3    H164756   1.832   2.178   1.545  0.2160  1.5474 -1.5969
14447TIP3    H264757   1.719   2.190   1.645  1.1424 -1.4413 -0.0582
14448TIP3   OH264758   2.975   2.046   4.300 -0.2243  0.0947 -0.6484
14448TIP3    H164759   2.928   2.079   4.377  0.6678 -0.4812  0.1663
14448TIP3    H264760   2.961   1.951   4.302 -0.9546  0.1679 -1.7292
14449TIP3   OH264761   6.162   4.387  12.274 -0.3665  0.0042 -0.4096
14449TIP3    H164762   6.117   4.406  12.192 -0.6025  1.3867  0.0122
14449TIP3    H264763   6.111   4.434  12.340  0.9692  0.5736  0.2485
14450TIP3   OH264764   2.522   4.443   2.884  0.2330  0.1780 -1.0359
14450TIP3    H164765   2.506   4.355   2.849 -0.0231 -0.0985 -0.2401
14450TIP3    H264766   2.587   4.430   2.953 -0.9566  0.3652  0.1739
14451TIP3   OH264767   5.041   2.009   4.652 -0.1040  0.5575  0.0048
14451TIP3    H164768   5.025   2.086   4.597  0.8445  2.7861  2.6199
14451TIP3    H264769   5.133   2.016   4.676 -0.0355 -1.3509  0.4917
14452TIP3   OH264770   3.021   4.390  11.749  0.1459 -0.2125 -0.3485
14452TIP3    H164771   3.066   4.330  11.689 -1.3395  0.8579 -2.7002
14452TIP3    H264772   2.928   4.379  11.728 -0.3958  0.5707  1.4746
14453TIP3   OH264773   0.982   0.071   0.170 -0.5163 -0.2897  0.1570
14453TIP3    H164774   0.888   0.058   0.181 -0.7973  0.4603 -1.1571
14453TIP3    H264775   0.991   0.165   0.151  0.7250  0.1247  2.4151
14454TIP3   OH264776   0.889   4.504  14.540 -0.1190 -0.9120 -0.4992
14454TIP3    H164777   0.968   4.450  14.530  1.8661  1.6886  0.0626
14454TIP3    H264778   0.863   4.524  14.450  0.8233 -0.4885 -0.6840
14455TIP3   OH264779   1.834   6.104  11.149 -0.1425  0.3137  0.1502
14455TIP3    H164780   1.741   6.085  11.152 -0.1920  0.6198  0.7183
14455TIP3    H264781   1.854   6.140  11.235  0.6358 -0.3659  0.2687
14456TIP3   OH264782   2.613   0.949  13.712  0.1878  0.1712 -0.1989
14456TIP3    H164783   2.554   0.956  13.638 -0.7893 -3.8683 -0.0674
14456TIP3    H264784   2.698   0.927  13.673  0.1812  0.1326 -0.1915
14457TIP3   OH264785   0.072   5.753  11.258 -0.2772  0.1945  0.4077
14457TIP3    H164786   0.062   5.718  11.347  4.1260  0.7215  1.3449
14457TIP3    H264787   0.082   5.847  11.271  1.2138  0.1905 -0.5190
14458TIP3   OH264788   3.692   2.255  16.554 -0.1226 -0.0566 -0.1220
14458TIP3    H164789   3.614   2.240  16.500 -0.7245  0.3668  0.6173
14458TIP3    H264790   3.751   2.183  16.532 -1.5043 -1.5115  0.7380
14459TIP3   OH264791   6.781   3.028  11.438 -0.3566 -0.4953  0.2155
14459TIP3    H164792   6.867   3.053  11.404 -0.0321 -1.8387 -0.0285
14459TIP3    H264793   6.736   3.111  11.454  0.8762  0.2252  0.0759
14460TIP3   OH264794   4.098   1.023  11.063 -0.4072  0.1419 -0.1212
14460TIP3    H164795   4.067   1.093  11.006 -0.3655  0.9711  0.8477
14460TIP3    H264796   4.169   0.982  11.013 -1.9078 -0.7185 -1.6674
14461TIP3   OH264797   4.109   5.480  12.623 -0.4622 -0.0205  0.5640
14461TIP3    H164798   4.153   5.403  12.587  0.4108 -0.4032  2.3332
14461TIP3    H264799   4.179   5.539  12.649 -1.0843  0.7277  0.5948
14462TIP3   OH264800   4.515   2.278   2.524 -0.6034  0.2188  0.4669
14462TIP3    H164801   4.458   2.355   2.529 -0.2728  0.3928  2.0794
14462TIP3    H264802   4.462   2.207   2.560  0.4548  0.5743  2.8738
14463TIP3   OH264803   3.522   4.552  17.014  0.4508 -0.1432 -0.2520
14463TIP3    H164804   3.616   4.541  16.996  0.2653 -0.1497 -1.2216
14463TIP3    H264805   3.506   4.495  17.089  1.3630  0.3885  0.3784
14464TIP3   OH264806   5.056   1.773  13.726  0.2445  0.2461  0.1017
14464TIP3    H164807   5.123   1.792  13.792 -0.2488 -0.3200  0.7785
14464TIP3    H264808   5.063   1.678  13.712  0.9811  0.4902 -1.3686
14465TIP3   OH264809   0.121   2.981  14.955 -0.1365 -0.1688  0.0232
14465TIP3    H164810   0.144   2.994  15.047  2.6305  0.6682 -0.6875
14465TIP3    H264811   0.063   3.054  14.934 -1.4995 -0.8411  1.2589
14466TIP3   OH264812   5.470   5.543   5.013  0.7331  0.2408  0.1016
14466TIP3    H164813   5.456   5.553   5.107 -1.6647 -0.7645 -0.0609
14466TIP3    H264814   5.490   5.450   5.002 -1.6349 -0.2739 -0.5386
14467TIP3   OH264815   5.151   4.695  12.633 -0.3468 -0.1090 -0.6331
14467TIP3    H164816   5.195   4.611  12.617 -0.7108 -0.1965 -1.1763
14467TIP3    H264817   5.120   4.688  12.724  1.2525  0.1817 -0.0372
14468TIP3   OH264818   0.710   2.984   1.994 -0.4681 -0.0466 -0.7134
14468TIP3    H164819   0.640   3.030   1.948 -0.0264  0.4563 -0.9031
14468TIP3    H264820   0.791   3.021   1.957 -0.0670  1.4178  1.4209
14469TIP3   OH264821   5.987   4.516  16.193 -0.2714  0.9762 -0.3172
14469TIP3    H164822   6.036   4.436  16.210 -1.2873  0.0866 -1.3884
14469TIP3    H264823   5.900   4.485  16.166 -0.7791  2.4531 -0.4537
14470TIP3   OH264824   1.808   6.275  12.716 -0.2557 -0.3514  0.1792
14470TIP3    H164825   1.851   6.350  12.674 -0.8750 -0.4433 -0.6656
14470TIP3    H264826   1.878   6.212  12.732 -0.0189 -0.4296 -1.0271
14471TIP3   OH264827   0.103   5.537  13.863  0.5342 -0.0941 -0.3698
14471TIP3    H164828   0.157   5.458  13.871 -1.7549 -1.7187  0.5101
14471TIP3    H264829   0.024   5.515  13.913  0.5189  3.4934  1.4840
14472TIP3   OH264830   2.652   5.269  14.279  0.2790  0.5573 -0.3304
14472TIP3    H164831   2.611   5.185  14.262  2.6664 -0.8378  0.2803
14472TIP3    H264832   2.686   5.297  14.194 -0.1749  0.7303 -0.4593
14473TIP3   OH264833   6.253   0.709   1.098 -0.0721  0.0369 -0.5364
14473TIP3    H164834   6.195   0.634   1.113  0.0421  0.0346 -0.0955
14473TIP3    H264835   6.302   0.718   1.179 -1.0347  1.4268 -0.0675
14474TIP3   OH264836   5.632   3.856  12.110  0.1499  0.5357 -0.1618
14474TIP3    H164837   5.586   3.773  12.097  0.5967  0.6061 -2.6411
14474TIP3    H264838   5.562   3.920  12.125 -0.1622 -0.3591  3.0048
14475TIP3   OH264839   3.265   6.458  12.135 -0.4301 -0.0394 -0.5010
14475TIP3    H164840   3.192   6.443  12.075 -0.7186 -1.7269  0.2410
14475TIP3    H264841   3.226   6.455  12.222  0.4830 -0.6947 -0.1048
14476TIP3   OH264842   0.406   6.476   1.887  0.8042  0.5655 -0.4355
14476TIP3    H164843   0.478   6.436   1.936 -0.5995  0.6018  1.7764
14476TIP3    H264844   0.428   6.460   1.795  1.4449 -3.2962  0.2301
14477TIP3   OH264845   2.313   5.291   1.176  0.5575  0.4880  0.2372
14477TIP3    H164846   2.396   5.313   1.134  0.3678  1.6097  0.4266
14477TIP3    H264847   2.260   5.251   1.107  1.4214 -0.7208  0.2381
14478TIP3   OH264848   2.661   1.721   1.256  0.5265 -0.3710  0.1448
14478TIP3    H164849   2.626   1.652   1.200 -2.2948  1.1862 -0.1934
14478TIP3    H264850   2.587   1.749   1.309  2.4684 -0.0041  2.9042
14479TIP3   OH264851   4.494   0.156   2.936 -0.1524 -0.2110 -0.0245
14479TIP3    H164852   4.513   0.214   3.010  0.4989  1.1274 -1.1804
14479TIP3    H264853   4.463   0.215   2.867  0.2054 -1.2813 -1.1383
14480TIP3   OH264854   4.665   4.356   5.233 -0.5002  0.3096 -0.3914
14480TIP3    H164855   4.694   4.387   5.147 -0.5530  1.1395 -0.1129
14480TIP3    H264856   4.570   4.363   5.230 -0.4563  1.2588  0.0684
14481TIP3   OH264857   6.719   5.678   5.430 -0.2138 -0.4334  0.3682
14481TIP3    H164858   6.675   5.749   5.477  0.9768  1.2825 -0.9776
14481TIP3    H264859   6.808   5.679   5.463  0.2016 -0.2944 -0.7014
14482TIP3   OH264860   3.929   1.966  12.613 -0.3680  0.1444 -0.1424
14482TIP3    H164861   3.902   1.876  12.594  0.5319 -0.1529 -0.0200
14482TIP3    H264862   3.886   1.987  12.696 -0.0646 -0.3947  0.1503
14483TIP3   OH264863   2.701   0.354   6.577  0.1456 -0.2310  0.2425
14483TIP3    H164864   2.686   0.342   6.671 -2.5289 -1.1033 -0.2284
14483TIP3    H264865   2.633   0.302   6.535  3.2184 -2.6073 -2.3056
14484TIP3   OH264866   0.235   4.119   1.120 -0.0889 -0.4214 -0.0929
14484TIP3    H164867   0.284   4.043   1.152  0.4589 -0.0189  0.0390
14484TIP3    H264868   0.155   4.082   1.083  0.7523 -1.1803 -1.2158
14485TIP3   OH264869   6.325   1.250  11.545 -0.1893 -0.2298 -0.0823
14485TIP3    H164870   6.307   1.341  11.568  0.1265 -0.5651  1.6668
14485TIP3    H264871   6.379   1.255  11.467  0.8498  1.1493  0.6634
14486TIP3   OH264872   5.723   5.930   2.223  0.4591  0.2324  0.0125
14486TIP3    H164873   5.676   6.001   2.267  0.6093 -0.7623  1.8517
14486TIP3    H264874   5.758   5.877   2.294  2.9048 -0.0329 -1.3079
14487TIP3   OH264875   5.937   6.677   6.298 -0.6561  0.3915 -0.5504
14487TIP3    H164876   5.991   6.752   6.271  1.1623 -0.8940 -0.7024
14487TIP3    H264877   5.921   6.629   6.217 -3.5646  1.6089 -0.8033
14488TIP3   OH264878   6.450   5.523  16.790  0.1392  0.5183  0.4984
14488TIP3    H164879   6.480   5.549  16.877 -1.5796  0.6585  1.0934
14488TIP3    H264880   6.394   5.447  16.806 -1.0153  1.1559 -0.3400
14489TIP3   OH264881   5.458   2.053  12.245 -0.2437  0.0626  0.2233
14489TIP3    H164882   5.537   2.101  12.269 -0.1367  0.1224 -0.2307
14489TIP3    H264883   5.431   2.009  12.325  0.7504 -0.6669  0.1873
14490TIP3   OH264884   3.280   5.559   1.959 -0.1699  0.0814 -0.5230
14490TIP3    H164885   3.185   5.553   1.945 -0.1023 -1.7854 -0.3442
14490TIP3    H264886   3.303   5.477   2.002  1.5964  0.3621 -0.8718
14491TIP3   OH264887   2.461   1.725  13.317  0.8111  0.1213  0.2895
14491TIP3    H164888   2.498   1.813  13.311  0.3851  0.3300  0.6366
14491TIP3    H264889   2.375   1.732  13.275  1.1249 -0.3377 -0.4424
14492TIP3   OH264890   3.412   4.417  16.255  0.3705  0.6027 -0.2657
14492TIP3    H164891   3.366   4.465  16.324 -1.0512 -1.9201  0.6813
14492TIP3    H264892   3.355   4.425  16.178 -0.3269 -0.2797  0.1471
14493TIP3   OH264893   1.915   2.035   3.448  0.0358 -0.2348 -0.1795
14493TIP3    H164894   1.878   2.059   3.364 -0.8977  1.0024  0.5444
14493TIP3    H264895   2.006   2.064   3.444  0.8831 -2.7909 -1.7676
14494TIP3   OH264896   1.836   2.137   3.194  0.5541  0.1367  0.6977
14494TIP3    H164897   1.843   2.108   3.103 -0.7194 -0.4541  0.7666
14494TIP3    H264898   1.745   2.166   3.203  0.3157 -0.9499  2.0941
14495TIP3   OH264899   2.201   6.676   5.417  0.3893  1.0281  0.1663
14495TIP3    H164900   2.261   6.639   5.481  0.7332  0.5743 -0.4108
14495TIP3    H264901   2.131   6.612   5.408 -0.0012  1.3883  0.5631
14496TIP3   OH264902   1.969   6.497  13.767  1.2121  0.5854 -0.0508
14496TIP3    H164903   1.931   6.421  13.809  1.0028  1.1579  0.8103
14496TIP3    H264904   1.919   6.508  13.686  1.4986 -0.4066 -0.3776
14497TIP3   OH264905   5.848   1.466   1.854 -0.0737  0.8994 -0.2515
14497TIP3    H164906   5.825   1.392   1.799 -1.3455  0.1258  1.2237
14497TIP3    H264907   5.807   1.541   1.812  0.8601  0.7219 -1.5242
14498TIP3   OH264908   3.578   1.658  10.390 -0.4811 -0.7286 -0.1837
14498TIP3    H164909   3.634   1.735  10.389  0.8888 -1.7050 -1.1385
14498TIP3    H264910   3.511   1.678  10.457  0.5508  0.7537  0.4559
14499TIP3   OH264911   2.070   3.519  12.483  0.1011  0.0961  0.1598
14499TIP3    H164912   2.010   3.590  12.459 -0.1955 -0.1309  0.2347
14499TIP3    H264913   2.014   3.448  12.513  0.4487  0.2751  1.2863
14500TIP3   OH264914   2.667   6.781   2.341  0.1109  0.5955  0.6306
14500TIP3    H164915   2.689   6.874   2.343 -0.1967  0.7491 -1.4158
14500TIP3    H264916   2.641   6.764   2.251  2.8634 -2.1006  0.1715
14501TIP3   OH264917   2.686   6.409  11.790 -0.6015  0.2652  0.3682
14501TIP3    H164918   2.644   6.468  11.854 -1.0405  0.3940 -0.0311
14501TIP3    H264919   2.617   6.390  11.727 -0.7535 -1.4424  0.9965
14502TIP3   OH264920   2.330   5.860  12.426 -0.0068 -0.6335  0.2709
14502TIP3    H164921   2.404   5.921  12.425 -0.8047  0.3716  0.9176
14502TIP3    H264922   2.312   5.846  12.519 -2.2992  1.2619  0.2039
14503TIP3   OH264923   3.505   6.509   1.690  0.2607 -0.1671 -0.6435
14503TIP3    H164924   3.470   6.592   1.658 -2.8539 -1.2515 -0.4613
14503TIP3    H264925   3.499   6.515   1.785  0.7727 -0.3095 -0.6007
14504TIP3   OH264926   4.332   5.192   6.278  0.5804 -0.0249  0.0420
14504TIP3    H164927   4.343   5.287   6.280 -1.4567  0.2699 -0.5795
14504TIP3    H264928   4.418   5.158   6.255  1.2050  1.7054 -0.2821
14505TIP3   OH264929   2.749   4.705  15.324 -0.1894 -0.3488 -0.5802
14505TIP3    H164930   2.674   4.650  15.345 -1.0631  1.3009  0.8405
14505TIP3    H264931   2.825   4.652  15.347 -1.0170 -0.8228  1.2169
14506TIP3   OH264932   6.356   2.745   2.374 -0.3211 -0.0371  0.1259
14506TIP3    H164933   6.337   2.715   2.285  1.9873 -0.8919 -0.1551
14506TIP3    H264934   6.324   2.674   2.430 -1.8667  0.5461  0.0204
14507TIP3   OH264935   3.433   0.076   0.111  0.2884 -0.5704  0.4388
14507TIP3    H164936   3.407   0.158   0.069  1.3226 -0.8892 -0.9151
14507TIP3    H264937   3.520   0.093   0.146  0.6529 -1.1553 -0.1459
14508TIP3   OH264938   5.760   2.353  14.077  0.1490  0.7138 -0.3467
14508TIP3    H164939   5.765   2.446  14.098  0.1939  0.7511 -0.5178
14508TIP3    H264940   5.672   2.342  14.039  0.0830  0.6548 -0.1779
14509TIP3   OH264941   0.767   1.280  13.760 -0.5330  0.4273  0.5307
14509TIP3    H164942   0.790   1.280  13.853 -0.4541  1.5525  0.5209
14509TIP3    H264943   0.810   1.358  13.725  0.0813 -0.4098 -0.6205
14510TIP3   OH264944   5.373   5.373  12.515 -0.3895 -0.0631 -0.2715
14510TIP3    H164945   5.387   5.314  12.589  0.0437 -0.2194 -0.4764
14510TIP3    H264946   5.319   5.323  12.454 -2.2149  0.6510  0.6580
14511TIP3   OH264947   2.259   1.238  13.593 -0.4494  0.3722  0.0296
14511TIP3    H164948   2.324   1.235  13.663  0.2100 -2.3287 -0.5774
14511TIP3    H264949   2.190   1.295  13.626  0.8188  0.8744  1.9676
14512TIP3   OH264950   2.954   5.189   0.336  0.3984  0.6105 -0.6731
14512TIP3    H164951   3.024   5.243   0.299  0.0716  2.1694  0.8221
14512TIP3    H264952   2.956   5.209   0.430 -1.6629  0.2789 -0.5145
14513TIP3   OH264953   3.983   5.377   5.583 -0.2759 -0.5428  0.5195
14513TIP3    H164954   3.999   5.434   5.659 -1.9124 -0.5012  0.8525
14513TIP3    H264955   3.966   5.291   5.621 -1.3205 -0.4725  0.2136
14514TIP3   OH264956   1.657   0.281  16.101  0.1704 -0.6202  0.1528
14514TIP3    H164957   1.742   0.324  16.111  0.0415 -0.3467  0.0657
14514TIP3    H264958   1.611   0.334  16.036 -0.6692  0.1342  1.3257
14515TIP3   OH264959   6.376   4.544  14.082 -0.1839 -0.9141 -0.0604
14515TIP3    H164960   6.459   4.570  14.042 -0.7160 -1.2377 -1.4313
14515TIP3    H264961   6.356   4.615  14.143  2.6892 -2.3214  2.8601
14516TIP3   OH264962   4.057   3.863   0.690 -0.4177  0.0703 -0.2504
14516TIP3    H164963   3.975   3.898   0.652 -1.0885 -2.0186 -0.8613
14516TIP3    H264964   4.125   3.892   0.629 -0.6427  1.8834  0.2915
14517TIP3   OH264965   6.285   4.463  13.757  0.1062 -0.2722  0.1420
14517TIP3    H164966   6.339   4.461  13.679  0.9399  2.0848  0.5961
14517TIP3    H264967   6.347   4.450  13.829 -0.4604 -1.0151  0.5152
14518TIP3   OH264968   2.355   3.425  14.442 -0.2710 -0.1419  0.3952
14518TIP3    H164969   2.428   3.390  14.493  0.7062 -0.2113 -0.9862
14518TIP3    H264970   2.291   3.354  14.440  0.6989 -1.0295 -0.4365
14519TIP3   OH264971   6.262   5.688  10.967  0.3960  0.1508  0.0298
14519TIP3    H164972   6.292   5.600  10.943  0.6826  0.4241 -0.6469
14519TIP3    H264973   6.341   5.734  10.994  0.2646  0.2387  0.2649
14520TIP3   OH264974   1.168   2.392  11.497  0.0083 -0.2171  0.1847
14520TIP3    H164975   1.259   2.394  11.468 -0.1727  0.4691 -0.3675
14520TIP3    H264976   1.146   2.484  11.512  0.1831 -0.5252  2.8111
14521TIP3   OH264977   2.227   2.094   2.816 -0.0210  0.1963 -0.1088
14521TIP3    H164978   2.175   2.088   2.896 -0.1379  0.4869 -0.1610
14521TIP3    H264979   2.227   2.005   2.781  1.6373 -0.3585  1.2145
14522TIP3   OH264980   6.626   0.609   2.635 -0.5095 -0.2617 -0.0373
14522TIP3    H164981   6.542   0.652   2.620 -0.4111 -0.0084  0.1307
14522TIP3    H264982   6.605   0.533   2.689 -0.8926 -1.2651 -1.5329
14523TIP3   OH264983   1.735   0.327   2.908  0.0829  0.0193  0.4029
14523TIP3    H164984   1.750   0.397   2.844  0.8934 -1.0839 -0.6605
14523TIP3    H264985   1.757   0.366   2.992  0.3253  1.1051 -0.1443
14524TIP3   OH264986   6.279   0.152  11.260 -0.0070  0.6152  0.1558
14524TIP3    H164987   6.365   0.192  11.277  0.9686 -1.9798  1.8990
14524TIP3    H264988   6.228   0.168  11.339 -0.1425 -0.2067  0.2438
14525TIP3   OH264989   2.320   5.555  12.746  0.3810  0.3672 -0.0264
14525TIP3    H164990   2.374   5.554  12.824 -0.6093  0.6106  0.6866
14525TIP3    H264991   2.382   5.550  12.673  1.3324  0.4755  0.7600
14526TIP3   OH264992   2.760   3.594  16.281 -0.1768 -0.2926  0.5311
14526TIP3    H164993   2.726   3.505  16.287  0.4698 -0.5220  0.8195
14526TIP3    H264994   2.758   3.615  16.188  0.4284 -0.9031  0.3787
14527TIP3   OH264995   6.655   3.065   5.030  0.5112 -0.4085 -0.0695
14527TIP3    H164996   6.658   3.124   4.954  0.2686  0.2372  0.4173
14527TIP3    H264997   6.568   3.026   5.026  0.0035  0.5966  0.5826
14528TIP3   OH264998   4.198   4.035  15.293 -0.2608 -0.4776  0.7610
14528TIP3    H164999   4.289   4.056  15.273 -0.8283 -0.1899 -1.9978
14528TIP3    H265000   4.180   3.956  15.242 -1.6828 -0.2062  0.7915
14529TIP3   OH265001   1.899   1.235  11.094 -0.3907  0.3302 -0.5317
14529TIP3    H165002   1.910   1.322  11.132  0.4990  0.3430 -0.8082
14529TIP3    H265003   1.900   1.250  10.999 -1.8684  0.2087 -0.5975
14530TIP3   OH265004   4.692   5.792  16.504  0.1493 -0.1332  0.0759
14530TIP3    H165005   4.746   5.714  16.507  2.1144  1.1230  3.6189
14530TIP3    H265006   4.686   5.814  16.411  0.9130 -3.4601 -0.8944
14531TIP3   OH265007   2.589   5.876   2.361 -0.1333 -0.5761 -0.1725
14531TIP3    H165008   2.682   5.854   2.366  0.6526  2.3637  0.0066
14531TIP3    H265009   2.570   5.921   2.444 -2.0304 -2.0552  0.2570
14532TIP3   OH265010   6.726   0.973  16.470 -0.2834  0.0604 -0.1167
14532TIP3    H165011   6.693   0.928  16.392 -1.0053  1.8713 -0.9119
14532TIP3    H265012   6.647   1.006  16.513  0.2090  0.2163  0.6846
14533TIP3   OH265013   6.499   1.626   3.910  0.5436 -0.0208  0.3411
14533TIP3    H165014   6.446   1.669   3.842  0.9869  0.7376  0.4739
14533TIP3    H265015   6.571   1.686   3.927 -0.4229  0.5793  2.6627
14534TIP3   OH265016   1.867   5.767   2.940  0.0645  0.3339  0.6858
14534TIP3    H165017   1.823   5.848   2.962  0.6000  0.5401  1.0247
14534TIP3    H265018   1.887   5.775   2.846 -1.3375 -0.1218  0.3185
14535TIP3   OH265019   0.263   0.222   0.946 -0.6648  0.1481  0.1289
14535TIP3    H165020   0.272   0.165   1.022 -2.1053 -0.6032 -0.2222
14535TIP3    H265021   0.233   0.306   0.982  2.0467  0.9670  0.7092
14536TIP3   OH265022   3.864   3.688   0.158  0.5148  0.0663 -0.2844
14536TIP3    H165023   3.904   3.608   0.189  1.0965  0.8497  1.0642
14536TIP3    H265024   3.936   3.738   0.119  0.2902  0.2156 -0.5137
14537TIP3   OH265025   6.641   4.903   4.902  0.0483  0.0076 -0.0871
14537TIP3    H165026   6.630   4.908   4.997 -0.7321 -1.6819 -0.0541
14537TIP3    H265027   6.704   4.832   4.888  2.2409  1.9633 -0.7810
14538TIP3   OH265028   6.426   6.616   3.333 -1.0262 -0.3005 -0.2438
14538TIP3    H165029   6.464   6.650   3.252 -2.4796  1.3144 -0.2960
14538TIP3    H265030   6.467   6.530   3.344  0.3509  0.0931 -1.8588
14539TIP3   OH265031   2.565   0.632   2.035 -0.8536  0.4348  0.1197
14539TIP3    H165032   2.615   0.643   1.953 -2.7455 -0.6642 -1.2696
14539TIP3    H265033   2.616   0.569   2.085 -0.5807 -0.3450 -1.0779
14540TIP3   OH265034   2.316   2.360   2.834 -0.4568  0.5779  0.5167
14540TIP3    H165035   2.287   2.270   2.816 -0.4183  0.2860  1.8427
14540TIP3    H265036   2.246   2.415   2.798 -0.3120  0.0552 -0.6327
14541TIP3   OH265037   4.448   0.126  13.749 -0.3821 -0.2697 -0.6057
14541TIP3    H165038   4.521   0.070  13.724  1.4951  1.1784  1.3057
14541TIP3    H265039   4.479   0.175  13.824 -3.4113  0.3178  0.4276
14542TIP3   OH265040   5.535   3.986  15.620  0.4911 -0.2369  0.3828
14542TIP3    H165041   5.604   4.017  15.561  0.7532 -0.4340  0.5846
14542TIP3    H265042   5.464   3.961  15.561  1.5436 -2.5194 -0.0483
14543TIP3   OH265043   1.076   4.051  13.872 -0.2212 -0.2421 -0.2867
14543TIP3    H165044   0.991   4.089  13.849 -0.5867  0.4673  1.9229
14543TIP3    H265045   1.057   3.961  13.896 -0.1303 -0.4619 -1.0323
14544TIP3   OH265046   1.974   3.689  13.306  0.1023  0.3773 -0.3338
14544TIP3    H165047   1.970   3.663  13.398 -1.4015 -0.6265 -0.6418
14544TIP3    H265048   1.889   3.662  13.270  1.1786 -0.5362 -2.3345
14545TIP3   OH265049   2.569   4.989  16.079 -0.2407 -0.3735  0.5781
14545TIP3    H165050   2.566   5.080  16.048 -1.7000  0.4891  2.9412
14545TIP3    H265051   2.661   4.964  16.071  0.1483  1.1958 -0.4087
14546TIP3   OH265052   5.458   6.364  14.571 -0.3340  0.1064 -0.4015
14546TIP3    H165053   5.372   6.365  14.530 -0.4817  0.6662 -0.0908
14546TIP3    H265054   5.517   6.394  14.502 -0.6807  1.7589 -0.0161
14547TIP3   OH265055   3.476   4.729  12.575  0.3613 -0.3043  0.2842
14547TIP3    H165056   3.479   4.819  12.543 -2.1758  0.4857  1.9580
14547TIP3    H265057   3.399   4.691  12.532 -0.4373 -0.6168  1.9044
14548TIP3   OH265058   4.127   4.331   2.236 -0.0016  0.7192 -0.5968
14548TIP3    H165059   4.169   4.388   2.172  0.1136  0.6008 -0.6289
14548TIP3    H265060   4.044   4.306   2.195 -0.1753  1.0796 -0.4662
14549TIP3   OH265061   0.620   4.484  11.409 -0.1196 -0.7554 -0.1170
14549TIP3    H165062   0.658   4.553  11.355  0.1450  1.9062  3.0678
14549TIP3    H265063   0.690   4.419  11.418  0.6186 -0.1310 -1.0952
14550TIP3   OH265064   5.454   0.901   2.923  0.5065 -0.3920  1.1366
14550TIP3    H165065   5.500   0.969   2.874  0.2715 -0.6725  0.5134
14550TIP3    H265066   5.376   0.945   2.959  0.4270 -0.3015  0.8525
14551TIP3   OH265067   5.846   5.611  11.865  0.1942  0.3817 -0.4745
14551TIP3    H165068   5.825   5.700  11.893 -0.8265  0.6286 -1.9243
14551TIP3    H265069   5.771   5.559  11.894 -0.0544  0.3323 -1.1846
14552TIP3   OH265070   0.364   0.307   1.941 -0.4726  0.3815  0.0530
14552TIP3    H165071   0.354   0.244   2.013  0.5839  0.1464  0.0157
14552TIP3    H265072   0.450   0.287   1.904 -0.3956  1.4340 -0.3717
14553TIP3   OH265073   6.390   5.936  12.681 -0.5488  0.0695  0.3525
14553TIP3    H165074   6.458   5.925  12.615 -1.5486  0.5953 -0.8032
14553TIP3    H265075   6.386   6.030  12.698 -0.0407 -0.0905  1.4724
14554TIP3   OH265076   4.047   5.733  11.028 -0.0798  0.5515 -0.2228
14554TIP3    H165077   4.009   5.667  11.086  1.0161 -0.4116 -0.5563
14554TIP3    H265078   4.059   5.810  11.083  0.1404 -0.0670  0.6100
14555TIP3   OH265079   5.263   3.429   2.965 -0.0682  0.2276 -0.1438
14555TIP3    H165080   5.352   3.445   2.933  0.2687 -2.1497 -0.5795
14555TIP3    H265081   5.218   3.513   2.953  2.1379  1.5530  0.2837
14556TIP3   OH265082   2.307   6.271  17.233 -0.0830  0.2114 -0.3750
14556TIP3    H165083   2.358   6.191  17.248  1.4467  1.0264 -0.9732
14556TIP3    H265084   2.266   6.290  17.318  0.1083 -0.8080 -0.0404
14557TIP3   OH265085   5.766   2.566   5.703 -0.0650  0.2705  0.0179
14557TIP3    H165086   5.818   2.638   5.668  1.8057 -0.4493  1.1660
14557TIP3    H265087   5.746   2.594   5.793  1.0212 -0.7768  0.6065
14558TIP3   OH265088   1.709   2.284  12.144  0.1026  0.6006  0.0800
14558TIP3    H165089   1.785   2.331  12.111  2.6976 -1.5658  2.4107
14558TIP3    H265090   1.684   2.331  12.224  0.6777 -0.1211  0.6993
14559TIP3   OH265091   0.520   6.773  16.791  0.0315  0.5069 -0.0105
14559TIP3    H165092   0.450   6.708  16.784  0.0034  0.6509 -1.3162
14559TIP3    H265093   0.598   6.722  16.813 -0.5351  0.3904  1.8658
14560TIP3   OH265094   2.142   4.794  13.985  0.3018  0.4286 -0.2553
14560TIP3    H165095   2.226   4.758  13.956 -0.5353 -1.0669 -0.9566
14560TIP3    H265096   2.162   4.883  14.012  2.3155 -0.2473  0.6552
14561TIP3   OH265097   5.752   6.740  15.864  0.2832 -0.0291  0.0776
14561TIP3    H165098   5.844   6.761  15.848  0.7778 -1.4322  0.9242
14561TIP3    H265099   5.723   6.698  15.782  0.0916  1.2838 -0.5543
14562TIP3   OH265100   2.964   5.630  13.222 -0.0620  0.2488 -0.0603
14562TIP3    H165101   2.944   5.539  13.243 -0.5932  0.7542  1.7840
14562TIP3    H265102   3.045   5.626  13.171 -1.1882 -1.3769 -1.8589
14563TIP3   OH265103   5.782   4.864   5.756  0.4361  0.0086  0.1107
14563TIP3    H165104   5.749   4.774   5.748 -2.5450  0.9718  0.0955
14563TIP3    H265105   5.751   4.894   5.841  0.0524  1.4478 -0.4876
14564TIP3   OH265106   5.414   5.830   3.064  0.2733  0.1911 -0.9278
14564TIP3    H165107   5.325   5.801   3.085  0.0400  0.6305 -1.2902
14564TIP3    H265108   5.459   5.750   3.035  0.7434 -0.5476  1.5683
14565TIP3   OH265109   1.140   2.348  10.577 -0.1998 -0.5515  0.6323
14565TIP3    H165110   1.079   2.378  10.510  0.0025  1.1263  1.1355
14565TIP3    H265111   1.165   2.260  10.551  0.5011  0.3361 -1.9536
14566TIP3   OH265112   5.532   4.817  12.660 -0.2486  0.0675  0.7922
14566TIP3    H165113   5.534   4.726  12.689 -1.4697 -0.6404 -1.1371
14566TIP3    H265114   5.624   4.844  12.658  0.3203 -1.8029 -0.5492
14567TIP3   OH265115   0.336   3.614  13.326  0.5551 -0.3571 -0.0413
14567TIP3    H165116   0.391   3.685  13.360  1.3574 -0.8391 -0.3027
14567TIP3    H265117   0.382   3.534  13.350  0.1884 -0.7576 -0.6490
14568TIP3   OH265118   5.357   2.314  16.568  0.2277  0.4270 -0.2144
14568TIP3    H165119   5.285   2.252  16.576 -0.2409  1.0179  0.2673
14568TIP3    H265120   5.435   2.259  16.557  0.1489 -0.3845  2.5488
14569TIP3   OH265121   0.442   0.440   2.716 -0.1695  0.3321 -0.1904
14569TIP3    H165122   0.486   0.435   2.631  1.7028 -2.5380  0.8186
14569TIP3    H265123   0.361   0.392   2.704 -0.4311  0.8623 -0.6032
14570TIP3   OH265124   1.732   1.986  14.390  0.0162  0.6518 -0.0179
14570TIP3    H165125   1.826   1.996  14.379  0.0683  1.4695  1.0321
14570TIP3    H265126   1.710   1.906  14.343  1.2588  0.3711 -0.1286
14571TIP3   OH265127   2.491   5.611   2.244 -0.3201  0.1366 -0.6013
14571TIP3    H165128   2.528   5.699   2.236  1.0545 -0.4016 -0.4701
14571TIP3    H265129   2.455   5.609   2.333  3.5690 -0.7617  1.1745
14572TIP3   OH265130   1.811   4.300  16.612  0.1315 -0.2124  0.2526
14572TIP3    H165131   1.821   4.338  16.699  1.1026 -1.3715  0.6803
14572TIP3    H265132   1.866   4.354  16.555 -0.0619  0.2071  0.4634
14573TIP3   OH265133   0.342   4.142   1.573  0.0672 -0.3018 -0.1095
14573TIP3    H165134   0.314   4.219   1.623 -0.6867 -0.3654 -0.4187
14573TIP3    H265135   0.432   4.126   1.601 -0.2213 -0.1156  0.9475
14574TIP3   OH265136   0.692   5.450   2.485  0.6859  0.7203  0.2522
14574TIP3    H165137   0.781   5.481   2.468  0.1728  1.8817 -0.4141
14574TIP3    H265138   0.640   5.484   2.412 -0.4253  0.6150  0.9706
14575TIP3   OH265139   1.352   4.879   0.353  0.0329 -0.1833  0.2527
14575TIP3    H165140   1.325   4.794   0.387 -0.6066 -0.3400 -0.6120
14575TIP3    H265141   1.323   4.942   0.419 -0.7182 -0.5262  0.2598
14576TIP3   OH265142   6.327   1.591  11.488  0.5333 -0.1916  0.0096
14576TIP3    H165143   6.284   1.610  11.571 -0.4348  0.0801 -0.5294
14576TIP3    H265144   6.386   1.665  11.474 -0.0371  0.2724 -0.0091
14577TIP3   OH265145   3.406   3.960  15.855  0.5092 -0.2718  0.0411
14577TIP3    H165146   3.325   3.995  15.893  0.8517  0.3114  0.2596
14577TIP3    H265147   3.412   4.002  15.769  0.4702 -0.4723 -0.0582
14578TIP3   OH265148   0.831   0.168  15.561 -0.3877  0.2771  0.3147
14578TIP3    H165149   0.756   0.222  15.534  0.1785  0.4801 -0.9242
14578TIP3    H265150   0.897   0.232  15.588 -0.2129  0.1442  0.1961
14579TIP3   OH265151   5.960   1.795  14.569  0.0875 -0.2748  0.4154
14579TIP3    H165152   6.028   1.728  14.561  0.9587  0.6936 -0.5973
14579TIP3    H265153   5.959   1.816  14.662  1.4785 -0.0357  0.4057
14580TIP3   OH265154   5.717   2.402   4.776 -0.0484  0.1342 -0.0945
14580TIP3    H165155   5.778   2.445   4.835 -0.6789  0.7052  0.1553
14580TIP3    H265156   5.631   2.412   4.818 -0.9253  2.7736 -2.2478
14581TIP3   OH265157   0.153   4.291  17.025 -0.0142  0.3142 -0.2210
14581TIP3    H165158   0.210   4.263  16.954 -0.7687  2.7680 -1.9669
14581TIP3    H265159   0.212   4.328  17.091  0.5829  0.1232 -0.6485
14582TIP3   OH265160   5.689   6.193  16.106  0.0635 -0.3651  0.1018
14582TIP3    H165161   5.720   6.103  16.094  1.2187  0.0624 -0.3199
14582TIP3    H265162   5.677   6.227  16.017 -0.0220  0.0111  0.2520
14583TIP3   OH265163   1.276   1.215  12.402 -0.4137 -0.4799 -0.4274
14583TIP3    H165164   1.327   1.159  12.342 -0.4084  0.0813 -0.9579
14583TIP3    H265165   1.342   1.251  12.462 -0.3195 -0.5076 -0.5132
14584TIP3   OH265166   6.322   4.165  15.888  0.2790 -0.5903  0.4585
14584TIP3    H165167   6.336   4.073  15.909 -0.2955 -0.8031 -0.0610
14584TIP3    H265168   6.399   4.210  15.923  1.4714 -1.5004 -0.8843
14585TIP3   OH265169   6.735   2.773  13.983  1.0537 -0.0618 -0.3270
14585TIP3    H165170   6.770   2.707  13.923 -1.0365 -0.9465 -0.6380
14585TIP3    H265171   6.784   2.759  14.064  1.9594 -0.7152 -0.9574
14586TIP3   OH265172   6.315   0.922   1.801  0.0412 -0.5605 -0.2560
14586TIP3    H165173   6.309   0.831   1.830  0.6142 -0.8061 -0.8688
14586TIP3    H265174   6.237   0.964   1.836 -0.9078 -1.5936 -1.0452
14587TIP3   OH265175   1.224   0.240   2.364 -0.4976 -0.2547 -0.4230
14587TIP3    H165176   1.295   0.304   2.367 -0.2032 -0.5351 -1.0554
14587TIP3    H265177   1.236   0.195   2.280 -0.9819 -0.8128 -0.2048
14588TIP3   OH265178   2.385   6.332   5.501  0.2552 -0.0308 -1.2853
14588TIP3    H165179   2.466   6.300   5.542  0.3024  0.3698 -1.0669
14588TIP3    H265180   2.409   6.345   5.409  0.3118 -0.3568 -1.3181
14589TIP3   OH265181   1.071   0.158  14.009 -0.1680  0.2394  0.3014
14589TIP3    H165182   0.979   0.139  14.026 -0.1953  0.4551  0.3907
14589TIP3    H265183   1.073   0.199  13.923 -0.1493  0.1869  0.2769
14590TIP3   OH265184   0.496   2.895   3.729  0.1065 -0.9979 -0.3310
14590TIP3    H165185   0.481   2.819   3.785 -0.1118 -1.0438 -0.4475
14590TIP3    H265186   0.408   2.923   3.704  0.1627 -0.4644  0.0357
14591TIP3   OH265187   0.228   3.018  13.887 -0.1665  0.3723 -0.7235
14591TIP3    H165188   0.135   3.017  13.908 -0.4041  3.2571 -1.2241
14591TIP3    H265189   0.272   3.028  13.971 -0.5207  1.6558 -0.6619
14592TIP3   OH265190   5.167   5.429   1.130 -0.5738 -0.3775 -0.2788
14592TIP3    H165191   5.087   5.395   1.089 -0.7293 -1.9235  1.2011
14592TIP3    H265192   5.236   5.368   1.104 -0.5263 -0.9304  1.0555
14593TIP3   OH265193   5.710   4.060  12.375 -0.2061  0.7007 -0.4772
14593TIP3    H165194   5.716   4.068  12.279 -1.1278  0.6943 -0.5474
14593TIP3    H265195   5.666   3.976  12.389 -0.6689  1.0034 -0.0730
14594TIP3   OH265196   3.202   5.915   4.448 -0.5981  0.1178  0.2695
14594TIP3    H165197   3.133   5.923   4.382 -0.0015  1.4690 -0.2191
14594TIP3    H265198   3.280   5.891   4.398 -0.1947  0.9101  0.5011
14595TIP3   OH265199   1.440   5.095   2.365  0.5514  0.0120 -0.3717
14595TIP3    H165200   1.484   5.010   2.363 -1.0182 -0.8393 -0.6127
14595TIP3    H265201   1.353   5.076   2.402 -0.3196  1.2580 -1.6768
14596TIP3   OH265202   1.334   2.104   2.183 -0.2660  1.0473 -0.2400
14596TIP3    H165203   1.256   2.104   2.128 -1.5271 -2.4445  1.2780
14596TIP3    H265204   1.309   2.156   2.259  0.0309  2.4068 -1.0227
14597TIP3   OH265205   2.903   2.702  15.134 -0.5035  0.0167 -0.2051
14597TIP3    H165206   2.836   2.663  15.077 -0.7901  0.2156 -0.0069
14597TIP3    H265207   2.938   2.775  15.082  0.8498 -1.1756 -1.0514
14598TIP3   OH265208   2.314   5.002   2.301 -0.2812 -0.1364  0.2748
14598TIP3    H165209   2.367   5.006   2.380  0.3488 -1.1610 -0.0793
14598TIP3    H265210   2.329   5.087   2.258  0.7372 -0.2426  0.3988
14599TIP3   OH265211   4.305   0.345   3.720 -0.3393  0.3176 -0.4288
14599TIP3    H165212   4.393   0.316   3.741 -1.2963 -1.4402  1.6123
14599TIP3    H265213   4.291   0.422   3.776 -0.5846 -0.2809  0.3384
14600TIP3   OH265214   5.642   1.833   4.497 -0.1490 -0.7295  0.3213
14600TIP3    H165215   5.638   1.741   4.524 -0.1413 -0.3645  1.6814
14600TIP3    H265216   5.628   1.881   4.579 -3.7158  0.5096 -0.8075
14601TIP3   OH265217   4.905   4.399  14.953  0.2826 -0.0405  0.7276
14601TIP3    H165218   4.911   4.486  14.912 -1.8156 -0.7618 -1.3203
14601TIP3    H265219   4.920   4.338  14.881  1.1488 -1.4117  2.0309
14602TIP3   OH265220   6.386   0.246   2.963 -1.1926 -0.0286 -0.1904
14602TIP3    H165221   6.457   0.257   2.899 -1.0090 -1.3803 -0.2616
14602TIP3    H265222   6.331   0.177   2.924  0.4636 -3.0334  2.3284
14603TIP3   OH265223   2.512   1.595  11.407  0.9744 -0.1644  0.0777
14603TIP3    H165224   2.474   1.518  11.450 -1.6978  0.5440 -0.8437
14603TIP3    H265225   2.506   1.664  11.474  0.0803  0.0851 -0.2532
14604TIP3   OH265226   0.159   3.947  16.669 -0.2082  0.2403 -0.0029
14604TIP3    H165227   0.216   3.878  16.704  0.6942  1.1950  0.4557
14604TIP3    H265228   0.073   3.905  16.661  0.0233 -0.5912  1.4646
14605TIP3   OH265229   1.643   4.715  10.503 -0.2422 -0.4672 -0.4798
14605TIP3    H165230   1.709   4.726  10.571 -0.8016  0.7469 -0.0950
14605TIP3    H265231   1.596   4.799  10.502 -1.6508 -1.2362 -0.8647
14606TIP3   OH265232   2.907   6.654   4.322 -0.1735  0.6737  0.2771
14606TIP3    H165233   2.998   6.642   4.295 -0.7080  0.0113 -1.3200
14606TIP3    H265234   2.859   6.667   4.241 -1.6398  0.1826  1.0359
14607TIP3   OH265235   3.054   1.275  12.558 -0.6220  0.3985  0.3486
14607TIP3    H165236   3.120   1.303  12.622 -0.8559 -0.3578  0.9300
14607TIP3    H265237   3.021   1.357  12.522 -0.2825  0.8323  0.9870
14608TIP3   OH265238   6.650   6.400  15.565  0.1992 -0.4875  0.2199
14608TIP3    H165239   6.578   6.341  15.587  0.0752 -0.8318 -1.0259
14608TIP3    H265240   6.680   6.370  15.479 -1.4341  2.6513 -1.6722
14609TIP3   OH265241   3.053   1.358  15.191 -0.2769  0.0590  0.4970
14609TIP3    H165242   3.015   1.408  15.263  0.5594  1.0257  0.2995
14609TIP3    H265243   3.035   1.411  15.113  1.5532  0.6504  0.4234
14610TIP3   OH265244   6.477   0.091  11.803 -0.4772 -0.2536  0.5675
14610TIP3    H165245   6.421   0.110  11.878 -1.9063 -1.8410 -0.0353
14610TIP3    H265246   6.418   0.053  11.738  0.7979  0.6774 -1.2243
14611TIP3   OH265247   5.559   1.510  14.755 -0.0875  0.6333 -0.5326
14611TIP3    H165248   5.505   1.548  14.686  0.0272  2.0452  0.1061
14611TIP3    H265249   5.643   1.555  14.747 -0.1999  1.1244  0.7541
14612TIP3   OH265250   4.270   3.045   1.554  0.3635  0.5258 -0.0784
14612TIP3    H165251   4.296   3.038   1.462  0.1375  1.0145 -0.1849
14612TIP3    H265252   4.178   3.019   1.554  0.3178  0.6876 -0.0168
14613TIP3   OH265253   5.489   5.522   2.685 -0.4862  0.6473 -0.3737
14613TIP3    H165254   5.403   5.518   2.726  0.6201 -0.4177  2.0774
14613TIP3    H265255   5.500   5.439   2.641  0.4141 -0.6363  2.0460
14614TIP3   OH265256   3.716   0.935   2.417 -0.2025 -0.6977  0.1131
14614TIP3    H165257   3.681   0.952   2.330  0.1658 -0.8956 -0.0781
14614TIP3    H265258   3.796   0.987   2.421 -0.4367 -0.3597  0.4918
14615TIP3   OH265259   6.652   0.581  16.151 -0.3492  0.2739  0.0332
14615TIP3    H165260   6.578   0.535  16.192 -1.1105 -0.4859 -2.0851
14615TIP3    H265261   6.721   0.579  16.218 -1.5072 -0.9483  1.2591
14616TIP3   OH265262   4.919   1.084   4.131  0.2302  0.2343 -0.1172
14616TIP3    H165263   4.894   1.166   4.174 -0.7034  0.1499 -0.4619
14616TIP3    H265264   5.012   1.093   4.114  0.2670  0.9672  0.4086
14617TIP3   OH265265   4.395   4.733   3.859 -0.2031 -0.3367 -0.2286
14617TIP3    H165266   4.395   4.825   3.831  1.0004  0.0178  0.8051
14617TIP3    H265267   4.406   4.684   3.778  4.5274  0.7066 -0.5325
14618TIP3   OH265268   1.156   0.054   2.113  0.4121  1.0082 -0.1756
14618TIP3    H165269   1.105  -0.018   2.076 -1.7566  1.3462  1.8872
14618TIP3    H265270   1.120   0.133   2.073  2.3214  1.0775 -1.9165
14619TIP3   OH265271   0.077   4.905  13.399 -0.2929  0.4330  0.0826
14619TIP3    H165272   0.027   4.952  13.332  0.0534  0.0332 -0.4653
14619TIP3    H265273   0.065   4.813  13.377 -0.7971  0.2590  1.0285
14620TIP3   OH265274   0.464   1.462   2.910  0.1141 -0.1040  0.4303
14620TIP3    H165275   0.379   1.420   2.897 -0.5054  1.1291  0.2693
14620TIP3    H265276   0.466   1.483   3.003  1.1858 -2.0207  0.8727
14621TIP3   OH265277   2.065   4.254   2.909 -0.0129  0.4061  0.0223
14621TIP3    H165278   2.132   4.200   2.866 -0.8419 -2.1130  1.7078
14621TIP3    H265279   2.080   4.241   3.002 -0.5258  2.8736  0.5130
14622TIP3   OH265280   6.405   3.151  11.435  0.2401  0.8753  0.0890
14622TIP3    H165281   6.338   3.215  11.459 -0.1657  0.3816  0.2774
14622TIP3    H265282   6.411   3.157  11.339 -1.4664 -0.4292 -0.1420
14623TIP3   OH265283   3.927   0.189  11.768 -0.0419  0.8056 -0.2059
14623TIP3    H165284   3.873   0.111  11.775  0.5434  0.1582 -2.2892
14623TIP3    H265285   4.016   0.158  11.781  0.2264  1.0433 -1.4085
14624TIP3   OH265286   3.346   6.494   0.741 -0.3638 -0.4927 -0.2657
14624TIP3    H165287   3.386   6.410   0.761  0.5777 -0.3064 -1.2695
14624TIP3    H265288   3.418   6.556   0.741 -0.8968  0.1416 -0.5064
14625TIP3   OH265289   1.106   5.555  17.085 -0.5928  0.1297 -0.2747
14625TIP3    H165290   1.149   5.491  17.142 -1.6945 -0.2724  0.1394
14625TIP3    H265291   1.052   5.607  17.144 -0.4366  0.8301 -0.7388
14626TIP3   OH265292   4.706   6.318   0.397  0.5469 -0.3106 -0.0070
14626TIP3    H165293   4.717   6.282   0.309 -0.5829  0.9013 -0.6835
14626TIP3    H265294   4.763   6.264   0.453  0.9534 -1.3716 -1.3957
14627TIP3   OH265295   1.362   0.108  14.454  0.5278  0.3779 -0.1025
14627TIP3    H165296   1.439   0.158  14.427  0.5474 -0.3659 -1.5182
14627TIP3    H265297   1.288   0.151  14.411  0.1319  1.0276  1.1691
14628TIP3   OH265298   1.486   6.236  17.157  0.4524  0.0590  0.3438
14628TIP3    H165299   1.561   6.295  17.157  0.0824  0.5361  1.0501
14628TIP3    H265300   1.520   6.156  17.199  0.4964  0.3682  0.9071
14629TIP3   OH265301   6.288   4.641   1.542 -0.1373  0.2095 -0.6748
14629TIP3    H165302   6.353   4.652   1.472 -1.4440  1.0078 -1.8068
14629TIP3    H265303   6.256   4.551   1.532 -0.5223  0.4118 -1.2955
14630TIP3   OH265304   2.894   0.701   5.283 -0.2726  0.0010 -0.0299
14630TIP3    H165305   2.908   0.643   5.208  1.1490 -2.4539  1.9892
14630TIP3    H265306   2.808   0.674   5.317 -0.2375  0.0658  0.1061
14631TIP3   OH265307   2.130   5.236  12.878  0.3800 -0.7553 -0.8017
14631TIP3    H165308   2.072   5.264  12.807 -0.9233  0.0617  0.5395
14631TIP3    H265309   2.115   5.299  12.948  2.4522 -0.8921 -0.1574
14632TIP3   OH265310   2.059   0.229   2.770  0.4876 -0.2232  0.1170
14632TIP3    H165311   2.104   0.273   2.842 -0.7084  0.7057  0.3412
14632TIP3    H265312   2.043   0.299   2.706  0.6929 -0.8394 -0.6162
14633TIP3   OH265313   0.434   4.040   4.160  0.4606  0.0545  0.3706
14633TIP3    H165314   0.472   4.104   4.220  0.2903  0.2951  0.2200
14633TIP3    H265315   0.465   3.955   4.193  1.5173  0.2677 -0.0144
14634TIP3   OH265316   1.796   1.102   5.566 -0.0436  0.2748  0.6213
14634TIP3    H165317   1.755   1.158   5.499  2.0240  0.5790 -0.4850
14634TIP3    H265318   1.860   1.160   5.609 -1.2630  0.0531  2.8584
14635TIP3   OH265319   4.445   2.293   4.346  0.3851  0.0621  0.5985
14635TIP3    H165320   4.378   2.289   4.278  2.2121  0.6522 -1.3501
14635TIP3    H265321   4.528   2.296   4.298  2.0638 -3.4132  2.8630
14636TIP3   OH265322   3.776   2.689  12.138 -0.0880  0.3594 -0.4518
14636TIP3    H165323   3.749   2.622  12.200  0.3356  1.1504  0.6025
14636TIP3    H265324   3.699   2.702  12.082 -0.4491 -0.4038 -0.1384
14637TIP3   OH265325   5.995   3.216  13.689  0.6498 -0.9330  0.1618
14637TIP3    H165326   5.980   3.129  13.726  0.7199 -0.7966  0.5082
14637TIP3    H265327   5.997   3.201  13.594 -2.1140 -0.8990  0.0217
14638TIP3   OH265328   6.101   5.217  16.824  0.3107 -0.3062  0.6442
14638TIP3    H165329   6.118   5.282  16.892 -0.5619  0.8678 -0.2031
14638TIP3    H265330   6.031   5.162  16.859 -1.2168  1.2398  0.1633
14639TIP3   OH265331   0.872   2.650  11.490 -0.7198 -0.0971 -0.3815
14639TIP3    H165332   0.900   2.621  11.577 -0.9433  2.2939  0.5769
14639TIP3    H265333   0.953   2.665  11.442 -0.6059 -2.3346 -0.9651
14640TIP3   OH265334   3.918   1.181   2.450 -0.1998 -0.5738 -0.6421
14640TIP3    H165335   3.921   1.254   2.511 -2.1600 -1.5635  0.7484
14640TIP3    H265336   3.976   1.115   2.488  0.1372 -0.4524 -0.9342
14641TIP3   OH265337   6.617   3.748   1.174  0.4565  0.5107  0.3778
14641TIP3    H165338   6.639   3.699   1.095  0.5344  0.7070  0.2775
14641TIP3    H265339   6.546   3.806   1.147 -2.1443 -2.0050  1.3290
14642TIP3   OH265340   2.913   2.386  13.686 -0.0489 -0.3497 -0.5806
14642TIP3    H165341   2.968   2.355  13.615 -0.5441 -2.0605 -0.2632
14642TIP3    H265342   2.971   2.442  13.738  0.8320 -0.5589 -1.3064
14643TIP3   OH265343   6.269   3.480  11.702 -0.5183 -0.6534  0.9538
14643TIP3    H165344   6.231   3.490  11.790 -1.4943  0.4710  0.4137
14643TIP3    H265345   6.249   3.562  11.657 -0.2047 -1.2969 -0.3986
14644TIP3   OH265346   6.024   4.394  13.703  0.4177 -0.2575 -0.1935
14644TIP3    H165347   6.110   4.435  13.691  0.4083  0.0287  0.6271
14644TIP3    H265348   6.040   4.326  13.768 -0.2548  0.8092  1.1503
14645TIP3   OH265349   0.668   4.502   4.092 -0.8428  0.6650 -0.0912
14645TIP3    H165350   0.591   4.490   4.147 -1.0933  0.4223 -0.4872
14645TIP3    H265351   0.738   4.457   4.138 -1.5827 -1.7332 -1.1336
14646TIP3   OH265352   4.141   0.130   1.669 -0.4310  0.2264 -0.1015
14646TIP3    H165353   4.178   0.176   1.745  1.7698  0.2902 -1.1213
14646TIP3    H265354   4.186   0.045   1.669 -1.1627 -0.1692 -0.7666
14647TIP3   OH265355   5.611   6.585  12.049  0.7184  0.4751  0.2248
14647TIP3    H165356   5.669   6.520  12.089 -2.0481 -3.6705 -1.8005
14647TIP3    H265357   5.524   6.561  12.080 -0.4590  4.3792  0.5455
14648TIP3   OH265358   5.379   4.507   1.023  0.1296  0.0270 -0.1010
14648TIP3    H165359   5.387   4.432   1.081  0.2200  0.0296 -0.1101
14648TIP3    H265360   5.448   4.567   1.051  0.4363 -0.1499 -0.4753
14649TIP3   OH265361   5.396   1.683  16.380 -0.4424 -0.6477 -0.2417
14649TIP3    H165362   5.415   1.596  16.415 -1.0778 -1.3537 -1.5758
14649TIP3    H265363   5.410   1.674  16.285  0.7912  1.0765 -0.2708
14650TIP3   OH265364   5.557   2.364  15.020 -0.1024 -0.4010 -0.1808
14650TIP3    H165365   5.578   2.412  14.941  0.2027 -0.8980 -0.4085
14650TIP3    H265366   5.462   2.375  15.031 -0.2069 -0.6246 -0.8187
14651TIP3   OH265367   6.747   6.028   1.131 -0.1683  0.1464 -0.3050
14651TIP3    H165368   6.823   6.077   1.161  0.2421 -1.3417  1.2357
14651TIP3    H265369   6.727   6.064   1.044  2.4080  0.4368 -0.8496
14652TIP3   OH265370   0.517   3.095  15.846 -0.1349  0.6805 -0.0143
14652TIP3    H165371   0.481   3.075  15.932  0.3660 -0.0866  0.0283
14652TIP3    H265372   0.511   3.190  15.838  1.0582  0.9165  1.4342
14653TIP3   OH265373   5.403   1.249  12.367  0.3451 -0.3229  0.0477
14653TIP3    H165374   5.327   1.262  12.309  1.5768 -1.4678 -1.9496
14653TIP3    H265375   5.400   1.156  12.389 -0.0613  0.0805  1.8517
14654TIP3   OH265376   5.510   5.521   6.012  0.1631 -0.3114 -0.0890
14654TIP3    H165377   5.458   5.500   5.934  0.9513  0.4877 -0.8513
14654TIP3    H265378   5.479   5.459   6.078 -2.2526  0.5628 -0.2942
14655TIP3   OH265379   2.755   1.775  13.517  0.1639 -0.8017  0.2434
14655TIP3    H165380   2.779   1.864  13.492 -1.1103 -0.0624  1.4758
14655TIP3    H265381   2.799   1.761  13.601 -1.3683 -0.4582  1.1499
14656TIP3   OH265382   3.725   2.905   2.328 -0.0241  0.2724  0.2548
14656TIP3    H165383   3.680   2.988   2.315 -2.7777 -0.9201  1.3656
14656TIP3    H265384   3.657   2.839   2.316  1.7236 -1.7644  0.9543
14657TIP3   OH265385   6.627   6.716  12.383  0.0519 -0.3232 -0.1589
14657TIP3    H165386   6.646   6.634  12.337 -0.7055 -0.7272  0.2298
14657TIP3    H265387   6.615   6.689  12.474 -1.0920  0.0862 -0.1791
14658TIP3   OH265388   3.847   2.527  14.151 -0.2728  0.4561  0.1872
14658TIP3    H165389   3.753   2.508  14.158 -0.1929  0.0944  0.2969
14658TIP3    H265390   3.851   2.622  14.136 -0.6397  0.5211  0.4858
14659TIP3   OH265391   3.199   3.466  14.065  0.1576 -0.1126 -0.5098
14659TIP3    H165392   3.251   3.538  14.029 -1.1239  1.0890 -0.0648
14659TIP3    H265393   3.251   3.433  14.138  0.0504  1.5071  0.3525
14660TIP3   OH265394   4.288   6.184   5.070 -0.7120 -0.2230 -0.5053
14660TIP3    H165395   4.211   6.211   5.021 -0.0543  0.1088 -1.3734
14660TIP3    H265396   4.311   6.260   5.124 -1.6561 -0.7135  0.6463
14661TIP3   OH265397   4.477   2.569  15.039 -0.2628 -0.4139  0.6455
14661TIP3    H165398   4.460   2.660  15.064 -2.4776 -0.8214  0.7964
14661TIP3    H265399   4.562   2.549  15.078  0.3319  1.6115  0.4989
14662TIP3   OH265400   2.823   4.986  15.472 -0.0962  1.2126 -0.0221
14662TIP3    H165401   2.736   5.010  15.441 -0.7479 -1.4016 -0.5192
14662TIP3    H265402   2.839   4.900  15.433  1.4527  0.3062  2.3952
14663TIP3   OH265403   5.790   2.611  14.175  0.4481 -0.1431  0.2403
14663TIP3    H165404   5.856   2.664  14.220  0.9959  0.1575 -0.8765
14663TIP3    H265405   5.769   2.662  14.097 -0.3414 -0.7440  0.0590
14664TIP3   OH265406   6.520   5.398   0.568 -0.0973  0.4345  0.4823
14664TIP3    H165407   6.479   5.362   0.490 -1.6155  2.3654  0.3224
14664TIP3    H265408   6.485   5.346   0.640 -1.6366  1.0075  0.1899
14665TIP3   OH265409   2.687   4.864  15.703 -0.4342  0.0597  0.1674
14665TIP3    H165410   2.603   4.818  15.704 -0.2501 -0.3949 -1.4816
14665TIP3    H265411   2.688   4.910  15.619  1.7207 -1.4699 -0.7589
14666TIP3   OH265412   6.506   5.267  11.962 -0.7497 -0.5453 -0.8090
14666TIP3    H165413   6.446   5.193  11.972 -2.0064  0.6214  1.0113
14666TIP3    H265414   6.591   5.233  11.987 -1.2791 -1.4199 -0.1191
14667TIP3   OH265415   5.394   0.600  14.096  0.2865 -0.2577  0.5949
14667TIP3    H165416   5.454   0.674  14.096  0.0534 -0.0557 -0.2677
14667TIP3    H265417   5.368   0.590  14.004 -0.0157 -1.1351  0.7614
14668TIP3   OH265418   6.577   0.727   0.701 -0.0334 -0.7842  0.6408
14668TIP3    H165419   6.655   0.673   0.714  0.2040 -0.5949  0.0522
14668TIP3    H265420   6.515   0.669   0.657  0.1259 -0.6622  0.2477
14669TIP3   OH265421   0.169   2.374   4.936 -0.0417 -0.1119 -0.1008
14669TIP3    H165422   0.199   2.446   4.881 -0.0144  1.0632  1.3844
14669TIP3    H265423   0.128   2.417   5.011 -2.0030 -1.6718 -0.2237
14670TIP3   OH265424   3.672   5.687   5.277 -0.1861  0.3061  0.4506
14670TIP3    H165425   3.740   5.687   5.209 -0.4717  0.8198  0.1581
14670TIP3    H265426   3.644   5.779   5.282 -0.3095  0.2324  1.1218
14671TIP3   OH265427   0.511   5.323   4.584 -0.2584 -0.9015 -0.2483
14671TIP3    H165428   0.528   5.238   4.543 -2.0272 -0.1654 -2.7129
14671TIP3    H265429   0.430   5.309   4.633  1.1041 -1.3939  1.9954
14672TIP3   OH265430   2.926   1.728  16.232  0.4219 -0.0443 -0.0244
14672TIP3    H165431   2.882   1.727  16.148  0.4396  0.5548 -0.0468
14672TIP3    H265432   3.014   1.760  16.213  1.3353 -2.4396 -0.1805
14673TIP3   OH265433   0.578   1.839  10.764 -0.0770 -0.4854  0.8258
14673TIP3    H165434   0.646   1.792  10.716 -0.0440 -0.7778  1.1570
14673TIP3    H265435   0.503   1.779  10.764 -0.7496  0.3121 -0.5771
14674TIP3   OH265436   3.461   1.023   1.273  0.0873 -0.4794 -0.0393
14674TIP3    H165437   3.377   1.061   1.301  0.1861 -1.9004  2.4409
14674TIP3    H265438   3.472   1.054   1.183 -2.5922  0.5827 -0.0996
14675TIP3   OH265439   4.253   0.622  13.767  0.2099  0.2788 -0.0535
14675TIP3    H165440   4.217   0.584  13.848 -1.2745  1.2780 -0.2051
14675TIP3    H265441   4.244   0.552  13.702  0.2241 -0.0981  0.3429
14676TIP3   OH265442   1.357   2.437   5.959 -0.0276  0.1555  0.4263
14676TIP3    H165443   1.419   2.486   5.906 -0.1021 -0.0538  0.1379
14676TIP3    H265444   1.297   2.503   5.994  0.2242  0.3318  0.5247
14677TIP3   OH265445   1.089   3.061   3.244  0.2532  0.3317 -0.4233
14677TIP3    H165446   1.093   3.139   3.300 -2.5486  0.0195  0.3874
14677TIP3    H265447   1.104   2.988   3.304  0.2791  0.1295 -0.6762
14678TIP3   OH265448   2.901   1.409  13.253  0.2676  0.5604  0.1682
14678TIP3    H165449   2.846   1.332  13.264 -0.1554  0.9587  0.9376
14678TIP3    H265450   2.840   1.480  13.231  0.8320  0.3280 -2.4452
14679TIP3   OH265451   5.659   4.617  16.348 -0.0346  0.2504  0.0712
14679TIP3    H165452   5.637   4.699  16.303 -2.4725  0.9841  2.3255
14679TIP3    H265453   5.713   4.643  16.422  1.5850 -0.5867 -0.7748
14680TIP3   OH265454   4.827   5.034   4.802 -0.5162  0.6567  0.1390
14680TIP3    H165455   4.745   5.069   4.838 -0.2398  0.8187  0.6190
14680TIP3    H265456   4.799   4.957   4.752 -1.1145  1.4744 -0.8273
14681TIP3   OH265457   1.185   3.092   4.688  0.2339 -0.3093 -0.7152
14681TIP3    H165458   1.096   3.123   4.670 -0.4325  0.4524  3.1045
14681TIP3    H265459   1.241   3.168   4.669  0.2792 -0.9343 -3.5906
14682TIP3   OH265460   3.105   3.105   4.379  0.0906 -0.4002  0.6488
14682TIP3    H165461   3.069   3.085   4.466 -1.4414  0.1759  0.1816
14682TIP3    H265462   3.029   3.129   4.327  1.0392 -0.3558 -0.7622
14683TIP3   OH265463   1.156   4.709   4.079 -0.2322 -0.0240  0.6779
14683TIP3    H165464   1.244   4.693   4.046 -0.0026  1.5186  0.4668
14683TIP3    H265465   1.120   4.622   4.096  0.1881 -0.8310 -2.1624
14684TIP3   OH265466   6.326   5.989   2.627  1.1919  0.0529  0.2334
14684TIP3    H165467   6.418   5.988   2.656  1.1042 -1.1814  0.5091
14684TIP3    H265468   6.304   5.897   2.614 -0.0655  0.3263  0.3322
14685TIP3   OH265469   2.854   0.012   0.869  0.3078  0.1916  0.1596
14685TIP3    H165470   2.775  -0.033   0.840  0.4706 -0.0521  0.0952
14685TIP3    H265471   2.881  -0.034   0.947  0.8439 -0.2409 -0.2734
14686TIP3   OH265472   2.864   6.185  16.200  0.4694  0.1021  0.2660
14686TIP3    H165473   2.864   6.123  16.273 -2.2533 -1.0155 -0.5897
14686TIP3    H265474   2.806   6.256  16.228 -0.2723 -0.1342 -0.6380
14687TIP3   OH265475   4.230   2.568  14.929  0.5889 -0.0899 -0.7254
14687TIP3    H165476   4.319   2.562  14.962  0.4833 -2.0468 -0.7336
14687TIP3    H265477   4.181   2.612  14.999  1.3897  0.2893 -0.4000
14688TIP3   OH265478   1.034   1.965   3.316  0.3066  0.3254 -0.0748
14688TIP3    H165479   0.994   1.888   3.355  0.9884 -0.5786 -1.1005
14688TIP3    H265480   1.077   2.010   3.389 -1.2133  0.4782  0.7597
14689TIP3   OH265481   4.380   2.052  10.660  0.2190  0.3025  0.0797
14689TIP3    H165482   4.394   2.129  10.605 -1.1974 -0.1278 -0.9400
14689TIP3    H265483   4.347   2.088  10.742 -1.7461  0.7517 -0.8560
14690TIP3   OH265484   3.305   3.083   2.632 -0.1962  0.8733  0.1314
14690TIP3    H165485   3.248   3.077   2.709  0.2933 -0.0825  0.4347
14690TIP3    H265486   3.306   2.994   2.597 -2.2646  1.7074 -2.3697
14691TIP3   OH265487   1.795   0.941   5.819  0.3112  0.6043  0.4803
14691TIP3    H165488   1.712   0.949   5.867 -0.0825 -1.9515  0.3336
14691TIP3    H265489   1.846   0.879   5.871  1.2207  0.4046 -0.6320
14692TIP3   OH265490   4.966   6.597  10.984 -0.3156 -1.3309 -0.3292
14692TIP3    H165491   4.965   6.692  10.973  0.2427 -1.1281  1.1578
14692TIP3    H265492   4.992   6.583  11.075 -0.1589 -2.9189 -0.5788
14693TIP3   OH265493   3.886   5.917   1.090  0.4600  0.2238  0.4171
14693TIP3    H165494   3.904   5.989   1.150 -1.0743  1.3830 -0.4374
14693TIP3    H265495   3.791   5.921   1.075  0.4818 -1.3462 -0.4549
14694TIP3   OH265496   1.782   3.302   0.441 -0.5706  0.0604  0.2838
14694TIP3    H165497   1.846   3.292   0.370 -1.3255  1.3121 -0.5962
14694TIP3    H265498   1.824   3.363   0.501 -0.5690  0.1825  0.1590
14695TIP3   OH265499   2.184   3.402  16.181  0.5580 -0.1940 -0.1811
14695TIP3    H165500   2.114   3.444  16.132  0.8508  0.5765  0.0440
14695TIP3    H265501   2.193   3.316  16.140  0.8609  0.4564 -1.5701
14696TIP3   OH265502   3.251   4.292  12.111  0.3354  0.0903  0.1239
14696TIP3    H165503   3.324   4.354  12.118  0.9711 -0.8325  2.6345
14696TIP3    H265504   3.283   4.223  12.052  0.5937  0.7979 -0.5880
14697TIP3   OH265505   3.204   2.800  14.773  0.5196  0.0249 -0.1456
14697TIP3    H165506   3.187   2.833  14.684  3.0263  0.3958 -0.5691
14697TIP3    H265507   3.256   2.870  14.814  0.3540 -0.6350  1.2334
14698TIP3   OH265508   0.404   3.985   2.106 -0.9319  0.0953 -0.1980
14698TIP3    H165509   0.470   3.915   2.107  0.4065  1.2419 -1.8803
14698TIP3    H265510   0.370   3.987   2.196  2.2296  0.2432  1.1363
14699TIP3   OH265511   5.563   4.246  13.162 -0.3536  0.0695 -0.3615
14699TIP3    H165512   5.514   4.189  13.220 -1.0490  1.3776  0.3863
14699TIP3    H265513   5.598   4.314  13.219  0.3971  0.4432 -1.2350
14700TIP3   OH265514   6.209   0.832  16.767  0.2612 -0.3591  0.1633
14700TIP3    H165515   6.161   0.905  16.807  0.9590 -0.0355  0.4182
14700TIP3    H265516   6.243   0.867  16.685 -1.2003 -1.0349 -0.7657
14701TIP3   OH265517   1.011   6.769  16.808  0.0008 -0.0981  0.1340
14701TIP3    H165518   1.033   6.828  16.736 -2.0764 -0.0766 -0.5414
14701TIP3    H265519   0.947   6.709  16.771 -0.6135 -0.5082  1.7918
14702TIP3   OH265520   2.917   5.247  15.612  0.3025  0.0772 -0.3292
14702TIP3    H165521   2.860   5.264  15.687 -0.5656 -2.3420 -0.3876
14702TIP3    H265522   2.922   5.152  15.606 -0.0844  0.1708 -3.6914
14703TIP3   OH265523   1.282   3.581   4.904 -0.0215  0.0352 -0.5507
14703TIP3    H165524   1.230   3.583   4.984  0.1144  0.9564 -0.4691
14703TIP3    H265525   1.336   3.660   4.910  0.9785 -0.6149 -0.8968
14704TIP3   OH265526   4.029   6.100  13.791  0.3459  0.0132 -0.4142
14704TIP3    H165527   3.956   6.160  13.773 -0.0348  0.1978  1.5728
14704TIP3    H265528   4.089   6.152  13.844  1.4531 -0.4770 -1.1593
14705TIP3   OH265529   5.726   0.663   4.580 -0.3713  0.3852 -0.2318
14705TIP3    H165530   5.806   0.714   4.584 -0.5077  0.6115 -0.3392
14705TIP3    H265531   5.658   0.721   4.615 -0.3884 -0.0119  0.4078
14706TIP3   OH265532   0.941   4.329   2.385 -0.2326 -0.5838  0.1492
14706TIP3    H165533   0.910   4.279   2.309  0.8500  0.0019 -0.7206
14706TIP3    H265534   0.957   4.263   2.452 -0.0418 -1.2762 -0.5581
14707TIP3   OH265535   4.708   4.447   1.592 -0.3170 -0.2804  0.0749
14707TIP3    H165536   4.741   4.520   1.644  0.0117  0.9874 -1.8228
14707TIP3    H265537   4.619   4.433   1.625 -0.9425  1.9926 -0.4353
14708TIP3   OH265538   4.049   4.110  11.245 -0.7258 -0.1018  0.5524
14708TIP3    H165539   4.066   4.190  11.194 -0.8794  0.0194  0.6908
14708TIP3    H265540   4.091   4.041  11.195  1.1207  0.3307  1.4227
14709TIP3   OH265541   2.206   6.638  11.621 -0.2719  0.2737  0.2956
14709TIP3    H165542   2.118   6.644  11.584  0.3182  0.0291 -1.2652
14709TIP3    H265543   2.193   6.604  11.709 -1.7560  0.4959  0.1859
14710TIP3   OH265544   5.573   5.583   4.140 -0.5401  0.1060  0.2715
14710TIP3    H165545   5.559   5.623   4.053  1.0697 -1.8234 -0.9567
14710TIP3    H265546   5.497   5.525   4.151 -0.7876  0.4099  0.2054
14711TIP3   OH265547   4.702   0.291   4.708  0.4080 -0.5173  0.3266
14711TIP3    H165548   4.616   0.267   4.672  1.0419  0.1320 -1.7493
14711TIP3    H265549   4.747   0.208   4.720 -0.0489 -0.7923  0.1667
14712TIP3   OH265550   6.360   4.719  11.368  0.1835  0.1663 -0.3473
14712TIP3    H165551   6.384   4.631  11.398  0.1875  0.1379 -0.4317
14712TIP3    H265552   6.274   4.735  11.407  0.1174  0.0652 -0.4471
14713TIP3   OH265553   2.652   1.430   1.425  0.1417  0.3085 -0.1523
14713TIP3    H165554   2.704   1.505   1.456 -2.3120  2.8194 -1.6144
14713TIP3    H265555   2.703   1.393   1.354  0.9570  1.2770 -0.0898
14714TIP3   OH265556   2.506   3.361  12.448  0.0180  0.5026  0.3510
14714TIP3    H165557   2.502   3.378  12.354  0.2361  0.8810  0.4111
14714TIP3    H265558   2.456   3.432  12.488 -1.0523 -0.2818  0.4581
14715TIP3   OH265559   6.636   5.035   2.897  0.1212 -0.0370  0.1134
14715TIP3    H165560   6.722   5.057   2.931  0.7336  1.0354 -1.9514
14715TIP3    H265561   6.653   5.005   2.808 -1.7394  1.5171 -0.8380
14716TIP3   OH265562   2.439   6.517   4.141 -0.0539 -0.9660  0.1392
14716TIP3    H165563   2.404   6.485   4.058  1.2329 -1.1800 -0.3585
14716TIP3    H265564   2.469   6.438   4.187  0.0282 -0.7772  0.4145
14717TIP3   OH265565   2.522   2.088   5.429 -0.3607 -0.2126  0.2660
14717TIP3    H165566   2.478   2.093   5.514  0.2063 -1.4069  0.6504
14717TIP3    H265567   2.615   2.100   5.449 -0.2095 -0.6117 -0.1757
14718TIP3   OH265568   4.989   1.631   4.073 -0.4032 -0.0940 -0.0171
14718TIP3    H165569   4.936   1.619   4.152 -0.8865  0.1208 -0.3066
14718TIP3    H265570   5.056   1.563   4.079  0.2825  0.6422  1.1593
14719TIP3   OH265571   5.584   3.351  11.823 -0.0391 -0.5203  0.0760
14719TIP3    H165572   5.555   3.301  11.898  1.7381 -0.7854  0.6469
14719TIP3    H265573   5.521   3.332  11.754  0.4677 -3.4391  0.3100
14720TIP3   OH265574   2.355   5.037  10.524 -0.2470 -0.2143  0.7469
14720TIP3    H165575   2.328   4.975  10.457 -0.4809  0.1396  0.5159
14720TIP3    H265576   2.285   5.102  10.528  0.2064  0.2871  0.6735
14721TIP3   OH265577   2.247   3.391  17.133  0.0969  0.0719 -0.1426
14721TIP3    H165578   2.266   3.480  17.105 -0.4834  0.6826  1.2858
14721TIP3    H265579   2.157   3.376  17.106  0.5098 -0.4986 -1.3001
14722TIP3   OH265580   1.431   1.626  14.803  0.7522 -0.5793 -0.1952
14722TIP3    H165581   1.400   1.620  14.713  0.6689 -2.8288 -0.0944
14722TIP3    H265582   1.443   1.534  14.830  3.3963  0.0740  1.1861
14723TIP3   OH265583   6.040   2.392  14.028  0.1889  0.1688  0.0813
14723TIP3    H165584   6.003   2.397  14.117 -0.5065 -0.1260 -0.1834
14723TIP3    H265585   6.135   2.398  14.041  0.0580  0.9144  0.7833
14724TIP3   OH265586   0.412   2.440  14.857  0.1090 -0.1637 -0.2883
14724TIP3    H165587   0.494   2.478  14.825  0.4967 -0.0221  0.8329
14724TIP3    H265588   0.378   2.391  14.782  1.5570 -0.8058 -0.5728
14725TIP3   OH265589   0.512   5.705   0.081  0.4101  0.2872  0.5899
14725TIP3    H165590   0.467   5.734   0.002  1.9659 -1.5710 -1.0964
14725TIP3    H265591   0.568   5.779   0.104  1.4627  0.1751 -1.3350
14726TIP3   OH265592   6.788   0.987   3.444 -0.4106 -0.3375  0.0871
14726TIP3    H165593   6.708   1.025   3.407 -0.1886 -0.7046 -0.8004
14726TIP3    H265594   6.772   0.893   3.443 -0.3331 -0.3591  0.7905
14727TIP3   OH265595   3.183   0.436  13.959  0.1811 -0.4207 -0.0677
14727TIP3    H165596   3.164   0.408  13.870 -2.8323  2.6016 -0.5965
14727TIP3    H265597   3.127   0.381  14.014  0.0869 -0.5511 -0.2945
14728TIP3   OH265598   1.949   0.119  16.576 -0.5632  0.0147 -0.7081
14728TIP3    H165599   1.965   0.145  16.666  1.2984  1.4297 -1.3773
14728TIP3    H265600   1.874   0.060  16.581 -0.6659  0.2457  1.7104
14729TIP3   OH265601   4.080   0.987   3.781 -0.6824 -0.0293 -0.4581
14729TIP3    H165602   4.155   1.020   3.731 -1.3458  0.8907 -0.8772
14729TIP3    H265603   4.089   1.027   3.868 -1.3330  1.0756 -0.8814
14730TIP3   OH265604   5.446   2.932  16.591 -0.4638 -0.7168  0.7169
14730TIP3    H165605   5.499   2.852  16.601  1.8807  0.6456 -0.0294
14730TIP3    H265606   5.428   2.959  16.681 -0.6098 -1.6397  0.9810
14731TIP3   OH265607   4.722   5.737  15.296 -0.4453 -0.3562 -0.0138
14731TIP3    H165608   4.677   5.791  15.231 -1.1128 -1.6345 -0.6670
14731TIP3    H265609   4.673   5.654  15.295  1.4273 -1.5201 -0.1500
14732TIP3   OH265610   2.804   2.808  15.358  0.3341  0.0951 -0.3017
14732TIP3    H165611   2.827   2.799  15.265 -0.4419  1.0465 -0.5998
14732TIP3    H265612   2.792   2.718  15.388  1.0961 -0.2509 -0.9931
14733TIP3   OH265613   2.867   5.037   1.428 -0.4852 -0.0860 -0.2983
14733TIP3    H165614   2.880   5.072   1.516  1.0372 -0.8147 -0.2080
14733TIP3    H265615   2.807   4.964   1.439 -1.6223  0.8378 -0.1274
14734TIP3   OH265616   2.005   1.346   0.010  0.0254 -0.2609 -0.1343
14734TIP3    H165617   1.921   1.377   0.043  0.0807  2.2077 -1.9881
14734TIP3    H265618   1.996   1.351  -0.085  2.1379 -0.2676 -0.3756
14735TIP3   OH265619   3.082   0.876  12.130 -0.5526  0.4103 -0.4376
14735TIP3    H165620   3.009   0.904  12.075 -1.6522 -0.6698  0.4299
14735TIP3    H265621   3.117   0.798  12.087 -2.1674 -1.1481  0.9214
14736TIP3   OH265622   6.207   0.795   0.650 -0.2101 -0.2264  0.0907
14736TIP3    H165623   6.236   0.717   0.698 -2.0431 -1.2181 -0.3184
14736TIP3    H265624   6.125   0.768   0.607 -0.7737  1.8519 -0.2611
14737TIP3   OH265625   5.324   4.043  11.214 -0.8378  0.0788  0.4913
14737TIP3    H165626   5.275   4.048  11.132 -1.2386  1.7538  0.8085
14737TIP3    H265627   5.414   4.024  11.186 -0.8340  1.2979 -0.3951
14738TIP3   OH265628   3.384   2.217   5.875 -0.2814 -0.1274 -0.1348
14738TIP3    H165629   3.413   2.185   5.961 -1.2968  2.0226  1.0801
14738TIP3    H265630   3.427   2.302   5.866 -2.0306  0.7379 -0.6702
14739TIP3   OH265631   0.281   6.071  12.328 -0.0865  0.5013  0.5448
14739TIP3    H165632   0.272   5.981  12.357  0.3401  0.3094  0.0867
14739TIP3    H265633   0.240   6.123  12.397  0.6181  0.0375  1.3190
14740TIP3   OH265634   5.233   6.210   0.018 -0.1129  0.3888  0.5156
14740TIP3    H165635   5.249   6.119   0.041 -0.1579  0.2071 -0.1531
14740TIP3    H265636   5.309   6.236  -0.034 -1.0064  0.1131 -0.9983
14741TIP3   OH265637   4.668   3.052   1.457  0.6103 -0.5240 -0.4049
14741TIP3    H165638   4.644   3.090   1.373  1.0614  1.2438  0.2037
14741TIP3    H265639   4.609   3.094   1.520  0.6973 -1.3440  0.2360
14742TIP3   OH265640   4.043   0.812   4.747 -0.0293 -0.1433  0.2126
14742TIP3    H165641   3.951   0.838   4.734 -0.1578 -1.3248 -1.7107
14742TIP3    H265642   4.062   0.836   4.837 -2.3496 -0.1748  0.7868
14743TIP3   OH265643   3.122   0.182   4.443  0.7017 -0.1970  0.4613
14743TIP3    H165644   3.128   0.111   4.379 -0.4924  0.2538 -0.1748
14743TIP3    H265645   3.046   0.233   4.415  1.5136  1.3204  0.9273
14744TIP3   OH265646   0.656   4.147   6.277  0.3319 -0.2889 -0.2087
14744TIP3    H165647   0.574   4.112   6.313  0.2480 -0.7517 -0.8241
14744TIP3    H265648   0.696   4.194   6.350 -0.7175  0.3656 -0.0259
14745TIP3   OH265649   0.918   1.678  12.916  0.3310 -0.0926  0.0011
14745TIP3    H165650   0.823   1.682  12.922  0.3889 -0.2376  1.2356
14745TIP3    H265651   0.948   1.762  12.951  0.6749 -0.3743  0.4018
14746TIP3   OH265652   4.956   6.043  16.674  0.0411 -0.7175 -0.3814
14746TIP3    H165653   4.942   6.117  16.614  0.0183 -1.0842 -0.8347
14746TIP3    H265654   4.884   6.051  16.737  1.5572  1.2391  1.2475
14747TIP3   OH265655   2.039   0.454  14.323  0.3292 -0.0363  0.6035
14747TIP3    H165656   2.114   0.494  14.280  0.5298 -0.1001  0.8915
14747TIP3    H265657   1.971   0.450  14.255  0.9274 -0.9486  0.0378
14748TIP3   OH265658   2.211   2.453   2.021 -0.1844  0.4340  0.0813
14748TIP3    H165659   2.171   2.419   2.101 -0.2621  1.6601  0.5844
14748TIP3    H265660   2.141   2.449   1.956  0.0581 -1.1633 -0.1301
14749TIP3   OH265661   3.710   3.836   5.823 -0.2269  0.2778  0.3415
14749TIP3    H165662   3.784   3.823   5.882 -0.4401  0.9222  0.7535
14749TIP3    H265663   3.648   3.767   5.846 -1.1116  1.5987  2.1400
14750TIP3   OH265664   1.710   6.409  11.233 -0.3515  0.1750  0.2454
14750TIP3    H165665   1.768   6.417  11.158 -1.0678  0.3366 -0.3077
14750TIP3    H265666   1.751   6.461  11.302  0.1297  0.3157 -0.1452
14751TIP3   OH265667   6.442   3.762   4.890  0.1648 -0.3020 -0.0746
14751TIP3    H165668   6.498   3.803   4.824  0.6161 -0.6005  0.1222
14751TIP3    H265669   6.499   3.702   4.937 -0.2222 -0.3067  0.4013
14752TIP3   OH265670   2.790   5.186  12.109 -0.3880 -0.0796 -0.5359
14752TIP3    H165671   2.876   5.151  12.086  0.1865  0.4400  0.7244
14752TIP3    H265672   2.727   5.124  12.071  0.4988  0.0552 -2.3068
14753TIP3   OH265673   4.402   1.617  16.728  0.0265 -0.0789  0.0338
14753TIP3    H165674   4.319   1.570  16.737  1.4645 -3.1854 -1.4797
14753TIP3    H265675   4.441   1.582  16.648  2.9629  1.0462  0.8373
14754TIP3   OH265676   3.324   0.516   2.408 -0.0496 -0.2662 -0.1508
14754TIP3    H165677   3.389   0.510   2.338 -0.0444  0.5822 -0.2292
14754TIP3    H265678   3.250   0.563   2.369  0.0534  0.4329  0.4687
14755TIP3   OH265679   6.383   6.179  11.508  0.0169  0.8803  0.1897
14755TIP3    H165680   6.343   6.198  11.423  2.4955  0.6515 -1.1298
14755TIP3    H265681   6.377   6.084  11.517  0.8381  0.7589 -0.3692
14756TIP3   OH265682   5.018   0.417  12.696 -0.1031 -0.0009  0.4571
14756TIP3    H165683   5.052   0.490  12.645  0.3182 -0.8367 -0.5085
14756TIP3    H265684   5.089   0.352  12.695 -0.9070 -0.9055  0.2560
14757TIP3   OH265685   2.532   0.713  11.098  0.5734 -0.4307  0.1260
14757TIP3    H165686   2.513   0.662  11.019  2.3006 -1.6745  0.4531
14757TIP3    H265687   2.581   0.653  11.155  2.5501  1.4989  0.6258
14758TIP3   OH265688   3.545   2.696  11.446  0.1723 -0.4790 -0.0907
14758TIP3    H165689   3.544   2.783  11.406  1.4066 -0.1877  0.4633
14758TIP3    H265690   3.462   2.691  11.494 -0.4799 -0.1207 -1.1409
14759TIP3   OH265691   1.909   5.799  11.645  0.1157 -0.3834  0.7599
14759TIP3    H165692   1.982   5.821  11.588  1.0338 -0.3352  1.9097
14759TIP3    H265693   1.830   5.821  11.594  0.9118  0.8806  0.0296
14760TIP3   OH265694   0.500   6.506   2.737  0.2403 -0.1094  0.4848
14760TIP3    H165695   0.463   6.562   2.804 -1.8582 -0.5379 -0.2572
14760TIP3    H265696   0.512   6.421   2.780  1.4512  0.3181  1.0270
14761TIP3   OH265697   6.760   5.576   5.849  0.7001 -0.3227 -0.1269
14761TIP3    H165698   6.769   5.606   5.940  3.4824 -0.8370 -0.1482
14761TIP3    H265699   6.800   5.645   5.797 -0.5834 -0.1914 -0.9836
14762TIP3   OH265700   6.031   3.852  15.913  0.5265 -1.0434  0.1465
14762TIP3    H165701   6.102   3.843  15.849  0.2566 -1.4504 -0.0992
14762TIP3    H265702   5.951   3.845  15.861  0.3025 -0.9774  0.4778
14763TIP3   OH265703   1.415   5.309  17.022  0.0250  0.0299  0.3364
14763TIP3    H165704   1.410   5.375  17.091 -0.2448  0.0719  0.2781
14763TIP3    H265705   1.506   5.278  17.024  0.5632  1.4530 -0.6140
14764TIP3   OH265706   2.066   1.963   4.976 -0.0642 -0.0169 -0.1721
14764TIP3    H165707   2.116   1.938   5.054 -1.9425 -0.6357  0.8800
14764TIP3    H265708   1.985   2.001   5.010 -0.8332 -0.0948 -1.8208
14765TIP3   OH265709   6.262   0.203  14.925 -0.2552  0.3455  0.2800
14765TIP3    H165710   6.303   0.172  14.844 -2.0979 -0.2305 -0.4751
14765TIP3    H265711   6.171   0.173  14.919 -0.4016  0.1418  2.6501
14766TIP3   OH265712   1.307   2.808  11.096  0.2726 -0.1430  0.4433
14766TIP3    H165713   1.278   2.721  11.068  0.6166 -0.5638  1.3433
14766TIP3    H265714   1.264   2.869  11.036 -1.9838 -0.7773  1.3100
14767TIP3   OH265715   4.595   1.360  16.241 -0.0452  0.2870 -0.4763
14767TIP3    H165716   4.577   1.326  16.153 -1.0114  0.3157 -0.3052
14767TIP3    H265717   4.517   1.410  16.263 -0.5294 -1.0438  1.0392
14768TIP3   OH265718   5.839   1.383  16.747 -0.2501 -0.2692  0.2526
14768TIP3    H165719   5.895   1.440  16.799 -0.9398  1.1611 -0.5204
14768TIP3    H265720   5.841   1.299  16.793  2.7902 -0.4168  0.0781
14769TIP3   OH265721   1.646   1.225  16.915  0.2443 -0.2362  0.6371
14769TIP3    H165722   1.610   1.137  16.924  0.7523 -0.5440 -0.2766
14769TIP3    H265723   1.695   1.240  16.996 -1.0002 -0.2302  1.4219
14770TIP3   OH265724   4.427   5.202  13.476  0.1054 -0.2326 -0.2885
14770TIP3    H165725   4.510   5.162  13.501 -0.0893 -0.1579  0.4874
14770TIP3    H265726   4.439   5.225  13.384  1.1118  0.2045 -0.0614
14771TIP3   OH265727   3.453   4.371  14.217 -0.5005 -0.7880  0.3364
14771TIP3    H165728   3.535   4.322  14.216 -0.3643 -0.5810  0.9298
14771TIP3    H265729   3.390   4.313  14.260 -0.6592 -0.9233 -0.0660
14772TIP3   OH265730   5.491   4.760   3.380  0.2308  0.2300 -0.4755
14772TIP3    H165731   5.572   4.729   3.339 -1.1596 -2.4543 -1.4701
14772TIP3    H265732   5.472   4.695   3.448 -0.8437  1.0503  0.0375
14773TIP3   OH265733   6.364   1.949  13.621  0.3494 -0.3816 -0.1972
14773TIP3    H165734   6.308   1.955  13.543  0.1659  0.2398 -0.0158
14773TIP3    H265735   6.391   2.039  13.639 -0.9515 -0.2781  1.4509
14774TIP3   OH265736   0.128   6.201  16.628 -0.3302 -0.2366  0.9902
14774TIP3    H165737   0.171   6.115  16.625  0.3045  0.0265  2.0206
14774TIP3    H265738   0.035   6.181  16.638 -0.3242 -0.8057  0.0393
14775TIP3   OH265739   3.788   1.968  12.843 -0.5458  0.4709 -0.1508
14775TIP3    H165740   3.779   1.908  12.917  1.7734 -0.5910 -0.6396
14775TIP3    H265741   3.711   1.950  12.789 -0.2395 -1.6817  0.0336
14776TIP3   OH265742   3.551   0.914  13.261  0.1703 -0.0137  0.0812
14776TIP3    H165743   3.571   0.975  13.191  2.2614 -0.7192 -0.0069
14776TIP3    H265744   3.540   0.969  13.339  0.4192  0.5813 -0.3035
14777TIP3   OH265745   0.547   2.303  16.449  0.6796 -0.3714 -0.2083
14777TIP3    H165746   0.610   2.374  16.450 -0.8133  1.0672 -2.1071
14777TIP3    H265747   0.500   2.311  16.532 -0.4402  1.8494 -0.9898
14778TIP3   OH265748   0.130   1.574  16.876  0.4709  0.1406  0.5064
14778TIP3    H165749   0.107   1.522  16.953  0.6401 -0.6181  0.0590
14778TIP3    H265750   0.192   1.519  16.828 -0.0822  0.3542 -0.4751
14779TIP3   OH265751   6.677   0.150   1.837 -0.2557  0.0522 -0.3255
14779TIP3    H165752   6.762   0.192   1.821 -0.3849  1.5703  2.3958
14779TIP3    H265753   6.612   0.218   1.820 -0.6402  0.1936  1.5384
14780TIP3   OH265754   0.995   4.392   5.759 -0.2763 -0.0270  0.2105
14780TIP3    H165755   1.004   4.353   5.846  2.5968  0.3376  0.1885
14780TIP3    H265756   0.957   4.478   5.776 -1.5077 -0.6815  0.8767
14781TIP3   OH265757   1.055   6.015   1.361 -0.4534 -0.1292  0.1830
14781TIP3    H165758   1.108   5.953   1.410 -0.9374  1.6003  3.1560
14781TIP3    H265759   1.106   6.033   1.281  2.3852 -0.1759  1.8606
14782TIP3   OH265760   3.940   0.335   0.686 -0.0120  0.2149 -0.0954
14782TIP3    H165761   3.903   0.329   0.598 -1.3723 -0.7854  0.5016
14782TIP3    H265762   4.033   0.314   0.675 -0.5124 -1.7076 -1.0636
14783TIP3   OH265763   4.237   0.588  15.010  0.1814 -0.2714 -0.0104
14783TIP3    H165764   4.175   0.546  14.950  0.1230  0.0120 -0.1474
14783TIP3    H265765   4.286   0.650  14.956  1.8826 -1.8046 -0.3034
14784TIP3   OH265766   2.802   2.954   2.785  0.1652  0.2951 -0.3314
14784TIP3    H165767   2.768   2.910   2.863 -0.4543 -0.1704 -0.8599
14784TIP3    H265768   2.895   2.968   2.804 -0.0745  0.5840  0.6681
14785TIP3   OH265769   6.251   5.977  15.345  0.4766 -0.0535 -0.2799
14785TIP3    H165770   6.327   6.024  15.310  0.0886  0.9392  0.1723
14785TIP3    H265771   6.286   5.892  15.372  1.0322 -0.3546 -1.8591
14786TIP3   OH265772   1.433   4.390  16.692  1.4724 -1.1233 -0.1142
14786TIP3    H165773   1.501   4.379  16.758  0.8114 -0.6844  0.6494
14786TIP3    H265774   1.351   4.380  16.739  0.9535  0.7374 -0.5368
14787TIP3   OH265775   2.053   5.358   0.182 -0.2492  0.1249 -0.0658
14787TIP3    H165776   2.148   5.344   0.178 -0.2317  0.4480 -0.9320
14787TIP3    H265777   2.015   5.280   0.142 -0.4924 -1.3415  2.7631
14788TIP3   OH265778   3.201   2.249   0.435  0.1420 -0.4236  0.4900
14788TIP3    H165779   3.254   2.328   0.421 -0.7374  0.1656  0.4234
14788TIP3    H265780   3.265   2.178   0.440  0.9920  0.3553  1.0561
14789TIP3   OH265781   1.682   6.209   4.343  0.0736 -0.0500  0.5302
14789TIP3    H165782   1.654   6.283   4.290 -3.2986 -0.3635  1.6435
14789TIP3    H265783   1.680   6.134   4.283 -2.5234 -0.1934  0.6802
14790TIP3   OH265784   6.772   3.884  16.318 -0.2644 -0.4862  0.3502
14790TIP3    H165785   6.802   3.793  16.309  2.1519 -0.0747  2.8396
14790TIP3    H265786   6.741   3.889  16.408  1.2951  1.5094  0.8476
14791TIP3   OH265787   3.742   2.013  11.256  0.1313  0.3487 -0.0209
14791TIP3    H165788   3.704   2.092  11.295  1.4829 -0.2634  2.8458
14791TIP3    H265789   3.670   1.950  11.253 -0.1111  0.5415  1.2669
14792TIP3   OH265790   3.773   4.112  15.991  0.1104 -0.3437  0.0053
14792TIP3    H165791   3.805   4.030  16.030 -1.2319 -0.6531  0.5168
14792TIP3    H265792   3.732   4.158  16.065  3.3643  2.1932  0.4431
14793TIP3   OH265793   4.717   3.176  11.716 -0.0411  0.6516  0.2213
14793TIP3    H165794   4.672   3.259  11.726 -0.3006  0.6556 -0.8143
14793TIP3    H265795   4.705   3.153  11.623 -0.2207 -0.6736  0.5402
14794TIP3   OH265796   5.599   5.084   1.651  0.3216 -0.3608  0.7176
14794TIP3    H165797   5.517   5.117   1.687  0.7476  1.3581  0.2148
14794TIP3    H265798   5.578   5.057   1.562  0.1551 -0.5595  0.8187
14795TIP3   OH265799   3.981   1.203   5.102 -0.0806 -0.1653 -0.1962
14795TIP3    H165800   3.894   1.243   5.097  0.9792  2.3001 -0.4904
14795TIP3    H265801   4.036   1.270   5.142  1.1886 -2.6719  2.6158
14796TIP3   OH265802   2.123   5.834  15.110  0.3574  0.3411  0.3505
14796TIP3    H165803   2.182   5.780  15.163 -0.3931  0.1649  1.0265
14796TIP3    H265804   2.179   5.870  15.042  0.4912 -3.2277 -1.6893
14797TIP3   OH265805   6.185   5.550  16.602  0.1376 -0.3396 -0.6909
14797TIP3    H165806   6.096   5.525  16.575 -0.2866  0.2611  0.1254
14797TIP3    H265807   6.175   5.580  16.692  1.3337 -1.1645 -0.2599
14798TIP3   OH265808   4.598   2.563   3.321 -0.2771  0.3058  0.2465
14798TIP3    H165809   4.599   2.653   3.288  0.7116  0.3841  0.4573
14798TIP3    H265810   4.551   2.514   3.255  1.4118  0.5087 -1.1935
14799TIP3   OH265811   5.496   1.073   1.801  0.3207 -0.2448  0.2337
14799TIP3    H165812   5.445   1.145   1.765  1.1304  0.8667  1.2146
14799TIP3    H265813   5.486   1.002   1.738  0.9097  1.3014 -1.7140
14800TIP3   OH265814   5.765   6.358  12.149  0.2103 -0.3330 -0.2850
14800TIP3    H165815   5.749   6.386  12.239 -2.8345 -1.2662 -0.4331
14800TIP3    H265816   5.856   6.328  12.149 -0.0044 -1.3003  2.7634
14801TIP3   OH265817   3.620   4.543   5.726  0.2024  0.2224 -0.4494
14801TIP3    H165818   3.531   4.528   5.760 -0.2922  0.1528 -1.7183
14801TIP3    H265819   3.671   4.469   5.759 -0.5288 -0.4362 -0.7653
14802TIP3   OH265820   4.828   6.092  12.538 -0.0007 -0.5614  0.1765
14802TIP3    H165821   4.906   6.038  12.527 -0.2274 -0.7142 -0.7453
14802TIP3    H265822   4.791   6.099  12.450 -1.0150 -0.4861  0.5947
14803TIP3   OH265823   3.209   5.493   1.459 -0.5325 -0.4642 -0.6818
14803TIP3    H165824   3.159   5.565   1.498  0.0752 -0.8292  0.8434
14803TIP3    H265825   3.292   5.532   1.433  0.4838 -0.8464  1.6641
14804TIP3   OH265826   3.215   4.583   3.862 -0.1446 -0.2016 -0.3195
14804TIP3    H165827   3.152   4.615   3.926 -0.6608 -1.9427  0.1079
14804TIP3    H265828   3.168   4.583   3.779  0.3763  1.6122 -0.6518
14805TIP3   OH265829   3.948   0.457  16.891 -0.4641 -0.1811 -0.4160
14805TIP3    H165830   3.903   0.444  16.807 -0.2325  0.0670 -0.5809
14805TIP3    H265831   3.881   0.497  16.947 -0.3975  0.3803 -0.7249
14806TIP3   OH265832   3.243   6.326   4.212 -0.1941 -0.1222  0.4359
14806TIP3    H165833   3.325   6.280   4.198 -0.8267 -1.0530 -0.3724
14806TIP3    H265834   3.185   6.260   4.250 -0.9518  0.1450 -0.2287
14807TIP3   OH265835   6.233   0.731   4.658  0.4841 -0.5332 -0.8058
14807TIP3    H165836   6.269   0.812   4.693 -0.1950 -0.5002 -0.1547
14807TIP3    H265837   6.153   0.716   4.709 -1.1662  0.0815 -3.0704
14808TIP3   OH265838   2.253   4.564   0.400  0.0901  0.0075 -0.1490
14808TIP3    H165839   2.345   4.590   0.395  0.1286 -0.2243 -0.7854
14808TIP3    H265840   2.244   4.494   0.335 -0.0976 -1.3221  1.2554
14809TIP3   OH265841   4.294   0.530  14.353  0.2766 -0.3071 -0.5112
14809TIP3    H165842   4.383   0.494  14.359 -0.2930 -1.6387  0.4119
14809TIP3    H265843   4.246   0.486  14.423 -0.8440  1.2246 -0.2806
14810TIP3   OH265844   3.646   4.170   2.918 -0.2710 -0.2509 -0.5773
14810TIP3    H165845   3.686   4.126   2.843 -0.5545 -0.2259 -0.7441
14810TIP3    H265846   3.663   4.263   2.903 -0.4805 -0.2330 -0.6991
14811TIP3   OH265847   1.936   2.499  16.844 -0.2400 -0.4296 -0.1667
14811TIP3    H165848   1.859   2.544  16.879  0.4717  0.2852  0.4996
14811TIP3    H265849   1.967   2.556  16.774 -1.0516 -1.3517 -1.3251
14812TIP3   OH265850   1.786   6.760   1.875  0.8477 -1.1957  0.1855
14812TIP3    H165851   1.762   6.762   1.968  0.6177 -1.8201  0.1459
14812TIP3    H265852   1.728   6.824   1.834  1.1296 -0.7252  0.5122
14813TIP3   OH265853   4.825   4.971   0.075 -0.4331  0.0725  0.2239
14813TIP3    H165854   4.761   5.039   0.053  0.2571  0.5063 -0.4627
14813TIP3    H265855   4.773   4.903   0.120 -1.2249  0.7860  0.4146
14814TIP3   OH265856   3.928   3.856  13.371  0.1898 -0.3738 -0.7447
14814TIP3    H165857   3.903   3.943  13.338 -0.6113 -0.8991 -1.5650
14814TIP3    H265858   3.859   3.833  13.433  0.5036 -0.3564 -0.3810
14815TIP3   OH265859   1.578   0.810  14.873 -0.2406 -0.6039  0.5749
14815TIP3    H165860   1.629   0.730  14.863 -0.8665 -0.9139 -0.2766
14815TIP3    H265861   1.528   0.797  14.954  1.7205  0.1226  1.9715
14816TIP3   OH265862   6.299   3.739   0.445  0.1155 -0.2411 -0.7878
14816TIP3    H165863   6.325   3.647   0.443 -0.3574 -0.3781 -0.7579
14816TIP3    H265864   6.381   3.787   0.444  0.4132 -0.6822  0.5701
14817TIP3   OH265865   6.613   2.589   0.302  0.0234 -0.2754 -0.4069
14817TIP3    H165866   6.535   2.644   0.304  1.4592  1.8858  0.5867
14817TIP3    H265867   6.679   2.642   0.257  1.4771 -1.1719  0.5780
14818TIP3   OH265868   3.250   5.527  13.371 -0.3610 -0.5238  0.1426
14818TIP3    H165869   3.345   5.522  13.379 -0.3194 -0.0793 -0.0012
14818TIP3    H265870   3.231   5.502  13.280 -0.2538  0.7055 -0.2357
14819TIP3   OH265871   0.821   2.841  13.433  0.0598  0.1066 -0.1686
14819TIP3    H165872   0.876   2.763  13.443  0.4723  0.4931  0.6509
14819TIP3    H265873   0.882   2.914  13.425 -0.2880  0.6707  1.7655
14820TIP3   OH265874   4.948   2.190  15.368 -0.4077  0.0693 -0.5022
14820TIP3    H165875   4.883   2.146  15.313 -1.6503  0.1624  0.8171
14820TIP3    H265876   4.919   2.281  15.372  1.3892  0.7674 -2.1143
14821TIP3   OH265877   4.570   0.518  14.909 -0.1950  0.3943 -0.3933
14821TIP3    H165878   4.538   0.526  14.999  0.0989  1.4238 -0.3695
14821TIP3    H265879   4.662   0.493  14.918  0.0704  1.3386 -0.3780
14822TIP3   OH265880   3.905   6.248   1.476  0.3143 -0.0781  0.0169
14822TIP3    H165881   3.979   6.250   1.537 -0.0437 -0.7862  0.4920
14822TIP3    H265882   3.843   6.312   1.511  1.2490  1.5517 -1.1444
14823TIP3   OH265883   5.321   4.227  11.724 -0.4191 -0.0771 -0.6694
14823TIP3    H165884   5.325   4.156  11.788 -3.1249  0.9824  0.8349
14823TIP3    H265885   5.257   4.198  11.659 -0.8254  0.5781 -0.5670
14824TIP3   OH265886   5.378   1.379  10.795 -0.2529  0.1443  0.1217
14824TIP3    H165887   5.325   1.414  10.724 -0.1959  0.4116  0.2090
14824TIP3    H265888   5.436   1.316  10.752 -2.1512 -1.8401  0.3503
14825TIP3   OH265889   2.513   1.213  16.123 -0.4537  0.2524 -0.0102
14825TIP3    H165890   2.587   1.153  16.130 -1.8253 -1.4382  1.0433
14825TIP3    H265891   2.532   1.267  16.046  1.2016 -1.0306 -0.5619
14826TIP3   OH265892   0.231   1.926   3.300 -0.7558  0.4043  0.1984
14826TIP3    H165893   0.240   1.872   3.378 -1.9309 -0.4301 -0.2269
14826TIP3    H265894   0.321   1.948   3.276 -0.3252 -0.3241  1.0983
14827TIP3   OH265895   4.792   1.645  17.216  0.2883 -0.4751  0.2625
14827TIP3    H165896   4.706   1.683  17.198 -0.0151 -1.2258  0.0910
14827TIP3    H265897   4.849   1.721  17.231 -0.6535  0.0344  1.5521
14828TIP3   OH265898   4.010   4.027   4.182 -0.3694  0.0147  0.1781
14828TIP3    H165899   3.968   4.098   4.230 -0.0162 -0.0109  0.5320
14828TIP3    H265900   4.070   4.072   4.121  0.9014  0.0049  1.3776
14829TIP3   OH265901   1.037   1.182   4.329 -0.1905  0.1145  0.3256
14829TIP3    H165902   0.993   1.109   4.285  1.1351 -1.2818  1.2291
14829TIP3    H265903   0.971   1.216   4.390 -0.4499 -1.1366  0.7736
14830TIP3   OH265904   3.353   1.254   5.312 -0.5796 -0.0927 -0.4694
14830TIP3    H165905   3.358   1.239   5.407 -0.1979 -0.5612 -0.5579
14830TIP3    H265906   3.414   1.326   5.297  1.5855 -1.8786 -0.7244
14831TIP3   OH265907   4.262   1.858  14.268 -0.2806 -0.3445 -0.6156
14831TIP3    H165908   4.206   1.845  14.344  1.2210  1.5241  0.9403
14831TIP3    H265909   4.218   1.927  14.217 -0.6738 -0.7283 -0.8007
14832TIP3   OH265910   1.371   1.185   5.992  0.6588  0.1806 -0.3914
14832TIP3    H165911   1.436   1.171   6.062  1.4888  2.8806 -0.5160
14832TIP3    H265912   1.401   1.264   5.947 -1.6798  0.3959 -1.7073
14833TIP3   OH265913   5.356   1.168   0.800  0.1477  0.4860  0.2527
14833TIP3    H165914   5.426   1.148   0.862 -0.4532 -0.4087  0.6635
14833TIP3    H265915   5.320   1.251   0.831 -0.1164  0.0708  1.0887
14834TIP3   OH265916   3.791   5.231   5.177  0.1024  0.2249  0.5111
14834TIP3    H165917   3.864   5.257   5.232  0.1067  0.7496  0.2634
14834TIP3    H265918   3.830   5.179   5.106  0.2689  0.7155  0.2405
14835TIP3   OH265919   1.027   2.038   5.545  0.1847 -0.1911  0.4908
14835TIP3    H165920   1.033   2.132   5.561  0.6347 -0.1018 -0.1498
14835TIP3    H265921   0.937   2.015   5.567 -0.0377  0.4593  0.2919
14836TIP3   OH265922   5.466   3.792  16.559  0.4475 -0.1768 -0.8313
14836TIP3    H165923   5.475   3.765  16.467  0.3624 -2.1191 -0.3040
14836TIP3    H265924   5.427   3.879  16.554 -0.7017 -0.7317 -2.6376
14837TIP3   OH265925   1.865   3.115   5.592 -0.5752  0.1624 -0.1779
14837TIP3    H165926   1.928   3.114   5.663  0.9927 -2.0316 -1.4687
14837TIP3    H265927   1.831   3.026   5.588 -2.5797  0.8761 -0.5968
14838TIP3   OH265928   3.561   4.089  10.577 -0.1032  0.2300  0.0898
14838TIP3    H165929   3.500   4.037  10.629  1.0293 -0.3739  0.8631
14838TIP3    H265930   3.579   4.166  10.630 -2.4092  1.9135 -1.4032
14839TIP3   OH265931   0.486   1.381  17.072  0.3421 -0.4193 -0.0607
14839TIP3    H165932   0.516   1.470  17.056  0.3442 -0.6904 -1.6504
14839TIP3    H265933   0.418   1.392  17.139  1.0915  0.6334  0.5695
14840TIP3   OH265934   4.440   0.932  15.755  0.1240 -0.2751  0.1992
14840TIP3    H165935   4.528   0.909  15.726  0.1456 -0.6977  0.5799
14840TIP3    H265936   4.383   0.870  15.709 -0.0352  0.3574 -0.4770
14841TIP3   OH265937   5.803   6.298   3.595  0.0266 -0.2436  0.2534
14841TIP3    H165938   5.789   6.216   3.546  1.5067 -0.2118 -0.2632
14841TIP3    H265939   5.894   6.322   3.576  0.0411  0.7873  1.5325
14842TIP3   OH265940   1.593   1.354  16.376 -0.2466 -0.3922 -0.3607
14842TIP3    H165941   1.514   1.404  16.354  0.5257  1.1254  0.1486
14842TIP3    H265942   1.580   1.327  16.466  0.1825  0.6816  0.0473
14843TIP3   OH265943   6.087   6.710   1.405 -0.1143  0.4178  0.4855
14843TIP3    H165944   6.168   6.659   1.397 -0.3526  0.2823 -1.9273
14843TIP3    H265945   6.030   6.655   1.458  0.0416 -1.3843 -1.0871
14844TIP3   OH265946   2.454   3.349   3.333 -0.4094 -0.4558  0.1733
14844TIP3    H165947   2.386   3.413   3.311  1.8769  2.7329  1.5467
14844TIP3    H265948   2.516   3.353   3.259  0.6935  0.4404  1.1010
14845TIP3   OH265949   6.740   6.270  14.315  0.2779  0.3904 -0.3543
14845TIP3    H165950   6.719   6.356  14.351 -0.0069  0.3088 -0.3274
14845TIP3    H265951   6.780   6.288  14.230 -1.2953  0.4870 -1.1005
14846TIP3   OH265952   3.671   4.966   4.710  0.0992 -0.1797 -0.2910
14846TIP3    H165953   3.604   4.918   4.759 -0.4162 -0.4373 -1.2263
14846TIP3    H265954   3.722   4.898   4.666 -0.2717  0.0918 -1.1648
14847TIP3   OH265955   4.044   1.127   3.107 -0.4544  0.0576 -0.1817
14847TIP3    H165956   3.972   1.175   3.148  0.2057  0.4815  0.4996
14847TIP3    H265957   4.110   1.193   3.088 -0.4984 -0.2231 -1.4100
14848TIP3   OH265958   4.156   1.968   1.667  0.3030  0.1760 -0.0222
14848TIP3    H165959   4.068   1.935   1.686  0.4242 -0.6294 -0.7949
14848TIP3    H265960   4.213   1.893   1.682  0.5526 -0.0966 -2.0839
14849TIP3   OH265961   6.688   2.428  14.269 -0.7388 -0.1124 -0.8810
14849TIP3    H165962   6.620   2.398  14.330 -0.7454 -1.9207 -1.7067
14849TIP3    H265963   6.658   2.400  14.183  1.1288 -1.1855 -1.2447
14850TIP3   OH265964   3.879   0.022  12.060 -0.4149 -0.0824 -0.1658
14850TIP3    H165965   3.917  -0.039  11.997  0.0484  0.2518 -0.2122
14850TIP3    H265966   3.794   0.046  12.023 -0.0421  0.2955 -0.7790
14851TIP3   OH265967   4.866   2.442   0.149 -0.1283 -0.0730  0.3483
14851TIP3    H165968   4.813   2.520   0.165 -0.8620 -0.3589 -0.5839
14851TIP3    H265969   4.942   2.474   0.101  0.8939  0.4291  2.1930
14852TIP3   OH265970   0.904   3.368   5.811  0.0720  0.7780  0.1978
14852TIP3    H165971   0.965   3.441   5.818  0.2909  0.8560 -1.8091
14852TIP3    H265972   0.918   3.334   5.722 -2.1618  0.2324 -0.0078
14853TIP3   OH265973   2.379   5.819  11.175  0.8651  0.7391  0.3376
14853TIP3    H165974   2.357   5.728  11.156 -0.1316  0.9327  0.5004
14853TIP3    H265975   2.373   5.825  11.271  3.3649  0.3860  0.5812
14854TIP3   OH265976   5.041   4.714  12.890  0.2837  0.1584 -0.1110
14854TIP3    H165977   5.077   4.792  12.931  1.0573 -0.6767  0.8814
14854TIP3    H265978   4.950   4.711  12.918  1.1801 -1.3194  3.2079
14855TIP3   OH265979   2.662   5.359  15.722 -0.0441 -0.3847 -0.5469
14855TIP3    H165980   2.676   5.415  15.799  1.5564 -1.6824  0.1792
14855TIP3    H265981   2.608   5.287  15.754 -1.0044  0.0436 -1.1544
14856TIP3   OH265982   5.656   4.687  14.180  0.3202 -0.1398 -0.1787
14856TIP3    H165983   5.714   4.621  14.143 -0.0837 -0.9763  0.6235
14856TIP3    H265984   5.574   4.640  14.196 -0.8022  1.1573 -1.8373
14857TIP3   OH265985   6.467   5.632   0.847 -0.1780 -0.2232  0.3812
14857TIP3    H165986   6.421   5.587   0.776  0.3625 -0.0726 -0.0703
14857TIP3    H265987   6.397   5.662   0.905 -0.7678  1.1873 -0.9775
14858TIP3   OH265988   4.801   3.271   3.346  0.2191 -0.0654 -0.0758
14858TIP3    H165989   4.765   3.288   3.432 -0.8689 -1.1967 -0.2782
14858TIP3    H265990   4.800   3.355   3.301 -0.1750  0.3184  0.6597
14859TIP3   OH265991   1.002   5.242   4.444 -0.2117  0.3803 -0.0830
14859TIP3    H165992   1.064   5.171   4.423  0.1986  0.4065  1.0119
14859TIP3    H265993   1.056   5.321   4.446 -0.0240  0.2539  2.0020
14860TIP3   OH265994   3.614   3.742  13.849 -0.2761 -0.1311 -0.3840
14860TIP3    H165995   3.679   3.791  13.900  1.8661 -0.5068 -2.5462
14860TIP3    H265996   3.539   3.735  13.907  1.3627  0.9089  2.0629
14861TIP3   OH265997   0.433   5.131   4.034 -0.4645 -0.1613  0.6806
14861TIP3    H165998   0.487   5.092   3.965 -0.4855 -0.6401  0.9354
14861TIP3    H265999   0.485   5.206   4.065 -0.0134 -0.5306  0.8246
14862TIP3   OH266000   1.443   2.190   0.525 -0.0894 -0.2029  0.7174
14862TIP3    H166001   1.481   2.271   0.491  1.6501 -0.6102  1.5796
14862TIP3    H266002   1.350   2.209   0.534  0.2343  1.6134  0.6187
14863TIP3   OH266003   4.691   3.770  12.522 -0.1623 -0.4269  0.9369
14863TIP3    H166004   4.597   3.768  12.500  0.1026  0.4792 -0.4723
14863TIP3    H266005   4.722   3.682  12.502 -0.0365  0.2054 -2.2312
14864TIP3   OH266006   0.733   2.551   3.456  0.1374 -0.5168  0.0939
14864TIP3    H166007   0.729   2.605   3.535  2.8317 -1.5257  1.0454
14864TIP3    H266008   0.787   2.476   3.481 -1.8496 -2.7168 -1.7394
14865TIP3   OH266009   1.108   6.549  16.265  0.5496  0.1686  0.1695
14865TIP3    H166010   1.135   6.485  16.199  0.2903 -0.6554  0.8507
14865TIP3    H266011   1.189   6.592  16.291  1.0511 -1.3303  1.2083
14866TIP3   OH266012   3.067   3.407   0.789 -0.2112 -0.2576  0.3559
14866TIP3    H166013   3.157   3.381   0.808  0.2697  1.2310  0.2453
14866TIP3    H266014   3.033   3.338   0.732  1.5659  0.2066 -1.3686
14867TIP3   OH266015   1.975   1.179  10.805  0.0425  0.1223 -0.4099
14867TIP3    H166016   1.929   1.264  10.809 -0.3877 -0.1587  2.0984
14867TIP3    H266017   2.068   1.202  10.809  0.0500  0.5468 -2.2457
14868TIP3   OH266018   4.059   0.236  15.588  0.0051 -0.9302 -0.2228
14868TIP3    H166019   4.053   0.298  15.515 -2.7039 -1.3854 -0.4775
14868TIP3    H266020   4.019   0.155  15.555 -1.2937 -1.1531  1.7343
14869TIP3   OH266021   3.605   2.016  17.129 -0.3753  1.0123 -0.7408
14869TIP3    H166022   3.589   2.109  17.116 -0.4816  0.9921 -0.7542
14869TIP3    H266023   3.523   1.981  17.162 -0.5219  0.8178 -1.2919
14870TIP3   OH266024   6.192   3.643   3.809 -0.4203 -0.1107  0.3282
14870TIP3    H166025   6.226   3.650   3.720  0.4511 -1.4867  0.5212
14870TIP3    H266026   6.267   3.657   3.865 -0.7178 -0.4231  0.8163
14871TIP3   OH266027   2.951   1.203   3.610  0.0334 -0.1454 -0.6055
14871TIP3    H166028   3.023   1.265   3.618 -0.4959  0.3213  0.8606
14871TIP3    H266029   2.898   1.217   3.688 -0.5404 -1.8909 -0.6230
14872TIP3   OH266030   0.130   5.124  12.929  0.4047  0.0536  0.2535
14872TIP3    H166031   0.061   5.115  12.863 -0.6167 -0.0590  1.3033
14872TIP3    H266032   0.102   5.199  12.983  1.0289 -0.0818  0.7829
14873TIP3   OH266033   1.080   4.281   2.870  0.5682  0.5443  0.0369
14873TIP3    H166034   1.081   4.190   2.839 -0.9274  0.5698 -0.1772
14873TIP3    H266035   1.172   4.306   2.875  0.9694 -0.6650 -0.8671
14874TIP3   OH266036   3.940   3.210  12.553  0.2456  0.4611 -0.1662
14874TIP3    H166037   3.972   3.270  12.485  0.5704 -0.5622 -0.9378
14874TIP3    H266038   4.018   3.162  12.581  0.3719  1.7382  1.8787
14875TIP3   OH266039   6.301   3.389  15.630  0.0607 -0.7173 -0.3356
14875TIP3    H166040   6.367   3.438  15.580 -1.3610  1.1171 -0.5133
14875TIP3    H266041   6.324   3.404  15.721 -1.5486  2.2091 -0.2974
14876TIP3   OH266042   5.804   4.660  13.452 -0.3177  0.2075 -0.0495
14876TIP3    H166043   5.732   4.681  13.513  0.2760 -0.7655  1.0292
14876TIP3    H266044   5.840   4.578  13.485  1.6181  0.9239 -0.2617
14877TIP3   OH266045   5.384   1.290   3.978 -0.4463  0.1738 -0.3575
14877TIP3    H166046   5.468   1.323   3.947 -0.0189 -0.7960 -0.2583
14877TIP3    H266047   5.391   1.195   3.970 -0.5404 -0.1108  2.1258
14878TIP3   OH266048   3.125   3.681  14.620 -0.3289  0.0827  0.2866
14878TIP3    H166049   3.168   3.634  14.548 -1.0735 -0.1316 -0.0278
14878TIP3    H266050   3.195   3.694  14.684  0.3392  0.2361 -0.4453
14879TIP3   OH266051   6.032   5.832  14.171 -0.1869  0.1808 -0.1760
14879TIP3    H166052   5.961   5.781  14.210 -0.5046  0.0792 -0.8776
14879TIP3    H266053   6.061   5.890  14.242  0.9134 -1.6827  0.9565
14880TIP3   OH266054   0.985   0.368  13.584 -0.2517 -0.1779 -0.5063
14880TIP3    H166055   1.053   0.350  13.649 -1.8178  0.1423  1.3067
14880TIP3    H266056   0.918   0.301  13.600 -0.9308  0.2508 -1.4346
14881TIP3   OH266057   1.102   1.160  10.827  0.6364 -0.2093 -0.2822
14881TIP3    H166058   1.120   1.120  10.741  0.6765 -0.4337 -0.1703
14881TIP3    H266059   1.143   1.100  10.890 -1.1724 -1.1726  0.0329
14882TIP3   OH266060   3.703   6.608   0.272 -0.1882  0.2751  0.5507
14882TIP3    H166061   3.705   6.598   0.177 -0.0763  2.1055  0.3281
14882TIP3    H266062   3.682   6.700   0.286  0.5184  0.2049  2.2949
14883TIP3   OH266063   4.427   3.299   2.150 -0.0325  0.3589  0.2463
14883TIP3    H166064   4.493   3.242   2.111 -1.0403 -1.3827  0.9609
14883TIP3    H266065   4.344   3.259   2.125 -0.7878  1.7199  0.5228
14884TIP3   OH266066   6.369   6.069  13.660  0.4452  0.2669 -0.2637
14884TIP3    H166067   6.436   6.002  13.642 -0.8448 -0.2935 -3.7185
14884TIP3    H266068   6.394   6.143  13.605 -1.1047  0.4854 -0.7161
14885TIP3   OH266069   5.526   5.001  11.569 -0.2895 -0.0587 -0.1024
14885TIP3    H166070   5.449   5.045  11.603  0.3743  1.3024 -0.3050
14885TIP3    H266071   5.591   5.008  11.640  0.2237  0.4006 -0.6114
14886TIP3   OH266072   2.492   1.341   0.483 -0.1184  0.4108 -0.7488
14886TIP3    H166073   2.585   1.364   0.480  0.1493 -0.6374 -0.7719
14886TIP3    H266074   2.490   1.246   0.474 -1.2230  0.4562 -1.1668
14887TIP3   OH266075   0.510   1.024  14.544  1.1126  0.4020 -0.0232
14887TIP3    H166076   0.423   0.994  14.570  1.4117 -1.1233 -0.6327
14887TIP3    H266077   0.528   1.100  14.599 -0.3476  0.3580  0.5413
14888TIP3   OH266078   3.866   1.489  12.156 -0.2371  0.2538  0.2833
14888TIP3    H166079   3.933   1.505  12.089 -0.9113  1.0840 -0.2062
14888TIP3    H266080   3.796   1.443  12.110 -0.0419 -0.5655  0.7839
14889TIP3   OH266081   2.090   2.575   3.701  0.8828  0.7379 -0.7336
14889TIP3    H166082   2.148   2.651   3.706  0.3153  1.2051 -1.0225
14889TIP3    H266083   2.136   2.513   3.645  1.0813  1.1212 -1.0001
14890TIP3   OH266084   5.597   0.908  15.515 -0.2479  0.0984 -0.6163
14890TIP3    H166085   5.564   0.955  15.438 -0.1441  0.7977 -0.2484
14890TIP3    H266086   5.692   0.919  15.512 -0.2632  0.3632 -0.2500
14891TIP3   OH266087   3.698   6.684  11.537  0.7479 -0.2431 -0.1709
14891TIP3    H166088   3.675   6.597  11.571 -0.9081 -0.9420 -2.7789
14891TIP3    H266089   3.742   6.727  11.610  0.4792 -2.7983  1.6479
14892TIP3   OH266090   0.026   6.338  16.003 -0.9924 -0.0130  0.2531
14892TIP3    H166091   0.006   6.430  16.016 -0.9094  0.0549 -0.0882
14892TIP3    H266092   0.076   6.335  15.921 -1.6307 -0.4450 -0.1308
14893TIP3   OH266093   4.103   0.872  16.744 -0.8060  0.0365 -0.1406
14893TIP3    H166094   4.046   0.931  16.694 -0.1503  0.9093  0.1064
14893TIP3    H266095   4.111   0.914  16.830  0.4815  0.1291 -0.2849
14894TIP3   OH266096   0.798   1.542   4.689 -0.6512  0.1232  0.1073
14894TIP3    H166097   0.799   1.548   4.785 -1.4917  0.0498  0.1314
14894TIP3    H266098   0.886   1.569   4.662 -0.9240  1.7844  0.7999
14895TIP3   OH266099   0.463   3.960  13.897  0.0395  0.5681 -0.2004
14895TIP3    H166100   0.511   4.026  13.847  3.7583 -1.2956  0.5995
14895TIP3    H266101   0.458   3.885  13.838  2.3288 -0.8170  1.2220
14896TIP3   OH266102   1.988   3.401   4.008  0.4723  0.2654 -0.5601
14896TIP3    H166103   1.999   3.356   4.091  0.3898  0.9563 -0.1634
14896TIP3    H266104   1.993   3.494   4.031 -1.2794  0.5121 -1.0503
14897TIP3   OH266105   3.084   5.465  16.851  0.2505 -0.2551 -0.6294
14897TIP3    H166106   3.015   5.488  16.914  0.5519  0.9615 -0.7237
14897TIP3    H266107   3.059   5.378  16.820 -0.0695 -0.7504  0.9425
14898TIP3   OH266108   0.583   5.523  13.548  0.0170  0.1496  0.0785
14898TIP3    H166109   0.554   5.534  13.639 -0.7999  1.6976 -0.3403
14898TIP3    H266110   0.528   5.453  13.513 -0.0672 -0.0475  0.5958
14899TIP3   OH266111   3.689   2.757   4.310  0.1434 -0.4870 -0.5960
14899TIP3    H166112   3.605   2.768   4.267 -0.4011 -1.0697  0.2765
14899TIP3    H266113   3.752   2.748   4.239 -0.2360  1.7668 -1.2944
14900TIP3   OH266114   4.847   1.981   0.674 -0.2806  0.0428 -0.3837
14900TIP3    H166115   4.845   2.011   0.765  0.2894 -0.2126 -0.2784
14900TIP3    H266116   4.941   1.973   0.655 -0.3650 -2.7598 -0.0384
14901TIP3   OH266117   0.614   6.610  11.903 -0.3302  0.7137  0.4938
14901TIP3    H166118   0.704   6.581  11.917 -0.1683  0.9247 -0.0785
14901TIP3    H266119   0.568   6.588  11.984 -0.1787 -0.9876  0.1619
14902TIP3   OH266120   0.843   0.646   4.430 -0.3501  0.2889 -0.2983
14902TIP3    H166121   0.852   0.739   4.409  0.8285  0.4573  0.8106
14902TIP3    H266122   0.755   0.623   4.401 -1.5746  2.3302  1.5388
14903TIP3   OH266123   3.824   3.150   2.915 -0.2776  0.4737  0.2408
14903TIP3    H166124   3.785   3.118   2.834 -1.6659 -0.8732  1.3715
14903TIP3    H266125   3.815   3.245   2.911 -1.9675  0.3226 -0.4100
14904TIP3   OH266126   0.570   1.146   5.739  0.0492  0.4370  0.6754
14904TIP3    H166127   0.507   1.218   5.736 -0.7134 -0.2426 -0.2845
14904TIP3    H266128   0.643   1.181   5.789 -1.0255  1.2939  1.7155
14905TIP3   OH266129   3.956   4.422   3.144  0.7521  0.2239  0.2773
14905TIP3    H166130   3.938   4.332   3.120 -1.0575  0.7977 -0.7027
14905TIP3    H266131   4.051   4.429   3.143  0.9030 -1.5395 -0.0825
14906TIP3   OH266132   4.921   5.462  11.649 -0.4801 -0.3701 -0.3807
14906TIP3    H166133   5.013   5.438  11.642  0.1274  1.9174 -1.1850
14906TIP3    H266134   4.894   5.479  11.558 -0.9284  1.4850  0.0700
14907TIP3   OH266135   5.326   4.906   3.567 -0.3826 -0.2572 -0.1768
14907TIP3    H166136   5.382   4.875   3.495  0.1503 -0.1860  0.1982
14907TIP3    H266137   5.382   4.899   3.645 -0.4409  1.1135  0.0012
14908TIP3   OH266138   6.061   5.223   4.959 -0.7158  0.1429  0.0253
14908TIP3    H166139   6.017   5.226   5.044 -1.7057  4.1299 -0.4152
14908TIP3    H266140   6.147   5.262   4.974  0.0414 -1.2783 -0.4330
14909TIP3   OH266141   0.487   2.438  16.091 -0.2881  0.2877 -0.4067
14909TIP3    H166142   0.408   2.435  16.144  0.4978 -1.7068  0.7558
14909TIP3    H266143   0.511   2.346  16.078  2.3834  0.8222  0.1446
14910TIP3   OH266144   2.425   6.070  16.605 -0.3529  0.0378 -0.1688
14910TIP3    H166145   2.400   6.048  16.695 -1.2249 -0.3617 -0.4980
14910TIP3    H266146   2.357   6.030  16.551 -0.2976  0.9779 -0.9599
14911TIP3   OH266147   2.899   2.918  11.206  0.0456  0.0514  0.4627
14911TIP3    H166148   2.927   3.004  11.175 -0.1297  0.3628  1.1449
14911TIP3    H266149   2.805   2.916  11.191  0.2740 -0.7220 -1.1763
14912TIP3   OH266150   4.927   3.581   1.733 -0.3306  0.1650 -0.2001
14912TIP3    H166151   5.009   3.623   1.706  0.4930 -0.4933  1.1265
14912TIP3    H266152   4.859   3.630   1.688  0.7121  1.5747 -0.3218
14913TIP3   OH266153   0.434   5.114   4.366 -0.9615 -0.6406  0.4029
14913TIP3    H166154   0.379   5.050   4.321 -0.3849 -0.5851 -0.3996
14913TIP3    H266155   0.523   5.082   4.353 -0.5666  0.9254 -1.0200
14914TIP3   OH266156   0.401   1.369  12.062  0.0222  0.1683  0.1096
14914TIP3    H166157   0.362   1.297  12.111 -0.5216  0.2354 -0.2171
14914TIP3    H266158   0.387   1.446  12.116 -1.9757  0.5210 -0.8063
14915TIP3   OH266159   2.382   4.924   3.004  0.0249  0.5407 -0.2712
14915TIP3    H166160   2.443   4.950   2.935 -0.1859  0.8708 -0.3397
14915TIP3    H266161   2.327   4.857   2.964  0.6170 -0.0711 -0.0748
14916TIP3   OH266162   6.216   4.316  17.208 -0.5269  0.0888 -0.3596
14916TIP3    H166163   6.244   4.390  17.263 -0.6048  0.4768 -0.8325
14916TIP3    H266164   6.229   4.347  17.118  1.6184 -1.3146 -0.5824
14917TIP3   OH266165   2.290   0.846  13.839 -0.0504 -0.1553  0.7149
14917TIP3    H166166   2.344   0.875  13.766 -0.7580 -0.8596 -0.1108
14917TIP3    H266167   2.202   0.836  13.802 -0.3341 -0.9418  1.5538
14918TIP3   OH266168   2.719   3.914   4.240 -0.2510 -0.0203  0.0652
14918TIP3    H166169   2.638   3.866   4.253  0.1829 -0.6641  0.4824
14918TIP3    H266170   2.766   3.865   4.172 -0.5200  0.7569 -0.6942
14919TIP3   OH266171   2.232   0.541  10.981 -0.4425 -0.2392  0.3385
14919TIP3    H166172   2.148   0.552  10.938 -0.3268 -1.2874 -0.1966
14919TIP3    H266173   2.283   0.618  10.955  0.1950 -1.5615 -2.8278
14920TIP3   OH266174   2.820   0.841   5.959 -0.3355  0.3626 -0.0662
14920TIP3    H166175   2.883   0.772   5.938 -1.7028 -0.9663  0.1244
14920TIP3    H266176   2.846   0.870   6.046 -0.1743 -0.4050  0.1512
14921TIP3   OH266177   2.515   1.588  15.167 -0.2451  0.2298 -0.2181
14921TIP3    H166178   2.515   1.496  15.192 -0.4552  0.5876  1.1448
14921TIP3    H266179   2.493   1.587  15.074 -2.1642 -1.0003  0.1870
14922TIP3   OH266180   1.152   0.815   0.624  0.5619 -0.6339  0.4382
14922TIP3    H166181   1.129   0.904   0.597  1.2407 -0.2894  0.9716
14922TIP3    H266182   1.211   0.783   0.556  0.8360 -0.4321  0.5792
14923TIP3   OH266183   5.925   3.784   1.630 -0.4758 -0.4655  0.5971
14923TIP3    H166184   5.853   3.802   1.689  0.1378  0.1233  1.1787
14923TIP3    H266185   5.887   3.728   1.562 -1.9080  1.2267 -0.0721
14924TIP3   OH266186   0.965   2.540   5.817 -0.3736 -0.1141 -0.0868
14924TIP3    H166187   0.920   2.553   5.900  2.3919  0.0987  1.4973
14924TIP3    H266188   1.035   2.478   5.837  1.4569  1.2675 -1.7810
14925TIP3   OH266189   3.883   6.402  12.078 -0.0110 -0.0666 -0.0456
14925TIP3    H166190   3.944   6.453  12.131  0.2420  1.1613 -1.4396
14925TIP3    H266191   3.936   6.371  12.004 -0.7322 -0.2479 -0.4960
14926TIP3   OH266192   0.643   0.350   4.024  0.5260 -0.1256  0.2739
14926TIP3    H166193   0.637   0.353   3.929 -2.2944  0.4866  0.3969
14926TIP3    H266194   0.715   0.410   4.045  0.9783 -0.0092 -1.4354
14927TIP3   OH266195   3.039   3.873   3.711  0.3796 -0.3808 -0.1371
14927TIP3    H166196   3.066   3.870   3.620 -1.8897  1.2713 -0.9377
14927TIP3    H266197   3.104   3.930   3.753 -0.3605  1.5214 -1.4614
14928TIP3   OH266198   3.197   0.611   1.821 -0.7926 -0.0395  0.3025
14928TIP3    H166199   3.142   0.540   1.855 -1.6485  1.0801  1.3548
14928TIP3    H266200   3.147   0.691   1.838  0.6623  0.9335  0.2619
14929TIP3   OH266201   4.611   3.539  13.996  0.1132  0.2917  0.2093
14929TIP3    H166202   4.556   3.501  14.065 -0.0249 -0.3969 -0.2638
14929TIP3    H266203   4.554   3.542  13.919  0.1556  1.3904  0.2132
14930TIP3   OH266204   4.633   4.846   1.929  0.2843 -0.3523 -0.0198
14930TIP3    H166205   4.546   4.831   1.893  1.5861 -1.5974 -2.8995
14930TIP3    H266206   4.627   4.813   2.019 -2.0718 -0.7571 -0.2424
14931TIP3   OH266207   5.651   6.446  12.388 -0.4011 -0.1079 -0.6364
14931TIP3    H166208   5.663   6.541  12.397 -1.3100  0.0494 -0.9630
14931TIP3    H266209   5.556   6.434  12.386 -0.2915 -0.9958 -0.9678
14932TIP3   OH266210   4.509   4.041   0.464  0.1073  0.3440  0.5172
14932TIP3    H166211   4.584   4.101   0.465  1.2801 -1.0684  1.6500
14932TIP3    H266212   4.493   4.024   0.371  0.6403  1.3183  0.2360
14933TIP3   OH266213   6.117   4.219  11.654 -0.0794  0.3388 -0.3299
14933TIP3    H166214   6.085   4.136  11.688 -0.1678 -0.4539 -2.2316
14933TIP3    H266215   6.206   4.227  11.689  0.0495 -0.7212 -0.3935
14934TIP3   OH266216   0.193   1.119   3.056  0.2995  0.0625  0.2598
14934TIP3    H166217   0.179   1.097   3.149 -0.7641 -2.1155 -0.3359
14934TIP3    H266218   0.259   1.056   3.026 -1.1551 -0.9546 -0.9923
14935TIP3   OH266219   6.513   1.457  16.779  0.1507 -0.0645 -0.3743
14935TIP3    H166220   6.488   1.468  16.688  1.5957 -1.9334 -1.0539
14935TIP3    H266221   6.442   1.404  16.817  0.0648 -0.1704 -0.6820
14936TIP3   OH266222   4.782   0.446  14.620 -0.0439 -0.1322  0.0780
14936TIP3    H166223   4.722   0.379  14.587 -0.2161  0.8359 -1.7317
14936TIP3    H266224   4.818   0.486  14.541  0.3042  1.6774  1.1010
14937TIP3   OH266225   1.287   4.844   2.666  0.2396 -0.4213  0.0146
14937TIP3    H166226   1.196   4.822   2.650  0.2707 -1.1993  0.8248
14937TIP3    H266227   1.329   4.838   2.580 -0.3167 -0.8158 -0.2325
14938TIP3   OH266228   0.909   1.772   1.623  0.5920 -0.1214 -0.5027
14938TIP3    H166229   0.874   1.734   1.704 -1.2938 -2.0996 -2.1248
14938TIP3    H266230   0.882   1.864   1.627 -2.5298 -0.9139 -0.3451
14939TIP3   OH266231   1.105   3.013  14.698  0.1505  0.1240 -0.1203
14939TIP3    H166232   1.040   2.945  14.678  0.0589 -0.0573  0.7623
14939TIP3    H266233   1.162   2.973  14.763  1.0388  0.3565 -0.7366
14940TIP3   OH266234   6.782   1.189  14.437  0.3199  0.4488 -0.2962
14940TIP3    H166235   6.813   1.209  14.349  2.3138  0.8398  0.4562
14940TIP3    H266236   6.761   1.096  14.434 -0.0383  0.5398 -1.2722
14941TIP3   OH266237   6.166   1.791  11.945  0.3851  0.2698  0.2222
14941TIP3    H166238   6.137   1.753  12.027  1.0966  1.3453  0.9950
14941TIP3    H266239   6.165   1.885  11.960 -0.0289  0.5240 -1.1947
14942TIP3   OH266240   4.989   2.680  10.901  0.4066  0.6065  0.7277
14942TIP3    H166241   4.958   2.770  10.893  0.4841  0.5502 -0.2892
14942TIP3    H266242   5.084   2.685  10.889  0.3444  0.3220  0.0778
14943TIP3   OH266243   2.856   4.767  12.879 -0.1412 -0.1815  0.2153
14943TIP3    H166244   2.912   4.692  12.861  1.4533  0.8583  0.6490
14943TIP3    H266245   2.774   4.729  12.911  0.3839 -1.7323 -0.2164
14944TIP3   OH266246   1.650   5.952  15.268 -0.2380 -0.1054  0.5734
14944TIP3    H166247   1.597   5.940  15.189 -1.3940  1.7574  1.0165
14944TIP3    H266248   1.740   5.940  15.237 -0.6885  0.2016 -0.9621
14945TIP3   OH266249   1.456   3.557   0.167 -0.1429  0.3919 -0.0883
14945TIP3    H166250   1.531   3.590   0.216 -0.2572 -0.4684  0.7001
14945TIP3    H266251   1.449   3.615   0.091  1.7704  0.0280 -0.5898
14946TIP3   OH266252   5.087   3.352  12.446 -0.4866 -0.9254 -0.7383
14946TIP3    H166253   5.074   3.399  12.528 -0.8328 -0.2394 -1.1774
14946TIP3    H266254   5.004   3.307  12.431  0.2338 -2.7208  0.3018
14947TIP3   OH266255   0.682   4.881   5.796  0.2912  0.1771 -0.0875
14947TIP3    H166256   0.600   4.899   5.749  0.8438 -0.8871 -1.5137
14947TIP3    H266257   0.705   4.965   5.835 -0.8506  0.7939 -0.6679
14948TIP3   OH266258   2.538   3.791  11.049  0.2700 -0.4897 -0.1193
14948TIP3    H166259   2.552   3.723  10.983  0.9071 -0.5643  0.0840
14948TIP3    H266260   2.569   3.752  11.131  3.1161  0.8775 -0.3946
14949TIP3   OH266261   5.446   4.688  17.112 -0.4742 -0.1735  0.0481
14949TIP3    H166262   5.536   4.692  17.081 -0.4475  2.4635  0.2682
14949TIP3    H266263   5.432   4.595  17.131  1.6604 -0.8915 -1.4463
14950TIP3   OH266264   0.649   6.378   5.533 -0.0500 -0.0608  0.0358
14950TIP3    H166265   0.682   6.301   5.580 -0.1013  0.6449  1.2769
14950TIP3    H266266   0.566   6.398   5.576  1.1388  2.1797  1.4700
14951TIP3   OH266267   6.597   3.781  10.570 -0.1046  0.7040  0.0684
14951TIP3    H166268   6.571   3.705  10.518 -1.1265 -0.0924  1.6926
14951TIP3    H266269   6.541   3.779  10.647  0.6676  2.4388  0.7377
14952TIP3   OH266270   1.837   4.224   3.272  0.0522  0.2348 -0.0662
14952TIP3    H166271   1.798   4.310   3.256  0.9309  0.5678 -0.4256
14952TIP3    H266272   1.780   4.185   3.339 -0.5870  0.9250 -0.1896
14953TIP3   OH266273   0.090   4.399   5.786 -0.4387  0.0552  0.0413
14953TIP3    H166274   0.013   4.415   5.731 -1.1322 -1.6508  0.4317
14953TIP3    H266275   0.122   4.486   5.809 -2.1457  0.8214 -0.2960
14954TIP3   OH266276   6.366   5.508  12.587  0.1558  0.3694 -0.6157
14954TIP3    H166277   6.349   5.449  12.514  1.2060  0.7314 -1.1725
14954TIP3    H266278   6.340   5.459  12.665  1.3282 -0.9841 -1.0391
14955TIP3   OH266279   4.752   4.782  13.199 -0.0291 -0.5628  0.8568
14955TIP3    H166280   4.763   4.793  13.294  0.4118 -1.2431  0.8952
14955TIP3    H266281   4.661   4.805  13.182 -0.0263 -0.1358  1.4009
14956TIP3   OH266282   2.326   3.188   2.445  0.2455 -0.0625 -0.3599
14956TIP3    H166283   2.355   3.225   2.529  0.6221  0.3177 -0.6550
14956TIP3    H266284   2.274   3.112   2.470  1.3805 -0.6802  0.1970
14957TIP3   OH266285   1.021   1.629  12.192 -0.2164 -0.0835  0.4574
14957TIP3    H166286   1.020   1.717  12.155 -0.0224  0.5406  1.8952
14957TIP3    H266287   1.095   1.585  12.148  0.3335  0.8048  0.4778
14958TIP3   OH266288   0.066   2.474   3.450  0.0695 -0.0631 -0.9221
14958TIP3    H166289   0.119   2.490   3.528  1.0852  1.9423 -1.9270
14958TIP3    H266290   0.110   2.524   3.381 -1.0322 -1.4178 -2.6897
14959TIP3   OH266291   2.761   0.040  11.598  0.4037  0.4338  0.1886
14959TIP3    H166292   2.669   0.021  11.616  0.1085  1.9225  0.3336
14959TIP3    H266293   2.791  -0.034  11.545 -1.3097  0.7181 -1.2485
14960TIP3   OH266294   0.912   4.302  13.193  0.5001  0.1618 -0.6625
14960TIP3    H166295   0.911   4.249  13.273 -1.3065  1.6519  0.4077
14960TIP3    H266296   0.936   4.241  13.124  0.9889 -1.4518  0.8513
14961TIP3   OH266297   4.102   0.790  12.574 -0.1528 -0.0132 -0.1329
14961TIP3    H166298   4.196   0.790  12.558 -0.0745  1.3762  0.2518
14961TIP3    H266299   4.063   0.807  12.488 -0.1617 -2.1263 -0.6136
14962TIP3   OH266300   0.672   4.164   5.998  0.2851  0.1670 -0.0419
14962TIP3    H166301   0.710   4.251   5.997 -0.3699  0.4562 -1.0213
14962TIP3    H266302   0.646   4.150   6.089 -0.0403  1.1894  0.0342
14963TIP3   OH266303   0.174   0.491  12.448 -0.3021 -0.3453  0.2339
14963TIP3    H166304   0.104   0.461  12.506  0.0201 -0.2675  0.6693
14963TIP3    H266305   0.194   0.416  12.393 -2.1072  0.2001 -1.2981
14964TIP3   OH266306   4.530   2.062   0.972 -1.1902  0.5203  0.2105
14964TIP3    H166307   4.559   1.971   0.976 -1.1512  0.3979 -2.0126
14964TIP3    H266308   4.437   2.056   0.949 -1.3228  1.0418  0.5960
14965TIP3   OH266309   3.278   5.822  17.012 -0.0093  0.7173  1.0925
14965TIP3    H166310   3.285   5.758  16.942  0.1982  1.4327  0.4479
14965TIP3    H266311   3.198   5.870  16.994  0.0783  0.9493  1.3106
14966TIP3   OH266312   5.047   3.331  15.770 -0.0508 -0.0560  0.1660
14966TIP3    H166313   5.091   3.249  15.744  0.8234  0.3598  0.2900
14966TIP3    H266314   5.031   3.321  15.863 -1.5833 -0.8132 -0.1397
14967TIP3   OH266315   0.789   4.512  17.052 -0.5300  0.0011 -0.6663
14967TIP3    H166316   0.712   4.456  17.046  0.0577 -0.7735 -1.2419
14967TIP3    H266317   0.783   4.553  17.138 -2.7282  1.6818 -1.5266
14968TIP3   OH266318   1.106   1.287   3.768  0.2126  0.0508  0.5353
14968TIP3    H166319   1.049   1.229   3.819 -1.2717  0.1144 -0.9628
14968TIP3    H266320   1.081   1.375   3.796 -0.0936  0.0650  0.2197
14969TIP3   OH266321   4.999   5.654  17.207 -0.0807  0.4497  0.6176
14969TIP3    H166322   5.003   5.575  17.262 -0.5871  0.9498  1.3966
14969TIP3    H266323   4.910   5.652  17.171 -0.6325  1.4436  1.8582
14970TIP3   OH266324   1.218   0.086   2.784  0.2015  0.0119 -0.1727
14970TIP3    H166325   1.210   0.017   2.718  0.1888 -1.1355  1.0123
14970TIP3    H266326   1.286   0.144   2.749  1.2657 -1.3879 -0.5132
14971TIP3   OH266327   1.003   3.781   5.364 -0.4120 -0.0500  0.3000
14971TIP3    H166328   0.994   3.688   5.341 -2.4203 -0.2116  1.5164
14971TIP3    H266329   0.917   3.819   5.344  0.0166  1.2968  0.9192
14972TIP3   OH266330   6.167   2.957   1.644 -0.0502  0.1412 -0.4756
14972TIP3    H166331   6.113   3.023   1.601 -0.4117 -1.1393 -2.0639
14972TIP3    H266332   6.133   2.952   1.733  0.8307  2.9833  0.1084
14973TIP3   OH266333   1.864   2.125   5.742  0.6889  0.2675  0.8635
14973TIP3    H166334   1.842   2.193   5.678 -0.7515  1.2040  2.2746
14973TIP3    H266335   1.839   2.043   5.700  1.6698  0.6445 -0.5388
14974TIP3   OH266336   5.457   6.146   4.343  0.2022  0.3677 -0.6538
14974TIP3    H166337   5.374   6.193   4.351  0.1745  0.4048 -1.1222
14974TIP3    H266338   5.503   6.190   4.272  0.2384 -0.2060 -0.9998
14975TIP3   OH266339   4.921   3.719   3.373 -0.1975  0.0767  0.4020
14975TIP3    H166340   4.956   3.784   3.435  1.1703  0.9177 -1.1697
14975TIP3    H266341   4.994   3.701   3.314 -0.9505 -1.9873  0.0244
14976TIP3   OH266342   2.649   0.950  11.030  0.0433  0.5354 -0.3535
14976TIP3    H166343   2.681   0.900  10.955 -1.4971  1.6535 -1.8330
14976TIP3    H266344   2.604   0.884  11.084  0.3221 -0.1176 -0.9004
14977TIP3   OH266345   1.627   1.562  14.538 -1.0673 -0.6539  0.3490
14977TIP3    H166346   1.703   1.509  14.562 -0.5189 -0.2298 -0.3951
14977TIP3    H266347   1.642   1.647  14.581 -0.4049 -0.1067 -0.9136
14978TIP3   OH266348   1.966   5.659  13.787 -0.6078  0.1434 -0.1723
14978TIP3    H166349   1.887   5.675  13.735  0.7194  3.1123 -1.5211
14978TIP3    H266350   1.950   5.705  13.869 -1.2041 -1.3850  0.6100
14979TIP3   OH266351   5.290   4.129   6.554 -0.0063  0.3423  0.1744
14979TIP3    H166352   5.316   4.121   6.646 -0.9234  1.3488  0.5426
14979TIP3    H266353   5.195   4.141   6.557  0.1121  1.7950 -0.8077
14980TIP3   OH266354   5.716   5.137   4.505 -0.0097  0.2770 -0.3497
14980TIP3    H166355   5.645   5.075   4.487 -0.1808  0.5615 -0.6833
14980TIP3    H266356   5.783   5.086   4.549 -0.6470  0.1186  0.4486
14981TIP3   OH266357   2.778   1.318   3.831  0.2363  0.1875  0.5579
14981TIP3    H166358   2.712   1.262   3.871  0.9532  0.3844  2.0635
14981TIP3    H266359   2.735   1.403   3.823 -0.1596 -0.0413  0.1691
14982TIP3   OH266360   4.090   3.135  12.875 -0.2646 -0.5146 -0.0120
14982TIP3    H166361   4.060   3.047  12.850 -2.2608 -0.3417  1.4679
14982TIP3    H266362   4.122   3.124  12.965  0.8560  0.0229 -0.3284
14983TIP3   OH266363   1.959   4.025   2.375  0.1972 -0.1221 -0.2424
14983TIP3    H166364   1.907   4.068   2.444  0.6959  0.2536 -0.0925
14983TIP3    H266365   1.961   3.933   2.399  1.5844  0.2116  1.0600
14984TIP3   OH266366   3.308   5.598   4.173  0.0175  0.7846 -0.2040
14984TIP3    H166367   3.399   5.576   4.154  0.2364  2.3688 -1.1569
14984TIP3    H266368   3.305   5.694   4.172 -1.4703  0.7883  0.7876
14985TIP3   OH266369   1.566   6.569   5.988 -0.0921  0.7573  0.1372
14985TIP3    H166370   1.594   6.481   5.963  1.4404  1.5209 -1.0054
14985TIP3    H266371   1.488   6.586   5.936  0.0432  0.3500 -0.2031
14986TIP3   OH266372   6.600   2.863   4.534  0.1504  0.7957  0.0352
14986TIP3    H166373   6.643   2.815   4.605 -0.5539  0.5636  0.3239
14986TIP3    H266374   6.556   2.936   4.579 -0.5033  0.5069 -0.1158
14987TIP3   OH266375   5.481   4.761  14.943 -0.5497  0.1894 -0.1170
14987TIP3    H166376   5.522   4.837  14.983  1.0451 -1.1088  0.7790
14987TIP3    H266377   5.459   4.791  14.854  1.2697  1.3029 -0.2505
14988TIP3   OH266378   3.236   5.357  13.586  0.8137 -0.3953 -0.2670
14988TIP3    H166379   3.307   5.318  13.534  0.0786 -0.4807 -1.2478
14988TIP3    H266380   3.211   5.435  13.536  1.2862  0.5403  0.9156
14989TIP3   OH266381   2.720   3.305  12.984  0.1861  0.0140 -0.0101
14989TIP3    H166382   2.770   3.253  13.047 -0.8974 -1.3673 -0.2667
14989TIP3    H266383   2.675   3.241  12.929 -0.9741  1.2111 -0.5072
14990TIP3   OH266384   6.441   4.295  13.513 -0.2746  0.2100 -0.6115
14990TIP3    H166385   6.493   4.245  13.449 -0.4229  0.4660 -0.9377
14990TIP3    H266386   6.350   4.269  13.495 -0.1525 -2.9235  2.2016
14991TIP3   OH266387   2.082   4.985   1.551  0.9919 -0.7330  0.4179
14991TIP3    H166388   2.030   4.918   1.594  0.3622 -0.1492  0.5806
14991TIP3    H266389   2.126   4.940   1.480 -1.6595 -0.7902 -1.3267
14992TIP3   OH266390   4.644   3.319   4.046 -0.2464  0.0778  0.2099
14992TIP3    H166391   4.685   3.304   4.132 -1.4826 -1.0116  0.6413
14992TIP3    H266392   4.589   3.396   4.059  0.0085  0.2618  0.2211
14993TIP3   OH266393   6.758   1.470   4.095 -0.3205 -0.7847  0.2395
14993TIP3    H166394   6.774   1.482   4.188 -0.2786 -2.3630  0.4612
14993TIP3    H266395   6.675   1.515   4.078  1.0069  1.9208  0.4173
14994TIP3   OH266396   3.201   1.566   2.943 -0.5229 -0.2561  0.5579
14994TIP3    H166397   3.192   1.504   2.871  0.0964 -0.6169  0.7837
14994TIP3    H266398   3.164   1.648   2.910 -2.8645 -1.1274  0.7894
14995TIP3   OH266399   5.605   1.122  11.739  0.0372 -0.2677 -0.1406
14995TIP3    H166400   5.570   1.125  11.828  0.8586  0.3803  0.1819
14995TIP3    H266401   5.630   1.213  11.720  1.5774 -0.6964 -0.3167
14996TIP3   OH266402   5.701   3.770  13.213 -0.2828  0.0365  0.0049
14996TIP3    H166403   5.679   3.833  13.145  1.1013 -0.9123 -1.4071
14996TIP3    H266404   5.676   3.685  13.176  0.1153 -0.4680  0.8538
14997TIP3   OH266405   1.437   5.248  12.793  0.2738  0.0185 -0.1976
14997TIP3    H166406   1.356   5.293  12.817  1.9129  2.0107  2.1740
14997TIP3    H266407   1.461   5.198  12.872  1.0400 -1.0450 -1.0700
14998TIP3   OH266408   0.618   1.099   1.238  0.7930  0.1905 -0.6212
14998TIP3    H166409   0.588   1.056   1.318 -0.3917  0.1857 -1.0468
14998TIP3    H266410   0.714   1.090   1.240  0.6851 -0.9239  0.1530
14999TIP3   OH266411   3.067   5.768   1.299 -0.4602 -0.2716  0.2352
14999TIP3    H166412   2.974   5.753   1.317 -0.4288  0.6347  1.1983
14999TIP3    H266413   3.106   5.784   1.384 -0.2105  3.5976 -0.4191
15000TIP3   OH266414   5.923   1.816   3.400 -0.1067 -0.4392  0.3492
15000TIP3    H166415   6.004   1.867   3.402  1.1066 -2.0338 -2.1230
15000TIP3    H266416   5.932   1.753   3.472  0.2263  0.2460  0.9137
15001TIP3   OH266417   5.667   6.105  15.603  0.2567  0.3957 -0.2542
15001TIP3    H166418   5.630   6.177  15.552 -0.0152  1.0299  0.7950
15001TIP3    H266419   5.729   6.062  15.544 -1.8335 -0.4594 -1.9653
15002TIP3   OH266420   2.614   2.960   3.685 -0.5273 -0.4585  0.5846
15002TIP3    H166421   2.599   3.047   3.649 -1.9063 -0.4108  1.1960
15002TIP3    H266422   2.527   2.930   3.712 -0.0070 -1.8211  0.8479
15003TIP3   OH266423   3.454   4.741   0.288 -0.5158  0.3261 -0.4452
15003TIP3    H166424   3.505   4.767   0.365 -0.5136  0.6242 -0.5474
15003TIP3    H266425   3.374   4.794   0.293  0.7265  2.5356 -2.1985
15004TIP3   OH266426   0.302   6.334  10.943  0.4811 -0.7220 -0.2079
15004TIP3    H166427   0.308   6.416  10.894  0.2035 -1.5244 -1.6489
15004TIP3    H266428   0.389   6.296  10.937 -0.3600 -2.5548 -3.3533
15005TIP3   OH266429   3.389   5.688   5.579 -0.3238 -0.5546 -0.1464
15005TIP3    H166430   3.308   5.643   5.555 -1.1618  0.5357  0.5406
15005TIP3    H266431   3.433   5.704   5.495  0.1315 -2.7934 -0.4141
15006TIP3   OH266432   3.326   3.321  14.265  0.7957  0.0420  0.2509
15006TIP3    H166433   3.253   3.317  14.326  2.0495  2.2628  2.0637
15006TIP3    H266434   3.374   3.239  14.280 -1.3039 -1.5227 -1.0941
15007TIP3   OH266435   0.298   0.685   1.663  0.2991 -0.2907 -0.1102
15007TIP3    H166436   0.225   0.742   1.641 -0.0232 -0.8664 -0.5593
15007TIP3    H266437   0.278   0.651   1.750 -0.4876 -1.2287 -0.6283
15008TIP3   OH266438   4.157   2.080  14.173  0.2359 -0.0797  0.1874
15008TIP3    H166439   4.210   2.159  14.178  0.5275 -0.2059 -0.7380
15008TIP3    H266440   4.067   2.110  14.187  0.2704  0.5213 -0.7605
15009TIP3   OH266441   2.499   1.122  10.886 -0.7870  0.0532 -0.2324
15009TIP3    H166442   2.469   1.196  10.939 -1.7175  0.2517 -1.0125
15009TIP3    H266443   2.526   1.056  10.950 -0.4158  0.8742  0.4718
15010TIP3   OH266444   0.841   2.721   2.670  0.0074 -0.2952  0.0925
15010TIP3    H166445   0.829   2.784   2.599  1.8620  0.1177  0.0882
15010TIP3    H266446   0.753   2.707   2.705 -0.4598  2.4041  0.1914
15011TIP3   OH266447   2.122   0.554   5.751 -0.4510 -0.2825  0.2277
15011TIP3    H166448   2.044   0.499   5.753 -0.8391  0.1739 -1.2483
15011TIP3    H266449   2.091   0.639   5.719  0.7567 -0.3282 -1.1961
15012TIP3   OH266450   6.467   1.867  11.857 -0.3384  0.0805 -0.2325
15012TIP3    H166451   6.417   1.788  11.875 -0.3141  0.2579  0.6905
15012TIP3    H266452   6.403   1.929  11.822 -0.4164 -0.2504 -0.6741
15013TIP3   OH266453   5.852   2.986  13.349  0.0818  0.3500  0.2288
15013TIP3    H166454   5.853   3.079  13.372 -0.0373  0.5104 -0.3855
15013TIP3    H266455   5.788   2.947  13.408 -0.1542  0.7288  0.2274
15014TIP3   OH266456   3.119   4.640  13.738  0.1571  0.5754 -0.0839
15014TIP3    H166457   3.118   4.665  13.831  1.2826  0.4050 -0.0067
15014TIP3    H266458   3.035   4.597  13.724 -0.6599  1.9348  0.4724
15015TIP3   OH266459   3.265   1.384  11.525  0.2291  0.7488 -0.1110
15015TIP3    H166460   3.231   1.391  11.436  0.4420  1.2219 -0.1541
15015TIP3    H266461   3.203   1.433  11.578  0.8457  1.6298 -0.1914
15016TIP3   OH266462   2.186   6.299  11.531 -0.0211  0.1403 -0.3104
15016TIP3    H166463   2.174   6.213  11.572  0.1469 -0.1140 -0.7963
15016TIP3    H266464   2.192   6.281  11.437  2.7878  0.3787 -0.2395
15017TIP3   OH266465   1.540   6.302  13.097 -0.4589 -0.6639 -0.4836
15017TIP3    H166466   1.512   6.228  13.150 -0.6825 -0.2192  0.0272
15017TIP3    H266467   1.636   6.294  13.093 -0.2840  0.0922  1.2240
15018TIP3   OH266468   5.628   2.135  12.010  0.3767 -0.4357 -0.1022
15018TIP3    H166469   5.692   2.064  12.005 -0.0855 -1.0567  1.9754
15018TIP3    H266470   5.556   2.099  12.062 -0.5301  1.0927 -0.2472
15019TIP3   OH266471   0.994   4.051  15.496 -0.3360  0.2876 -0.3566
15019TIP3    H166472   1.074   4.002  15.514  1.5525  3.0963 -0.5037
15019TIP3    H266473   0.992   4.058  15.400  0.7349  2.3725 -0.2791
15020TIP3   OH266474   1.535   1.322  13.447  0.0698  0.3452 -0.3992
15020TIP3    H166475   1.450   1.365  13.457 -0.2159  0.0092 -1.3081
15020TIP3    H266476   1.598   1.385  13.482 -0.6157  0.2577  1.0898
15021TIP3   OH266477   2.257   5.347  11.933  0.1784 -0.3325  0.0853
15021TIP3    H166478   2.276   5.431  11.974  0.0197 -1.1181  1.8667
15021TIP3    H266479   2.172   5.360  11.891  0.8320  0.8074 -0.9494
15022TIP3   OH266480   4.980   4.856  12.003 -0.1236 -0.2040 -0.6257
15022TIP3    H166481   5.013   4.937  11.964 -0.3309  1.6605  2.7006
15022TIP3    H266482   5.058   4.801  12.012  1.1129  1.6880  1.4778
15023TIP3   OH266483   4.383   4.454  13.966  0.2792 -0.1332 -0.2265
15023TIP3    H166484   4.400   4.491  13.879 -0.6466  0.5978 -0.1118
15023TIP3    H266485   4.298   4.492  13.992 -0.5312 -2.0394  0.0623
15024TIP3   OH266486   4.152   3.880   2.378  0.4671 -0.0223 -0.1173
15024TIP3    H166487   4.106   3.802   2.348  1.3704 -1.3184  1.7340
15024TIP3    H266488   4.245   3.859   2.367  0.7280  1.5493 -1.3401
15025TIP3   OH266489   5.658   0.038   2.609 -0.5817  0.1204  0.5615
15025TIP3    H166490   5.667   0.127   2.576 -1.9473 -0.9304 -3.1846
15025TIP3    H266491   5.729  -0.010   2.565 -1.5651 -1.1236  0.2885
15026TIP3   OH266492   5.069   0.680  16.352 -0.1202 -0.4544  0.0518
15026TIP3    H166493   5.059   0.775  16.360 -2.6443 -0.7366  1.3798
15026TIP3    H266494   5.111   0.652  16.434 -1.1340 -0.6494  0.5176
15027TIP3   OH266495   3.348   3.820   5.849  0.0148  0.7171  0.6712
15027TIP3    H166496   3.270   3.804   5.901 -2.3454  1.5344 -2.3619
15027TIP3    H266497   3.371   3.735   5.811  0.1235  0.6468  0.8887
15028TIP3   OH266498   3.416   1.223   5.564 -0.1302 -0.7473  0.4319
15028TIP3    H166499   3.418   1.280   5.641 -0.3089  1.6988 -1.2500
15028TIP3    H266500   3.507   1.195   5.553  0.3005  0.5824  0.3969
15029TIP3   OH266501   1.180   0.098  12.441 -0.2226  0.0962  0.3186
15029TIP3    H166502   1.231   0.178  12.454 -2.1681  1.0201  3.1387
15029TIP3    H266503   1.101   0.126  12.395 -0.4741 -0.3724  0.4527
15030TIP3   OH266504   1.950   1.480   1.175  0.0138  0.0363  0.3214
15030TIP3    H166505   1.962   1.402   1.122  0.7862 -0.4374  1.1570
15030TIP3    H266506   1.958   1.553   1.113  0.6213 -0.5085 -0.2494
15031TIP3   OH266507   3.193   4.724  12.996 -0.1133 -0.2829 -0.3509
15031TIP3    H166508   3.116   4.672  12.971 -1.1596  1.5392 -1.1457
15031TIP3    H266509   3.235   4.747  12.913  1.6965 -1.7637  0.1001
15032TIP3   OH266510   2.839   5.509   1.850 -0.1832 -0.6854  0.9212
15032TIP3    H166511   2.774   5.508   1.780  1.5984 -3.2159 -0.8661
15032TIP3    H266512   2.841   5.419   1.882  2.7769 -0.8644  0.4751
15033TIP3   OH266513   3.699   3.633   1.261  0.3548  0.4756  0.2728
15033TIP3    H166514   3.678   3.621   1.169  0.1033  0.4658  0.3297
15033TIP3    H266515   3.773   3.694   1.262 -0.2399  1.2116  0.1018
15034TIP3   OH266516   0.830   3.582   4.235 -0.6781 -0.1263  0.0456
15034TIP3    H166517   0.750   3.532   4.220 -1.1875  0.5533  0.4515
15034TIP3    H266518   0.814   3.666   4.192 -0.1329 -0.0284  0.0263
15035TIP3   OH266519   4.463   1.835   4.504  0.3389 -0.1236 -0.0680
15035TIP3    H166520   4.411   1.910   4.474  1.3024 -0.4429 -2.8092
15035TIP3    H266521   4.398   1.776   4.543 -1.1312  0.2781 -1.7470
15036TIP3   OH266522   3.877   3.792   0.448  0.0052  0.1295  0.1079
15036TIP3    H166523   3.861   3.787   0.354 -0.5854  0.1203  0.2012
15036TIP3    H266524   3.965   3.757   0.460 -1.0118 -2.7490 -0.1181
15037TIP3   OH266525   3.288   5.014  16.628 -0.5771 -0.3444 -0.1811
15037TIP3    H166526   3.365   4.957  16.629  0.5726  1.1185 -0.6532
15037TIP3    H266527   3.216   4.958  16.600  0.5435 -1.4887 -0.8628
15038TIP3   OH266528   5.250   0.091   1.890 -0.0820  0.0429 -0.6896
15038TIP3    H166529   5.196   0.170   1.892 -0.3074 -0.1061 -0.8700
15038TIP3    H266530   5.269   0.077   1.797  1.1484  0.6905 -0.5547
15039TIP3   OH266531   0.974   6.596  11.176 -0.2244 -0.3501 -0.0778
15039TIP3    H166532   1.020   6.626  11.098  0.8474 -0.8762  0.3383
15039TIP3    H266533   0.923   6.672  11.204  0.0224  0.0973 -0.8190
15040TIP3   OH266534   5.414   0.418  10.560 -0.7733 -0.6226 -0.0000
15040TIP3    H166535   5.489   0.436  10.617 -0.7582  1.9810 -0.6903
15040TIP3    H266536   5.448   0.358  10.494  1.1919  1.5449 -1.1039
15041TIP3   OH266537   1.626   2.265  11.732  0.4001  0.3705  0.0767
15041TIP3    H166538   1.643   2.239  11.641  1.6489 -1.8421  0.8637
15041TIP3    H266539   1.643   2.359  11.733  2.0031  0.1757 -1.6420
15042TIP3   OH266540   4.689   4.125   5.077  0.2397 -0.2257 -0.4325
15042TIP3    H166541   4.768   4.165   5.040  1.1820  0.9083  2.4834
15042TIP3    H266542   4.673   4.173   5.158 -2.8287 -1.1949 -0.3197
15043TIP3   OH266543   0.240   0.037  12.299 -0.1561  0.6069 -0.0363
15043TIP3    H166544   0.332   0.027  12.278 -0.2445 -0.3935  0.0076
15043TIP3    H266545   0.231   0.003  12.388 -0.4935  1.1130  0.1302
15044TIP3   OH266546   6.541   1.728   1.579 -0.3745  0.1318 -0.0609
15044TIP3    H166547   6.529   1.809   1.529 -0.6014  0.0096 -0.2051
15044TIP3    H266548   6.473   1.732   1.648 -0.3569  0.0852 -0.0409
15045TIP3   OH266549   4.555   5.657   4.344 -0.1178 -0.3809  0.0878
15045TIP3    H166550   4.464   5.673   4.319 -0.5116 -1.6145  0.6367
15045TIP3    H266551   4.585   5.739   4.382 -0.9756  0.0644 -0.1733
15046TIP3   OH266552   4.284   1.888  17.101 -0.3060  0.0614 -0.5889
15046TIP3    H166553   4.219   1.826  17.135 -0.9104  0.1297 -1.5865
15046TIP3    H266554   4.243   1.974  17.114  1.3447  0.5167  2.6645
15047TIP3   OH266555   4.199   5.401  14.432  0.7502 -0.1280 -0.0231
15047TIP3    H166556   4.182   5.324  14.487  1.5177  0.2242  0.7324
15047TIP3    H266557   4.125   5.404  14.372 -0.5844 -0.0394  1.5507
15048TIP3   OH266558   1.914   5.910  12.146 -0.3762  0.1304  0.3987
15048TIP3    H166559   1.912   5.897  12.052 -0.9864  0.1848  0.4020
15048TIP3    H266560   1.996   5.868  12.174  0.6753  1.5758 -0.3622
15049TIP3   OH266561   2.158   1.276   0.223 -0.5511 -0.3573 -0.0169
15049TIP3    H166562   2.246   1.287   0.189 -0.4057  0.1515  0.5012
15049TIP3    H266563   2.101   1.292   0.148 -0.2482  1.1297  0.0234
15050TIP3   OH266564   3.346   5.539   0.150 -0.2526 -0.0121  0.3509
15050TIP3    H166565   3.400   5.493   0.085 -0.3095 -1.3337  1.2123
15050TIP3    H266566   3.405   5.606   0.186 -0.1327  0.5541 -0.8343
15051TIP3   OH266567   2.181   4.353  11.926  0.1572 -0.0571  0.4209
15051TIP3    H166568   2.237   4.278  11.906  1.8021  1.3289 -0.3558
15051TIP3    H266569   2.202   4.376  12.016 -0.3373 -0.4993  0.6541
15052TIP3   OH266570   5.212   2.308   0.526 -0.1583 -0.0059 -0.0164
15052TIP3    H166571   5.158   2.239   0.488 -0.5512  0.4259 -0.2563
15052TIP3    H266572   5.242   2.359   0.451 -0.1520  0.2853  0.1807
15053TIP3   OH266573   4.963   5.311  13.309 -0.7328 -0.7669  0.0694
15053TIP3    H166574   5.042   5.286  13.262 -1.3838  0.7173 -1.9960
15053TIP3    H266575   4.892   5.266  13.263 -1.2941 -0.1080  0.2560
15054TIP3   OH266576   4.576   0.599  15.232  0.0074 -0.4314  0.3629
15054TIP3    H166577   4.619   0.541  15.293 -0.3134  0.1081  1.1169
15054TIP3    H266578   4.635   0.674  15.224  1.5144 -1.7426 -2.3002
15055TIP3   OH266579   0.421   5.080   3.675  0.0879  0.4212  0.6446
15055TIP3    H166580   0.414   5.051   3.585  2.5343 -0.6621  0.7406
15055TIP3    H266581   0.453   5.170   3.669 -2.3302  1.3435  0.4552
15056TIP3   OH266582   6.552   3.982   0.016 -0.2137 -0.2075  0.4073
15056TIP3    H166583   6.491   4.000  -0.055  0.9552 -1.0773 -0.8705
15056TIP3    H266584   6.552   4.061   0.069 -0.4831  0.7911 -1.0370
15057TIP3   OH266585   1.299   1.361   1.481  0.2040  0.6494 -0.2385
15057TIP3    H166586   1.223   1.365   1.538 -0.7977 -0.8578 -1.4068
15057TIP3    H266587   1.355   1.295   1.520 -0.2487 -0.0210 -0.7107
15058TIP3   OH266588   0.840   0.688  11.781 -0.3237 -0.3716 -0.7651
15058TIP3    H166589   0.753   0.649  11.789 -0.7819  0.8023  0.2334
15058TIP3    H266590   0.865   0.674  11.689 -1.9385  0.0483 -1.2920
15059TIP3   OH266591   0.244   5.836  16.016  0.0293  0.4689 -0.3632
15059TIP3    H166592   0.239   5.808  15.925  0.6462  2.6059 -1.1334
15059TIP3    H266593   0.317   5.786  16.053  0.9936  0.9232 -1.6030
15060TIP3   OH266594   3.107   5.151   4.197  0.0886  0.3570  0.0779
15060TIP3    H166595   3.035   5.215   4.202 -1.4862 -1.3465  0.1650
15060TIP3    H266596   3.077   5.086   4.134  2.2690  0.3752 -1.0957
15061TIP3   OH266597   2.521   4.595   0.284  0.2586 -0.3752  0.0067
15061TIP3    H166598   2.473   4.658   0.230 -0.3222 -0.9031 -0.1065
15061TIP3    H266599   2.608   4.632   0.292  0.3380 -0.2470 -1.2475
15062TIP3   OH266600   6.496   3.879  15.673 -0.2200 -0.2296  0.3567
15062TIP3    H166601   6.538   3.955  15.632 -0.3046  0.2479  1.1302
15062TIP3    H266602   6.559   3.849  15.739 -0.7515  0.0148  0.9894
15063TIP3   OH266603   3.989   5.591  13.047  0.1331  0.5125 -0.3025
15063TIP3    H166604   3.897   5.611  13.064 -0.0110 -1.9595  2.6354
15063TIP3    H266605   4.014   5.651  12.977 -3.6161  1.4233 -1.0606
15064TIP3   OH266606   2.859   1.656  12.005  0.3224 -0.0324  0.1229
15064TIP3    H166607   2.930   1.715  11.980  1.3729 -1.3257 -0.0518
15064TIP3    H266608   2.815   1.633  11.923 -0.5558  1.0409  0.2672
15065TIP3   OH266609   6.549   6.102  11.863  0.3566 -0.6389  0.8405
15065TIP3    H166610   6.557   6.048  11.784  0.6692  0.6318 -0.0198
15065TIP3    H266611   6.639   6.123  11.886  0.2092  0.6578  0.3333
15066TIP3   OH266612   3.182   2.063  10.743 -0.2904 -0.8880 -0.3031
15066TIP3    H166613   3.169   2.022  10.828 -2.8194  1.4462  0.5988
15066TIP3    H266614   3.238   2.139  10.761 -0.0339 -0.9311 -0.9040
15067TIP3   OH266615   5.199   0.208  12.751  0.5889  0.4167  0.1079
15067TIP3    H166616   5.202   0.136  12.687  0.1851 -0.9597  1.5748
15067TIP3    H266617   5.268   0.186  12.814  1.2032  1.9281  0.0029
15068TIP3   OH266618   1.470   5.530  14.665  0.1583 -0.4397 -0.2394
15068TIP3    H166619   1.496   5.577  14.586  1.3854 -0.7107 -0.0143
15068TIP3    H266620   1.545   5.474  14.686 -0.7569 -1.5467  0.2280
15069TIP3   OH266621   3.287   1.859  14.527  0.0596 -0.3645 -0.2656
15069TIP3    H166622   3.362   1.901  14.570 -1.5610  1.1597  1.2419
15069TIP3    H266623   3.320   1.834  14.441  2.4625 -0.3080  0.5583
15070TIP3   OH266624   2.099   2.496   1.744  0.0689 -0.6634 -0.6900
15070TIP3    H166625   2.070   2.539   1.664  2.7939  0.6603 -1.0837
15070TIP3    H266626   2.098   2.402   1.722 -0.8882 -0.4516 -1.6428
15071TIP3   OH266627   0.868   6.686   4.104  0.2941  0.1389  0.0815
15071TIP3    H166628   0.845   6.776   4.126 -0.1187  0.2685 -0.8675
15071TIP3    H266629   0.785   6.638   4.107  0.1433  0.2431 -1.5410
15072TIP3   OH266630   5.445   3.711   1.899 -0.2952 -0.2508  0.7363
15072TIP3    H166631   5.455   3.796   1.855  3.6161  0.1972  2.0799
15072TIP3    H266632   5.447   3.732   1.992  0.0318 -1.7391  1.0911
15073TIP3   OH266633   0.911   0.708   2.094 -0.3730  0.4154  0.3562
15073TIP3    H166634   0.933   0.639   2.157  0.5425  0.4488  0.0835
15073TIP3    H266635   0.968   0.692   2.019  0.4696  1.9524  0.6192
15074TIP3   OH266636   3.352   5.539  12.487 -0.0427 -0.2855 -0.1545
15074TIP3    H166637   3.436   5.503  12.516  0.9743  2.2517  0.2993
15074TIP3    H266638   3.369   5.573  12.399  0.0611  2.1894  0.7703
15075TIP3   OH266639   4.978   3.374   6.093 -0.0232 -0.2948  0.0528
15075TIP3    H166640   4.886   3.389   6.113  0.0680 -0.2820  0.4711
15075TIP3    H266641   4.982   3.284   6.061 -0.1425 -0.3794  0.2744
15076TIP3   OH266642   0.459   5.800  12.770  0.2724 -0.6709 -0.5438
15076TIP3    H166643   0.485   5.871  12.711  0.1117  0.4909  0.7066
15076TIP3    H266644   0.369   5.780  12.745  0.4855 -0.7924 -1.2356
15077TIP3   OH266645   1.145   2.415   1.983  0.0769 -0.2782  0.2303
15077TIP3    H166646   1.232   2.455   1.986  1.0652 -2.2224 -0.5141
15077TIP3    H266647   1.099   2.463   1.914  1.6504 -1.0863 -1.4924
15078TIP3   OH266648   3.921   1.358   2.667 -0.5713 -0.1628  0.0161
15078TIP3    H166649   3.902   1.448   2.693  1.4051 -0.1155  1.5597
15078TIP3    H266650   3.922   1.309   2.749  1.3824 -0.9658 -0.4359
15079TIP3   OH266651   4.919   4.901  15.529  0.6955  0.1817 -0.3663
15079TIP3    H166652   5.009   4.872  15.545  0.6346 -0.1454 -0.6089
15079TIP3    H266653   4.881   4.833  15.473 -0.2103 -0.4895  1.0280
15080TIP3   OH266654   4.324   4.906  15.491  0.4090 -0.1094  0.1112
15080TIP3    H166655   4.344   4.860  15.572 -1.2366  0.0730  0.6502
15080TIP3    H266656   4.271   4.981  15.517 -0.7946 -0.4559 -1.1670
15081TIP3   OH266657   1.661   1.425   5.747 -0.4245  0.0371  0.5589
15081TIP3    H166658   1.607   1.472   5.683 -0.1010 -0.1267  0.1678
15081TIP3    H266659   1.741   1.478   5.754 -0.7932  0.5181  1.4592
15082TIP3   OH266660   2.992   3.413  11.001 -0.6161  0.4604  0.4687
15082TIP3    H166661   3.063   3.387  10.942  0.1447  0.7434  1.2370
15082TIP3    H266662   2.973   3.504  10.978 -0.3860  0.5400  0.5858
15083TIP3   OH266663   1.046   4.962  13.499 -0.0435  0.1004 -0.2778
15083TIP3    H166664   1.034   4.868  13.509 -2.1150  0.3822  0.2746
15083TIP3    H266665   1.101   4.987  13.574  0.0474 -0.5873 -0.1098
15084TIP3   OH266666   3.899   4.054  10.720  0.7960  0.4751  0.2873
15084TIP3    H166667   3.868   3.991  10.656 -1.2050  1.2382  0.4552
15084TIP3    H266668   3.994   4.059  10.705  0.8256 -1.6465 -0.5047
15085TIP3   OH266669   1.988   0.850   3.774 -0.2359 -0.7056 -0.1539
15085TIP3    H166670   2.007   0.941   3.797 -1.3833 -0.4278 -0.2385
15085TIP3    H266671   2.014   0.800   3.852 -0.7130 -0.1649  0.3635
15086TIP3   OH266672   0.217   2.782  11.632 -0.0362  0.1674 -0.3769
15086TIP3    H166673   0.256   2.808  11.548  1.2547 -2.4531 -0.6956
15086TIP3    H266674   0.137   2.735  11.608  0.3452 -0.6042 -0.1927
15087TIP3   OH266675   2.350   2.138  13.175  0.0478  0.4024 -0.2738
15087TIP3    H166676   2.361   2.203  13.244  0.3649  0.6041 -0.5113
15087TIP3    H266677   2.276   2.084  13.204  0.0395  0.6205  0.1142
15088TIP3   OH266678   1.983   2.483   4.329 -0.1403 -0.1423  0.6010
15088TIP3    H166679   1.978   2.462   4.422  0.7732  2.1180  1.2265
15088TIP3    H266680   2.017   2.403   4.288 -3.0265 -2.1261  1.7430
15089TIP3   OH266681   2.448   0.461   1.071 -0.1821  0.2535  0.3218
15089TIP3    H166682   2.360   0.498   1.067 -0.1153  0.4386  0.5380
15089TIP3    H266683   2.448   0.392   1.004 -0.3410  0.5763 -0.0176
15090TIP3   OH266684   1.981   5.474   2.217  0.4563  0.1050  0.1035
15090TIP3    H166685   1.999   5.428   2.135 -0.1285  0.0257  0.0160
15090TIP3    H266686   2.058   5.457   2.271  0.1371 -1.2388  0.1846
15091TIP3   OH266687   2.394   3.756   1.652  0.3464 -0.4129  0.0208
15091TIP3    H166688   2.413   3.839   1.696 -1.7760  0.0587  0.1423
15091TIP3    H266689   2.455   3.693   1.692  0.9331  0.7436  1.0257
15092TIP3   OH266690   4.615   1.460  15.460 -0.1336 -0.2526 -0.2116
15092TIP3    H166691   4.605   1.393  15.528 -0.4616 -0.5068 -0.5094
15092TIP3    H266692   4.589   1.541  15.503 -0.9754 -0.5121 -0.2180
15093TIP3   OH266693   3.782   1.438  15.197 -0.2294 -0.6252  0.2400
15093TIP3    H166694   3.752   1.403  15.280  0.2871 -1.0111  0.2751
15093TIP3    H266695   3.709   1.488  15.163 -1.1550 -2.0724  0.0061
15094TIP3   OH266696   3.972   5.188  11.593 -0.1852 -0.3363 -0.2151
15094TIP3    H166697   3.892   5.228  11.628 -0.9028 -0.6896 -1.3776
15094TIP3    H266698   4.031   5.262  11.577 -0.3100 -0.0620  0.5463
15095TIP3   OH266699   5.240   4.886  17.144 -0.5342  0.0929 -0.0195
15095TIP3    H166700   5.286   4.826  17.204  0.4388 -0.4370 -1.2462
15095TIP3    H266701   5.201   4.952  17.201  1.9312  0.6845  1.1224
15096TIP3   OH266702   1.590   1.344   0.694 -0.2277  0.1922  0.2594
15096TIP3    H166703   1.602   1.304   0.780 -0.6727 -1.0620 -0.2457
15096TIP3    H266704   1.649   1.420   0.695  0.0196  0.0114  1.5397
15097TIP3   OH266705   4.911   4.431  11.638 -0.1559 -0.0696  0.3745
15097TIP3    H166706   4.922   4.518  11.600 -0.3095  0.0331  0.5601
15097TIP3    H266707   4.900   4.373  11.562 -1.9970  0.3481  0.2745
15098TIP3   OH266708   6.178   4.451   0.899  1.0163  0.0123 -0.0616
15098TIP3    H166709   6.219   4.508   0.834  0.2356  0.7030  0.0377
15098TIP3    H266710   6.225   4.368   0.891 -0.8282 -0.9174 -3.5039
15099TIP3   OH266711   2.482   2.268  14.767 -0.2264  0.0040 -0.0484
15099TIP3    H166712   2.518   2.309  14.689 -1.7428  0.8666 -0.3265
15099TIP3    H266713   2.387   2.279  14.759 -0.5618 -1.7390  0.8926
15100TIP3   OH266714   1.051   5.209   3.639 -0.4584  0.6169 -0.7224
15100TIP3    H166715   1.122   5.204   3.575 -1.8397  3.1817 -2.5965
15100TIP3    H266716   1.094   5.237   3.720  0.8998  0.3562 -1.3300
15101TIP3   OH266717   3.195   5.136   1.084  0.7574 -0.3065 -0.3835
15101TIP3    H166718   3.278   5.148   1.128  1.1812 -0.2764 -1.1697
15101TIP3    H266719   3.218   5.123   0.992 -0.0483 -1.0999 -0.4923
15102TIP3   OH266720   2.631   4.640   1.848  0.4679  0.1684 -0.1426
15102TIP3    H166721   2.618   4.553   1.886 -1.1397  0.9122  1.1661
15102TIP3    H266722   2.709   4.674   1.891  2.6058 -1.4912 -2.4653
15103TIP3   OH266723   4.851   4.728  13.456  0.0836  0.6422 -0.5248
15103TIP3    H166724   4.877   4.636  13.455 -1.4317  0.1755 -1.5275
15103TIP3    H266725   4.803   4.739  13.538 -1.6154 -0.0909 -1.3595
15104TIP3   OH266726   6.683   6.069  15.832 -0.9170  0.1482  0.3154
15104TIP3    H166727   6.756   6.127  15.853 -1.9125  1.2918  0.7709
15104TIP3    H266728   6.613   6.096  15.892 -0.9500 -2.5970  1.6679
15105TIP3   OH266729   3.860   4.842   3.152 -0.1913 -0.7919  0.0572
15105TIP3    H166730   3.804   4.773   3.188 -1.5050  0.4092  0.3981
15105TIP3    H266731   3.799   4.908   3.119  1.0061 -0.5407 -1.8199
15106TIP3   OH266732   2.971   5.365  12.319 -0.2433  0.5439 -0.5047
15106TIP3    H166733   2.911   5.291  12.320 -1.5883  1.5643 -1.5598
15106TIP3    H266734   2.953   5.412  12.400 -0.2738  0.3960 -0.4245
15107TIP3   OH266735   2.870   2.629  13.869 -0.8582  0.2637  0.5042
15107TIP3    H166736   2.920   2.656  13.792 -1.4540  0.3363  0.1313
15107TIP3    H266737   2.936   2.609  13.935 -0.1827 -1.9607 -0.7068
15108TIP3   OH266738   3.813   2.628   6.392 -0.0349 -0.0765  0.3771
15108TIP3    H166739   3.728   2.609   6.431 -1.1754 -0.0925 -1.9873
15108TIP3    H266740   3.861   2.546   6.398 -0.1580 -0.0718  1.7075
15109TIP3   OH266741   1.829   5.172   0.477 -0.0831  0.3993  0.0938
15109TIP3    H166742   1.924   5.174   0.470  0.1733 -3.6579 -0.2259
15109TIP3    H266743   1.798   5.165   0.387 -0.2537 -2.3291  0.2585
15110TIP3   OH266744   3.305   4.427   3.313 -0.1889 -0.2883  0.4524
15110TIP3    H166745   3.372   4.413   3.247 -0.9299  0.7688 -0.5697
15110TIP3    H266746   3.237   4.361   3.292 -1.2339  1.1702 -1.0091
15111TIP3   OH266747   2.869   1.191  12.166  0.0244  0.1119  0.4386
15111TIP3    H166748   2.812   1.268  12.165 -1.0663 -0.6249  2.0993
15111TIP3    H266749   2.949   1.219  12.121  0.1974  2.6291  2.1634
15112TIP3   OH266750   5.633   3.471   4.247  0.1641  0.3162 -0.0428
15112TIP3    H166751   5.674   3.391   4.279  1.0747 -0.2250 -2.3023
15112TIP3    H266752   5.593   3.445   4.164  0.3742  2.1534 -0.7644
15113TIP3   OH266753   1.548   3.748  13.444 -0.2547  0.0355 -0.2569
15113TIP3    H166754   1.564   3.783  13.356 -0.1345  1.0640  0.1624
15113TIP3    H266755   1.522   3.657  13.429  0.4045  0.0035 -1.3169
15114TIP3   OH266756   1.351   3.894   3.964  0.6913  0.3556  0.0840
15114TIP3    H166757   1.434   3.846   3.966  0.5860  0.1898  0.4692
15114TIP3    H266758   1.307   3.869   4.045  0.4363  0.7511  0.0668
15115TIP3   OH266759   4.733   2.655  15.512  0.2153 -1.0469 -0.3481
15115TIP3    H166760   4.642   2.679  15.493  0.3907  0.1954  0.2757
15115TIP3    H266761   4.730   2.619  15.601  0.5781  0.7908  0.4586
15116TIP3   OH266762   1.410   0.127   2.083  0.4430 -0.1097  0.3131
15116TIP3    H166763   1.317   0.121   2.104  0.1262 -1.6052 -1.2629
15116TIP3    H266764   1.454   0.092   2.161 -0.3534 -0.0898  0.7870
15117TIP3   OH266765   2.763   6.659  14.424 -0.3234  0.1437 -0.0419
15117TIP3    H166766   2.793   6.595  14.359  3.2252 -0.3262  1.8063
15117TIP3    H266767   2.830   6.727  14.423 -1.8506  1.7534  0.9848
15118TIP3   OH266768   4.343   1.456  12.542 -0.5785 -0.3920 -0.4350
15118TIP3    H166769   4.271   1.515  12.565  0.0025 -0.0170  0.4811
15118TIP3    H266770   4.303   1.370  12.539 -1.2932 -0.0560 -1.0748
15119TIP3   OH266771   4.538   2.552  13.798  0.2496  0.1957  0.7228
15119TIP3    H166772   4.545   2.635  13.751 -0.0090  0.1146  0.5391
15119TIP3    H266773   4.616   2.503  13.771  0.3504  0.3386  0.7526
15120TIP3   OH266774   3.476   2.212   0.719 -0.2594  0.6363  0.5180
15120TIP3    H166775   3.517   2.147   0.662  0.1496 -0.3253  1.8654
15120TIP3    H266776   3.482   2.294   0.670  5.2750  1.1144  1.3048
15121TIP3   OH266777   3.080   1.351  11.306  0.2677  1.0038  0.2043
15121TIP3    H166778   3.005   1.291  11.310  0.5619  0.6756  1.0891
15121TIP3    H266779   3.121   1.332  11.221 -1.1520  1.8267 -0.6919
15122TIP3   OH266780   3.237   0.934  15.862  0.5056 -0.6464  0.9736
15122TIP3    H166781   3.333   0.939  15.859  0.5343 -1.3641 -0.5538
15122TIP3    H266782   3.209   1.017  15.900  1.6729  0.3591 -0.2622
15123TIP3   OH266783   4.977   0.756   1.550  0.2290 -0.0700  0.2806
15123TIP3    H166784   4.959   0.729   1.640 -1.1701  2.5093  0.8875
15123TIP3    H266785   4.944   0.846   1.545  0.3211 -0.0949 -2.8073
15124TIP3   OH266786   4.557   0.213  13.386  0.1574 -0.0462  0.1648
15124TIP3    H166787   4.622   0.163  13.434  0.2497  1.7389  2.0663
15124TIP3    H266788   4.607   0.284  13.345 -0.4956  1.2736  1.5494
15125TIP3   OH266789   6.546   1.652  16.324 -0.1006 -0.3426 -0.4955
15125TIP3    H166790   6.579   1.707  16.252 -0.0244 -0.8931 -0.8835
15125TIP3    H266791   6.600   1.675  16.399 -0.2441  0.3113 -0.5829
15126TIP3   OH266792   3.286   1.090   3.511  0.7724  0.1666  0.8757
15126TIP3    H166793   3.274   1.017   3.572  0.2816 -0.6864 -0.1977
15126TIP3    H266794   3.366   1.069   3.464  0.6973  0.3765  0.6526
15127TIP3   OH266795   3.711   3.832  15.604  0.3943 -0.0419  0.6060
15127TIP3    H166796   3.715   3.926  15.590  0.6393 -0.3552 -1.8537
15127TIP3    H266797   3.623   3.817  15.640  1.0766  1.2713  3.0048
15128TIP3   OH266798   6.121   3.212  14.227 -0.3854 -0.1199  0.0592
15128TIP3    H166799   6.202   3.171  14.257  0.4528  2.2329  1.3088
15128TIP3    H266800   6.151   3.285  14.173 -1.6903  0.4433  0.0738
15129TIP3   OH266801   4.412   5.525  15.721  0.7437  0.6702 -0.4241
15129TIP3    H166802   4.423   5.569  15.805 -1.0452  0.8013 -0.2176
15129TIP3    H266803   4.353   5.582  15.671  2.3183  0.9412 -2.0610
15130TIP3   OH266804   3.912   6.090  16.752 -0.1288  0.7012  0.1525
15130TIP3    H166805   3.870   6.158  16.805 -3.4147 -0.1402 -1.1025
15130TIP3    H266806   3.926   6.017  16.813 -0.0658  1.1666  0.7007
15131TIP3   OH266807   3.503   6.714   0.810  0.2313 -0.1347 -0.4757
15131TIP3    H166808   3.569   6.752   0.868 -0.4843  0.0148  0.2551
15131TIP3    H266809   3.525   6.747   0.723  0.5433  0.6912 -0.0844
15132TIP3   OH266810   1.194   1.942   0.080  0.6523 -0.1043 -0.4083
15132TIP3    H166811   1.214   1.980   0.166 -1.0148  1.4752 -0.6574
15132TIP3    H266812   1.280   1.927   0.040  1.4272  0.8743  0.8109
15133TIP3   OH266813   2.664   3.700   3.185 -0.3824  0.4049  0.5104
15133TIP3    H166814   2.666   3.648   3.105 -1.6636  1.5584 -0.3160
15133TIP3    H266815   2.695   3.640   3.254 -1.3984 -1.3009 -0.4542
15134TIP3   OH266816   1.934   1.391  15.438  0.2399  0.0449  0.7483
15134TIP3    H166817   1.965   1.465  15.490 -1.0067  0.8108  0.4427
15134TIP3    H266818   1.989   1.317  15.465  2.0398  1.2341  0.4960
15135TIP3   OH266819   5.236   1.028   3.007  0.4096  0.3104  0.4305
15135TIP3    H166820   5.141   1.024   2.996  0.4209  1.7579 -0.3789
15135TIP3    H266821   5.251   1.105   3.060  1.0990 -0.4236  1.3212
15136TIP3   OH266822   2.904   2.933   5.196 -0.4882  0.1923 -0.3730
15136TIP3    H166823   2.858   2.872   5.139 -1.6452  0.1787  0.5348
15136TIP3    H266824   2.835   2.973   5.249  0.5536  0.0765  1.1283
15137TIP3   OH266825   3.270   2.028  16.588 -0.4171 -0.0477  0.5071
15137TIP3    H166826   3.181   2.058  16.575 -0.4321  0.3622  1.4828
15137TIP3    H266827   3.308   2.090  16.650  0.9902  0.6091 -0.9508
15138TIP3   OH266828   1.915   2.846   2.296  0.1910  0.4547 -0.4722
15138TIP3    H166829   1.947   2.829   2.207 -0.7780 -1.2258 -0.5500
15138TIP3    H266830   1.839   2.904   2.283  1.0635  1.6105 -0.5674
15139TIP3   OH266831   3.224   2.036   3.694 -0.4889  0.1523 -0.0346
15139TIP3    H166832   3.133   2.052   3.671 -0.2645  0.9227 -0.4072
15139TIP3    H266833   3.259   2.121   3.718  0.2963 -0.0243 -0.4940
15140TIP3   OH266834   1.228   5.884   5.374 -0.0763 -0.3412 -0.2094
15140TIP3    H166835   1.191   5.865   5.288  2.3504  0.6607 -1.5713
15140TIP3    H266836   1.322   5.889   5.359  0.2168  3.1871  1.8137
15141TIP3   OH266837   3.029   2.770   5.696 -0.0366 -0.1468 -0.6167
15141TIP3    H166838   3.108   2.803   5.738 -0.9577 -0.2863  1.3476
15141TIP3    H266839   2.959   2.828   5.729 -0.7979 -0.2048 -2.0744
15142TIP3   OH266840   1.215   0.680  16.925  0.3979 -0.3327 -0.0303
15142TIP3    H166841   1.249   0.592  16.938  1.0182 -0.2611 -1.0629
15142TIP3    H266842   1.215   0.720  17.012 -0.3887 -1.5125  0.5308
15143TIP3   OH266843   3.571   0.003   1.477 -0.1268 -0.5373 -0.8545
15143TIP3    H166844   3.542   0.092   1.455 -0.9272 -0.0628  1.7659
15143TIP3    H266845   3.509  -0.054   1.432 -0.5842  0.2831 -1.3001
15144TIP3   OH266846   1.822   1.533   1.709  0.7796 -0.5275 -0.4422
15144TIP3    H166847   1.822   1.584   1.790 -1.2417  1.9785 -1.8377
15144TIP3    H266848   1.786   1.448   1.734  0.9446 -0.0923  1.4272
15145TIP3   OH266849   3.089   6.478   2.402  0.5149  0.1750 -0.1724
15145TIP3    H166850   3.178   6.450   2.427 -0.1123 -1.2197  0.6305
15145TIP3    H266851   3.034   6.404   2.425 -0.7304  0.5597 -1.7307
15146TIP3   OH266852   4.377   6.285   5.705 -0.3399  0.2087 -0.0562
15146TIP3    H166853   4.450   6.253   5.652  0.3745  0.5243  0.7058
15146TIP3    H266854   4.312   6.215   5.701 -0.3823  0.2969 -1.4629
15147TIP3   OH266855   2.915   1.697  14.704 -0.2591  0.4339 -0.1441
15147TIP3    H166856   2.845   1.726  14.647  0.2461  1.2723 -0.3575
15147TIP3    H266857   2.941   1.776  14.752  0.4896  0.1267 -0.0274
15148TIP3   OH266858   4.983   1.344   0.146  0.0232 -0.0614  0.4655
15148TIP3    H166859   5.057   1.374   0.093 -0.6073  1.0309  0.1686
15148TIP3    H266860   5.020   1.278   0.204  1.2359  0.4733  0.3290
15149TIP3   OH266861   6.095   0.974  13.338  0.3978 -0.2811 -0.5234
15149TIP3    H166862   6.100   0.996  13.245  1.9838  1.2377 -0.1436
15149TIP3    H266863   6.127   0.884  13.343  0.2581 -0.3968 -1.4499
15150TIP3   OH266864   2.900   1.514   3.509 -1.1021 -0.4017 -0.2825
15150TIP3    H166865   2.916   1.539   3.600 -0.1492  2.6026 -1.1486
15150TIP3    H266866   2.814   1.551   3.488  0.4927  3.0146 -1.6982
15151TIP3   OH266867   0.023   3.218  16.213  0.3392  0.2511  0.0719
15151TIP3    H166868   0.042   3.192  16.123 -0.1554 -1.2363  0.3713
15151TIP3    H266869  -0.031   3.296  16.204 -2.7642 -1.8247 -1.1171
15152TIP3   OH266870   3.831   2.704  16.274 -0.2334 -0.4710  0.0248
15152TIP3    H166871   3.737   2.711  16.291 -0.5702  0.9085 -1.9982
15152TIP3    H266872   3.871   2.762  16.339 -0.7816 -1.0024  0.8516
15153TIP3   OH266873   3.831   2.246   5.984  0.3330  0.4934  0.1645
15153TIP3    H166874   3.828   2.236   6.079  0.1453  0.8880  0.2007
15153TIP3    H266875   3.847   2.340   5.970 -2.8442  1.0725 -0.2349
15154TIP3   OH266876   1.689   3.191   3.595 -0.3283 -0.5204  0.2063
15154TIP3    H166877   1.750   3.119   3.575 -0.5165 -0.7744  0.5361
15154TIP3    H266878   1.666   3.177   3.687 -1.9864 -1.2460 -0.2974
15155TIP3   OH266879   4.308   1.051  11.924 -0.3767  0.5407 -0.1780
15155TIP3    H166880   4.308   0.972  11.978 -0.0245  0.4503 -0.3015
15155TIP3    H266881   4.333   1.020  11.837 -0.1127  0.8029 -0.1993
15156TIP3   OH266882   0.570   0.182   2.568  0.3048 -0.4885  0.2570
15156TIP3    H166883   0.610   0.096   2.565  0.7285 -0.2699 -1.6538
15156TIP3    H266884   0.595   0.224   2.485 -1.0006  0.9576  0.5294
15157TIP3   OH266885   2.781   6.162   5.764 -0.2867  0.1091  0.1465
15157TIP3    H166886   2.779   6.166   5.860  2.2078  0.7059  0.2423
15157TIP3    H266887   2.833   6.084   5.745 -0.8093 -0.0288 -0.7438
15158TIP3   OH266888   6.069   0.657   1.384 -0.0006  0.0206  0.6524
15158TIP3    H166889   6.022   0.693   1.308 -0.6291  1.3414  1.6280
15158TIP3    H266890   6.107   0.733   1.426  1.1305 -0.8074  1.1641
15159TIP3   OH266891   1.608   5.716  12.969 -0.6242  0.3009 -0.1590
15159TIP3    H166892   1.674   5.750  13.029 -1.2091  2.8885 -0.8198
15159TIP3    H266893   1.629   5.624  12.959  2.4141  0.8466  0.2351
15160TIP3   OH266894   1.131   5.969   5.630  0.5983 -0.3382 -0.1146
15160TIP3    H166895   1.145   5.895   5.570  1.9299  0.2990 -0.6440
15160TIP3    H266896   1.217   5.985   5.669  0.0309  0.0975  1.0000
15161TIP3   OH266897   5.614   6.720  13.237 -0.2623  0.0519  0.0913
15161TIP3    H166898   5.628   6.668  13.316 -0.7068 -2.8517 -1.5794
15161TIP3    H266899   5.679   6.686  13.175 -0.6394  1.4912 -1.1557
15162TIP3   OH266900   5.713   1.731   0.720 -0.3046  0.2046 -0.3550
15162TIP3    H166901   5.752   1.801   0.667 -0.2652  1.6249  1.4352
15162TIP3    H266902   5.641   1.773   0.767  2.0095  0.2025  3.6839
15163TIP3   OH266903   6.380   0.577  14.513  0.0367 -0.0551  0.1660
15163TIP3    H166904   6.417   0.606  14.430 -2.1943  0.3632 -0.7459
15163TIP3    H266905   6.317   0.509  14.489  2.0786 -2.7664  1.8990
15164TIP3   OH266906   2.948   3.153   1.208  0.0938 -0.2205 -0.7541
15164TIP3    H166907   2.914   3.241   1.196  1.4762  0.5288  0.5954
15164TIP3    H266908   2.870   3.099   1.221 -0.7099  1.0341 -0.1968
15165TIP3   OH266909   6.782   5.281   4.797 -0.0499  0.4610 -0.4568
15165TIP3    H166910   6.817   5.206   4.749 -0.2613  0.5651 -0.7808
15165TIP3    H266911   6.799   5.356   4.740 -0.3084  0.5868 -0.3707
15166TIP3   OH266912   6.084   1.359  11.073  0.9091 -0.1932 -0.5163
15166TIP3    H166913   6.152   1.405  11.023  0.9690  0.4235  0.1178
15166TIP3    H266914   6.021   1.330  11.007  1.1081  0.4007 -0.9769
15167TIP3   OH266915   6.293   4.170   6.378 -0.0784 -0.3470  0.4009
15167TIP3    H166916   6.370   4.123   6.409 -1.3864 -2.4636  0.6862
15167TIP3    H266917   6.219   4.125   6.419 -1.5169  1.2916 -0.2310
15168TIP3   OH266918   5.552   5.156   2.043 -0.1881 -0.5085  0.4889
15168TIP3    H166919   5.647   5.166   2.049  0.0416  0.2076 -2.6658
15168TIP3    H266920   5.517   5.237   2.080  0.6113  0.6681 -1.2457
15169TIP3   OH266921   0.987   6.317  10.739 -0.6097 -0.0497  0.1720
15169TIP3    H166922   1.008   6.313  10.646 -0.0566  0.1521  0.2850
15169TIP3    H266923   1.027   6.238  10.776 -0.8697 -0.1546  0.2293
15170TIP3   OH266924   5.286   1.408   0.302 -0.2202  0.4920  0.3225
15170TIP3    H166925   5.233   1.474   0.347 -0.5956 -0.6285  1.6027
15170TIP3    H266926   5.355   1.386   0.365 -1.2303 -1.7037  0.7665
15171TIP3   OH266927   5.369   3.353   5.203 -0.3383 -0.1793 -1.2647
15171TIP3    H166928   5.286   3.373   5.159 -0.1068 -0.7360 -1.9759
15171TIP3    H266929   5.380   3.259   5.190 -0.4641 -0.4506  0.3509
15172TIP3   OH266930   5.498   0.135  16.418 -0.0119 -0.7571 -0.2540
15172TIP3    H166931   5.500   0.199  16.347  1.1828  2.9319  2.7810
15172TIP3    H266932   5.585   0.095  16.418 -0.3889 -1.6473 -1.4495
15173TIP3   OH266933   0.545   1.565   4.567 -0.1842 -0.2886  0.2777
15173TIP3    H166934   0.569   1.551   4.475 -2.0258 -1.8209 -0.0302
15173TIP3    H266935   0.629   1.569   4.613  0.7516 -1.1099 -1.2535
15174TIP3   OH266936   0.352   4.274   4.640 -0.0142 -0.4167 -0.0665
15174TIP3    H166937   0.297   4.352   4.642  1.3645  0.5838  0.4185
15174TIP3    H266938   0.293   4.202   4.662 -1.5734  0.2968 -1.6931
15175TIP3   OH266939   0.335   4.868   2.645 -0.5187 -0.5724 -0.1885
15175TIP3    H166940   0.393   4.928   2.691 -1.1520  0.5875 -0.8610
15175TIP3    H266941   0.394   4.803   2.606  0.0788 -1.1434  1.5734
15176TIP3   OH266942   6.049   1.172  11.858  0.4775 -0.6160  0.5197
15176TIP3    H166943   6.140   1.155  11.835  1.5089  3.0756  1.1402
15176TIP3    H266944   6.019   1.238  11.795 -2.3327 -2.7122 -0.5470
15177TIP3   OH266945   2.201   1.680   5.128 -0.0447 -0.7283 -1.1299
15177TIP3    H166946   2.255   1.712   5.200 -0.0849  0.2780 -1.5210
15177TIP3    H266947   2.260   1.624   5.077 -0.0180 -1.4473 -0.3280
15178TIP3   OH266948   6.460   5.786   1.564  0.0712 -0.0656 -0.0826
15178TIP3    H166949   6.375   5.816   1.532 -0.2793 -1.1895 -0.2518
15178TIP3    H266950   6.500   5.864   1.602 -1.6496  0.1971  1.3218
15179TIP3   OH266951   0.789   4.676  12.823  0.1569 -0.1065  0.4936
15179TIP3    H166952   0.835   4.743  12.874 -0.4168 -0.6441  1.7658
15179TIP3    H266953   0.784   4.600  12.882 -0.0651 -0.9446 -0.5637
15180TIP3   OH266954   4.333   2.452  13.418 -0.0496 -0.0519  0.5676
15180TIP3    H166955   4.355   2.490  13.333 -0.7293  1.7265  1.1378
15180TIP3    H266956   4.242   2.478  13.433  0.5016  0.9091  2.4665
15181TIP3   OH266957   5.292   2.380  11.876  0.6861 -0.2100  0.0245
15181TIP3    H166958   5.384   2.392  11.851  0.8669 -0.4822  0.5519
15181TIP3    H266959   5.272   2.290  11.852  0.4169 -0.0179 -0.5032
15182TIP3   OH266960   1.084   1.030   4.755  0.6416  0.3226 -0.1298
15182TIP3    H166961   1.059   0.946   4.794  0.5315 -0.7238 -2.2739
15182TIP3    H266962   1.177   1.039   4.774  0.7387 -0.4768 -0.2013
15183TIP3   OH266963   3.933   4.956  11.245 -0.6142 -0.1583 -0.0626
15183TIP3    H166964   3.947   4.989  11.156 -1.7957  1.8012  0.4150
15183TIP3    H266965   3.974   5.021  11.301 -0.6761 -0.9030  0.8739
15184TIP3   OH266966   3.640   0.137   2.435  0.3982 -0.0651  0.5198
15184TIP3    H166967   3.606   0.125   2.524  0.3993  0.6720  0.6232
15184TIP3    H266968   3.574   0.097   2.378 -0.2081  0.5634  0.7754
15185TIP3   OH266969   1.493   4.656  14.457 -0.5894 -0.0490  0.0284
15185TIP3    H166970   1.407   4.686  14.487 -0.5506 -0.2849  0.3848
15185TIP3    H266971   1.532   4.733  14.416 -1.7435 -0.4270 -1.9145
15186TIP3   OH266972   0.489   0.781   3.902 -0.3500  0.3512 -0.0662
15186TIP3    H166973   0.517   0.726   3.829 -1.3690  0.4813 -0.5805
15186TIP3    H266974   0.518   0.869   3.878 -1.2017  0.4962 -0.6259
15187TIP3   OH266975   3.309   2.887  13.703  0.1153  0.1679  0.3892
15187TIP3    H166976   3.319   2.882  13.798  1.5281  1.8455  0.3728
15187TIP3    H266977   3.378   2.831  13.668 -0.2612 -0.2680  0.3257
15188TIP3   OH266978   3.844   3.460  11.414 -0.0633 -0.3794  0.2859
15188TIP3    H166979   3.808   3.470  11.326  0.0529 -0.3122  0.2465
15188TIP3    H266980   3.768   3.437  11.468 -0.6470  2.2248  0.6993
15189TIP3   OH266981   6.043   4.844   1.333  0.5083  0.0714 -0.0061
15189TIP3    H166982   6.119   4.902   1.331  1.4027 -1.0573  0.1049
15189TIP3    H266983   6.055   4.786   1.258  0.2333 -0.7113  0.5422
15190TIP3   OH266984   3.204   0.862   2.136 -0.5597  0.4522 -0.2468
15190TIP3    H166985   3.148   0.799   2.182  0.6151 -1.2500 -1.0123
15190TIP3    H266986   3.214   0.935   2.197  0.6760 -1.5603  2.1597
15191TIP3   OH266987   1.683   1.715  12.145  0.1537  0.0682  0.2801
15191TIP3    H166988   1.683   1.810  12.158 -1.6777 -0.1492  2.6349
15191TIP3    H266989   1.709   1.680  12.230  0.6114 -1.5576 -0.5034
15192TIP3   OH266990   5.844   4.283  14.961 -0.1655  0.0189  0.1472
15192TIP3    H166991   5.831   4.332  14.880  2.2833 -1.2918 -1.1413
15192TIP3    H266992   5.815   4.194  14.939 -0.7583 -0.0559  1.1751
15193TIP3   OH266993   1.119   1.192   1.128  0.3476 -0.0723  0.2755
15193TIP3    H166994   1.062   1.183   1.205  1.7008 -1.2267  1.1893
15193TIP3    H266995   1.160   1.278   1.139 -0.5131  0.3780  0.0787
15194TIP3   OH266996   4.033   2.018   0.391 -0.6895 -0.8296  0.0504
15194TIP3    H166997   4.088   1.954   0.437 -1.1179 -1.5912 -0.4787
15194TIP3    H266998   4.087   2.048   0.318  1.3229  2.8192  2.6739
15195TIP3   OH266999   5.335   0.621   4.778 -0.0521  0.8733  0.2401
15195TIP3    H167000   5.410   0.680   4.780  0.6900 -0.0640  1.3957
15195TIP3    H267001   5.343   0.569   4.859 -1.6674  0.4150  0.1423
15196TIP3   OH267002   2.128   0.716   0.239  0.1962 -0.1122  0.3927
15196TIP3    H167003   2.103   0.779   0.307 -0.4926 -0.7001  0.6995
15196TIP3    H267004   2.045   0.684   0.205  0.5356  0.1417 -0.7117
15197TIP3   OH267005   4.824   2.204  14.386 -0.5505 -0.5346  0.3326
15197TIP3    H167006   4.904   2.208  14.334 -1.3523  1.7595 -0.8944
15197TIP3    H267007   4.757   2.176  14.323 -0.8614 -1.6399  1.1420
15198TIP3   OH267008   0.273   4.566   0.569  0.9235  0.2706  0.6198
15198TIP3    H167009   0.269   4.513   0.648 -0.8405 -0.4652  0.0719
15198TIP3    H267010   0.307   4.651   0.599 -0.9505  0.4465  2.4291
15199TIP3   OH267011   0.426   5.398  17.168  0.1343 -0.0914 -0.1060
15199TIP3    H167012   0.437   5.340  17.092  0.7040 -1.0639  0.7035
15199TIP3    H267013   0.511   5.397  17.212 -0.5946 -0.6704  1.3332
15200TIP3   OH267014   5.860   3.314  11.915 -0.2449 -0.1164 -0.4248
15200TIP3    H167015   5.882   3.299  12.007 -1.4338 -0.2273 -0.1420
15200TIP3    H267016   5.770   3.348  11.917 -0.6337 -1.0195 -1.6023
15201TIP3   OH267017   1.147   0.592  14.096 -0.4198 -0.0795 -0.9566
15201TIP3    H167018   1.185   0.540  14.025  2.0502 -0.9987  0.8925
15201TIP3    H267019   1.218   0.648  14.126 -0.5332 -1.4010  2.2607
15202TIP3   OH267020   4.547   6.602   4.406 -0.3567  0.4836 -0.5361
15202TIP3    H167021   4.468   6.649   4.376 -0.8408  0.8717  1.2474
15202TIP3    H267022   4.516   6.514   4.426 -0.2496  0.5236 -0.1976
15203TIP3   OH267023   3.588   4.063  12.920 -0.2990  0.2544 -0.8956
15203TIP3    H167024   3.666   4.063  12.976  0.5358 -0.4246 -2.0161
15203TIP3    H267025   3.533   4.132  12.956 -0.0958 -0.6016  1.1588
15204TIP3   OH267026   0.523   4.076  15.106 -0.3287 -0.1356  0.2874
15204TIP3    H167027   0.472   4.072  15.187  1.1232 -1.1645  1.1865
15204TIP3    H267028   0.504   3.993  15.062 -2.2430  0.9921 -1.2162
15205TIP3   OH267029   0.756   5.357   5.244 -0.6797  0.0468 -0.0887
15205TIP3    H167030   0.748   5.436   5.191  1.7926 -1.1327 -2.5196
15205TIP3    H267031   0.808   5.384   5.320 -0.0776  0.8409 -0.7650
15206TIP3   OH267032   6.563   3.612   5.549  0.1854 -0.4944 -0.5515
15206TIP3    H167033   6.533   3.597   5.638  3.2514 -2.9552  0.2644
15206TIP3    H267034   6.566   3.707   5.541  3.1597  0.0140  3.4115
15207TIP3   OH267035   4.050   3.249   3.847  0.7160  0.7773 -0.7190
15207TIP3    H167036   4.105   3.311   3.895 -0.4583  0.7112  0.8070
15207TIP3    H267037   3.978   3.302   3.813 -1.1297  0.1544  1.8865
15208TIP3   OH267038   2.001   1.591   2.870  0.4333 -0.7427  0.7067
15208TIP3    H167039   2.072   1.654   2.885  0.0406 -0.4376  1.3318
15208TIP3    H267040   1.970   1.568   2.958 -0.5584 -0.5015  0.4339
15209TIP3   OH267041   3.293   0.597  14.191  0.5254  0.7087  0.0609
15209TIP3    H167042   3.284   0.523  14.132  0.5609  0.4548  0.3666
15209TIP3    H267043   3.376   0.581  14.236  0.3463  0.7288  0.4033
15210TIP3   OH267044   6.043   1.699  13.965 -0.1048 -0.3397  0.7187
15210TIP3    H167045   6.067   1.670  14.053  0.7394  0.1032  0.6520
15210TIP3    H267046   5.948   1.710  13.967 -0.1375 -0.7284  1.4488
15211TIP3   OH267047   5.349   0.144   2.401  0.1033 -0.4049 -0.6350
15211TIP3    H167048   5.322   0.174   2.314  0.3744 -1.2442 -1.0191
15211TIP3    H267049   5.271   0.155   2.455  0.2117  1.0418 -0.7340
15212TIP3   OH267050   4.160   0.661   2.931 -0.6977 -0.2465  0.0125
15212TIP3    H167051   4.191   0.726   2.994 -1.0239  1.1643 -1.2160
15212TIP3    H267052   4.240   0.618   2.900 -0.3393  0.5251 -0.1556
15213TIP3   OH267053   5.031   1.600  11.097  0.2189 -0.0031  0.3433
15213TIP3    H167054   5.076   1.521  11.068  1.6134  0.9048 -0.0758
15213TIP3    H267055   4.964   1.615  11.030  0.3583 -0.4660  0.0931
15214TIP3   OH267056   4.330   4.862   2.906  0.8264 -0.1697  0.2181
15214TIP3    H167057   4.249   4.877   2.954 -0.5616 -1.1595 -1.6751
15214TIP3    H267058   4.311   4.890   2.816  2.6879 -0.1400 -0.2095
15215TIP3   OH267059   4.496   5.172   4.657  0.1400  0.1087 -0.1968
15215TIP3    H167060   4.561   5.183   4.588  0.1496 -1.0237 -0.3872
15215TIP3    H267061   4.548   5.159   4.736  0.1301  1.5509  0.0761
15216TIP3   OH267062   5.635   2.915   4.285 -0.5252  0.1877 -0.4954
15216TIP3    H167063   5.622   2.862   4.363  0.1236  1.0665  0.2218
15216TIP3    H267064   5.723   2.892   4.254  0.4932  2.0723  0.8258
15217TIP3   OH267065   1.301   4.965   5.714 -0.4098 -0.0490 -0.4884
15217TIP3    H167066   1.392   4.940   5.733 -0.5533 -0.4554 -0.3276
15217TIP3    H267067   1.252   4.883   5.719 -0.9131  0.2820  0.1974
15218TIP3   OH267068   4.681   3.827  11.560 -0.6140  0.5691 -0.1331
15218TIP3    H167069   4.649   3.788  11.641 -1.5935 -0.1507 -0.8441
15218TIP3    H267070   4.767   3.862  11.583 -0.8328  0.2995  1.1882
15219TIP3   OH267071   4.919   4.568  14.165 -1.0327 -0.2823 -0.5594
15219TIP3    H167072   4.852   4.589  14.229 -0.3875 -0.7941  0.2948
15219TIP3    H267073   4.997   4.546  14.216  0.3271  1.9267 -1.5238
15220TIP3   OH267074   5.064   4.761  14.379  0.5627  0.1640 -0.1331
15220TIP3    H167075   5.112   4.681  14.357 -0.2848 -0.1855 -0.7323
15220TIP3    H267076   5.127   4.832  14.364  0.7467 -0.2540 -1.3720
15221TIP3   OH267077   3.268   1.944  12.222  0.2462  0.5839 -0.4768
15221TIP3    H167078   3.336   1.989  12.172 -0.1576 -1.7790 -3.4191
15221TIP3    H267079   3.228   1.883  12.159  0.0652 -3.1258  2.8832
15222TIP3   OH267080   2.135   4.834  12.061 -0.5927 -0.0919  0.2077
15222TIP3    H167081   2.066   4.872  12.115 -1.1712 -0.0256 -0.5622
15222TIP3    H267082   2.119   4.739  12.065 -0.5034 -0.1035  0.3153
15223TIP3   OH267083   6.237   5.722   0.637  0.5665  0.4350 -0.4997
15223TIP3    H167084   6.239   5.772   0.718  1.0471 -2.2462  1.2860
15223TIP3    H267085   6.289   5.774   0.575  1.8990  1.6410  1.5136
15224TIP3   OH267086   2.941   4.684  11.080 -0.3132 -0.0560  0.3815
15224TIP3    H167087   3.000   4.666  11.007  1.5849  1.3862  1.4673
15224TIP3    H267088   2.876   4.613  11.076  1.2769 -1.5360 -1.0805
15225TIP3   OH267089   2.478   0.012  13.302 -0.3223 -0.5232  0.5061
15225TIP3    H167090   2.424   0.060  13.366 -0.4843 -0.3820  0.2645
15225TIP3    H267091   2.566   0.048  13.313 -0.3329 -0.5542  0.7034
15226TIP3   OH267092   1.990   0.514  12.082 -0.2286  0.2814 -0.0680
15226TIP3    H167093   2.062   0.489  12.140  2.0143  1.1116 -2.3044
15226TIP3    H267094   1.959   0.597  12.116 -0.0420 -0.0114  0.8397
15227TIP3   OH267095   1.932   2.370  16.498 -0.0455  0.4539  0.0286
15227TIP3    H167096   2.000   2.395  16.435  0.5920  2.2007  1.3392
15227TIP3    H267097   1.921   2.276  16.485  1.1646  0.4908 -1.6156
15228TIP3   OH267098   3.861   2.514  13.846 -0.1717  0.2657  0.3280
15228TIP3    H167099   3.871   2.499  13.940  0.6819  2.6120  0.6731
15228TIP3    H267100   3.927   2.579  13.825  0.7696 -1.4000 -2.2840
15229TIP3   OH267101   1.357   3.494   1.498 -0.0600 -0.4344 -0.2218
15229TIP3    H167102   1.450   3.474   1.505 -0.3307 -1.0994  3.0098
15229TIP3    H267103   1.313   3.410   1.515 -1.2593  0.0623 -0.7424
15230TIP3   OH267104   5.972   0.383  14.556  0.5244 -0.1830  0.4478
15230TIP3    H167105   6.051   0.401  14.505  0.0351 -0.7637 -0.5447
15230TIP3    H267106   5.952   0.291  14.538 -0.8294  0.1764  0.0122
15231TIP3   OH267107   1.258   1.440  16.978 -0.0714  0.3226 -0.7126
15231TIP3    H167108   1.349   1.463  16.960  0.0181  0.6204  0.0905
15231TIP3    H267109   1.261   1.394  17.062 -0.7417  0.8838 -0.3766
15232TIP3   OH267110   3.065   0.795  16.986 -0.2464 -0.8242  0.3696
15232TIP3    H167111   3.136   0.860  16.986  0.5355 -1.6562 -0.2099
15232TIP3    H267112   2.985   0.847  16.997 -0.0629  0.7143 -3.8043
15233TIP3   OH267113   5.566   5.258  12.935 -0.2602 -0.8334  0.4012
15233TIP3    H167114   5.514   5.179  12.950 -1.6997 -0.3039 -1.4919
15233TIP3    H267115   5.653   5.225  12.913 -0.8214 -1.9136 -0.3229
15234TIP3   OH267116   5.850   4.467   0.882 -0.0858 -0.1320 -0.3258
15234TIP3    H167117   5.801   4.446   0.803  0.2462 -0.0185 -0.5612
15234TIP3    H267118   5.886   4.384   0.911 -2.2101 -0.6435  1.0827
15235TIP3   OH267119   2.101   2.553  14.185  0.4111  0.8236 -0.0209
15235TIP3    H167120   2.104   2.458  14.187 -0.1115  0.8178  0.7092
15235TIP3    H267121   2.164   2.581  14.251  0.8700  0.9968 -0.5237
15236TIP3   OH267122   0.670   5.038  14.165 -0.3328 -0.5579  0.1638
15236TIP3    H167123   0.628   5.045  14.251  1.5885  2.2245  1.0253
15236TIP3    H267124   0.618   5.094  14.108 -0.3194 -0.6170  0.0935
15237TIP3   OH267125   4.736   1.079   4.637 -0.5805 -0.1887  0.3434
15237TIP3    H167126   4.661   1.026   4.611 -0.1919  0.2446 -1.8617
15237TIP3    H267127   4.779   1.102   4.555  0.3683  1.9236  1.3451
15238TIP3   OH267128   4.874   4.689  11.542  0.1640  1.0183 -0.0297
15238TIP3    H167129   4.847   4.689  11.634  0.5832  2.7486  0.1164
15238TIP3    H267130   4.871   4.781  11.515 -0.5843  0.4944 -1.9586
15239TIP3   OH267131   0.485   2.202  11.753  0.1629 -0.5738  0.3328
15239TIP3    H167132   0.519   2.114  11.740 -0.2890 -0.4467 -2.2724
15239TIP3    H267133   0.547   2.259  11.707 -0.2639  0.3370  0.8449
15240TIP3   OH267134   2.498   1.134  11.911 -0.4201  0.3278 -0.2727
15240TIP3    H167135   2.453   1.058  11.875 -1.6192  0.9210 -0.1228
15240TIP3    H267136   2.427   1.198  11.925  0.3598  0.9857  0.8262
15241TIP3   OH267137   0.948   6.785  10.640  0.4019 -0.1240  0.3644
15241TIP3    H167138   0.900   6.703  10.653  0.8638 -0.5524 -0.5746
15241TIP3    H267139   0.899   6.831  10.573  0.0929  0.4258  0.9550
15242TIP3   OH267140   0.751   3.846  11.737 -0.0952  0.8473  0.2758
15242TIP3    H167141   0.727   3.812  11.651 -1.7801 -0.4307  1.2160
15242TIP3    H267142   0.724   3.938  11.735 -1.4547  0.4621 -0.0955
15243TIP3   OH267143   0.726   6.693  15.531  0.3966 -0.1286  0.8495
15243TIP3    H167144   0.744   6.787  15.527 -1.2907  0.2286  0.9171
15243TIP3    H267145   0.706   6.668  15.441 -0.5138 -0.1179  1.0403
15244TIP3   OH267146   1.671   0.843   1.239 -0.0388  0.3238  0.0592
15244TIP3    H167147   1.669   0.752   1.269 -2.1283  0.4759  0.5126
15244TIP3    H267148   1.649   0.895   1.316  2.0658  1.3363  0.0445
15245TIP3   OH267149   5.157   0.235  13.132 -0.3661 -0.0432  0.6707
15245TIP3    H167150   5.192   0.172  13.195 -0.0145  1.2480  1.8248
15245TIP3    H267151   5.062   0.221  13.135 -0.2025 -1.6876 -0.4234
15246TIP3   OH267152   5.181   4.111  16.252  0.1198  0.3313  0.0081
15246TIP3    H167153   5.172   4.119  16.347 -0.4606  0.4800 -0.0549
15246TIP3    H267154   5.104   4.155  16.217  0.4598  0.5014 -0.5441
15247TIP3   OH267155   1.635   2.775  11.743 -0.1741 -0.3025 -0.7070
15247TIP3    H167156   1.602   2.693  11.707 -0.4333  0.2613 -1.7691
15247TIP3    H267157   1.712   2.749  11.794 -0.8628 -1.3276 -0.1440
15248TIP3   OH267158   6.684   5.105  17.226  0.2915  0.0002 -0.0119
15248TIP3    H167159   6.714   5.171  17.164  1.4161 -1.1053 -0.6936
15248TIP3    H267160   6.726   5.024  17.197  0.3277 -0.6794  1.7992
15249TIP3   OH267161   5.688   1.193   4.644  0.6271  0.3964  0.4460
15249TIP3    H167162   5.630   1.208   4.719 -0.5087 -1.5878  0.0337
15249TIP3    H267163   5.757   1.259   4.654 -1.0279  2.0520  1.6271
15250TIP3   OH267164   6.625   2.659  11.926 -0.2429 -0.1721 -0.3282
15250TIP3    H167165   6.604   2.567  11.943 -0.6450  0.1161  0.8211
15250TIP3    H267166   6.717   2.658  11.899 -0.3705 -0.9456 -0.7649
15251TIP3   OH267167   3.108   2.857  12.988 -0.1354  0.1428  0.5648
15251TIP3    H167168   3.060   2.932  13.024 -2.0194 -0.0742 -1.3416
15251TIP3    H267169   3.193   2.894  12.962 -0.4505  1.2591  1.0456
15252TIP3   OH267170   3.961   6.726   3.513 -0.1567 -0.1483  0.4433
15252TIP3    H167171   4.013   6.684   3.445 -0.7236  0.2818 -0.2715
15252TIP3    H267172   4.025   6.773   3.566  0.1918  0.4316 -0.4615
15253TIP3   OH267173   2.010   3.526  14.935  0.1348  0.2112 -0.5988
15253TIP3    H167174   2.058   3.603  14.903 -0.1147 -0.1892 -2.0022
15253TIP3    H267175   2.004   3.469  14.859 -0.7875 -0.6449  0.1041
15254TIP3   OH267176   0.174   6.274   0.796 -0.0812 -0.4956 -0.2622
15254TIP3    H167177   0.211   6.338   0.735 -0.6005  0.2850  0.2218
15254TIP3    H267178   0.198   6.189   0.760 -0.0442 -0.0369 -1.3336
15255TIP3   OH267179   6.719   0.197  12.389 -0.7493 -0.2488 -0.5255
15255TIP3    H167180   6.808   0.192  12.425  0.1697 -0.6749 -2.6746
15255TIP3    H267181   6.685   0.108  12.397 -1.0779 -0.0516  0.4444
15256TIP3   OH267182   3.488   1.872  11.307  0.2196 -0.3810 -1.1814
15256TIP3    H167183   3.503   1.830  11.392 -2.5111 -0.0174 -0.4018
15256TIP3    H267184   3.437   1.808  11.257 -2.4673  1.1379 -0.6190
15257TIP3   OH267185   3.405   5.168  13.417  0.4992 -0.4458 -0.4557
15257TIP3    H167186   3.392   5.162  13.322  0.4176 -0.4217 -0.4467
15257TIP3    H267187   3.475   5.106  13.436  0.2161 -0.7744 -0.4701
15258TIP3   OH267188   1.321   3.738  10.775 -0.2096  0.0596  0.2685
15258TIP3    H167189   1.354   3.812  10.826  1.8758 -0.9544  0.5159
15258TIP3    H267190   1.270   3.687  10.838  0.5970 -0.0890  0.8225
15259TIP3   OH267191   4.639   4.776  13.704  0.1671  0.0369  0.1950
15259TIP3    H167192   4.679   4.722  13.772  2.6125  2.1561  0.5721
15259TIP3    H267193   4.625   4.861  13.746 -0.8862  0.5837 -1.1824
15260TIP3   OH267194   0.358   1.221  12.651  0.2324 -0.0736  0.1330
15260TIP3    H167195   0.342   1.225  12.557  1.6765  1.5123 -0.0831
15260TIP3    H267196   0.435   1.165  12.659 -0.1661 -0.5862  0.4228
15261TIP3   OH267197   5.593   4.089   4.327 -0.0126 -0.4712  0.0285
15261TIP3    H167198   5.604   4.148   4.252  0.7418  0.6725  1.0001
15261TIP3    H267199   5.588   4.002   4.288  1.7510 -0.0364 -1.2813
15262TIP3   OH267200   4.239   5.276  11.839  0.0787  0.1841 -0.2097
15262TIP3    H167201   4.160   5.246  11.883  0.8621 -1.3868  0.1843
15262TIP3    H267202   4.256   5.209  11.772 -0.3303  1.8141 -2.0516
15263TIP3   OH267203   0.074   3.294   0.340  0.3100 -0.0929  0.3867
15263TIP3    H167204   0.094   3.388   0.337  0.7084 -0.1827  0.0805
15263TIP3    H267205  -0.019   3.290   0.361  0.3820  0.3625  0.8250
15264TIP3   OH267206   3.296   4.816  12.761 -0.3476 -0.0067 -0.0408
15264TIP3    H167207   3.374   4.802  12.706  0.4175  0.9538  0.7526
15264TIP3    H267208   3.225   4.772  12.715  0.9724 -2.3404  0.0017
15265TIP3   OH267209   5.360   4.747  13.264 -0.3322 -0.5022  0.5730
15265TIP3    H167210   5.266   4.760  13.248  0.4205  1.2549 -3.7354
15265TIP3    H267211   5.395   4.835  13.276  0.8791 -1.0975  1.6440
15266TIP3   OH267212   4.454   1.704   2.411 -0.0405 -0.3931  0.0907
15266TIP3    H167213   4.370   1.744   2.389  0.7060 -0.2144 -2.9018
15266TIP3    H267214   4.459   1.626   2.355  1.7216 -0.4612  0.2867
15267TIP3   OH267215   6.219   2.028  15.338  0.4742  0.7905  0.4302
15267TIP3    H167216   6.290   2.052  15.279  0.3800  0.1807  0.0662
15267TIP3    H267217   6.140   2.032  15.284  0.3071  0.8388  0.6738
15268TIP3   OH267218   3.895   1.208  16.926  0.2348  0.4575  0.4694
15268TIP3    H167219   3.872   1.294  16.892 -2.4520 -0.4430 -0.3033
15268TIP3    H267220   3.894   1.151  16.849 -1.3514 -0.8052  1.3595
15269TIP3   OH267221   5.814   4.220   5.053 -0.0121  0.2343 -0.2398
15269TIP3    H167222   5.793   4.129   5.074  0.7636  0.6242  2.5380
15269TIP3    H267223   5.730   4.257   5.025 -0.8623 -0.7676  0.8551
15270TIP3   OH267224   6.462   2.359   2.416  0.4039  0.1886 -0.4125
15270TIP3    H167225   6.379   2.311   2.407 -0.6035  1.9117 -0.7259
15270TIP3    H267226   6.493   2.336   2.503 -1.2577  0.7453  0.3686
15271TIP3   OH267227   6.050   5.622  12.816  0.3965  0.0954 -0.0089
15271TIP3    H167228   6.137   5.662  12.813  0.2502  0.4030 -0.1490
15271TIP3    H267229   6.054   5.553  12.750 -0.1542  1.5186 -1.6127
15272TIP3   OH267230   3.516   2.769   5.121 -0.1103  0.1751  0.0887
15272TIP3    H167231   3.517   2.820   5.202 -0.2881 -0.0446  0.2283
15272TIP3    H267232   3.439   2.802   5.074 -0.4466 -0.2220  0.3471
15273TIP3   OH267233   1.081   2.761   3.939  0.7690 -0.2495  0.1286
15273TIP3    H167234   1.095   2.787   3.848 -0.3274 -1.2128 -0.3445
15273TIP3    H267235   1.169   2.757   3.977  1.1360  1.7563 -0.4132
15274TIP3   OH267236   4.094   4.984   1.729 -0.7852  0.3675  0.2526
15274TIP3    H167237   4.146   5.060   1.701 -1.3399  0.5241 -0.3858
15274TIP3    H267238   4.074   4.939   1.647  1.1879 -1.5796  0.7395
15275TIP3   OH267239   2.270   1.792  11.640 -0.3024  0.4705  0.1391
15275TIP3    H167240   2.360   1.762  11.647 -1.1818 -2.4165  0.2407
15275TIP3    H267241   2.277   1.882  11.608  2.6400  1.0630  2.0982
15276TIP3   OH267242   4.334   3.243   3.226  0.0180 -0.2550  0.0275
15276TIP3    H167243   4.426   3.230   3.203  0.3555  0.0201  1.1969
15276TIP3    H267244   4.290   3.164   3.193  0.3217  0.4454 -2.2420
15277TIP3   OH267245   1.994   6.612  16.211  0.3175 -0.2823  0.3131
15277TIP3    H167246   1.926   6.584  16.272  1.4268 -2.7197  0.5595
15277TIP3    H267247   2.057   6.659  16.266  0.5978 -1.2065  0.8078
15278TIP3   OH267248   6.305   1.436   3.414  0.2568 -0.4577 -0.1683
15278TIP3    H167249   6.332   1.356   3.460 -1.1840 -0.7678  0.2092
15278TIP3    H267250   6.287   1.499   3.484 -0.6067 -0.4902 -0.3400
15279TIP3   OH267251   0.570   0.131   4.754  0.1746  0.7382 -0.1689
15279TIP3    H167252   0.607   0.046   4.732 -2.1693 -0.3864 -0.0887
15279TIP3    H267253   0.633   0.195   4.721  2.2668 -1.0055  0.2606
15280TIP3   OH267254   4.546   5.558   0.978 -0.6556 -0.3165  0.4408
15280TIP3    H167255   4.604   5.581   0.906  0.6210  0.7343  1.7500
15280TIP3    H267256   4.602   5.519   1.044 -1.3579  0.8613  1.8063
15281TIP3   OH267257   0.279   3.231   1.590 -0.3263  0.8762 -0.1387
15281TIP3    H167258   0.349   3.196   1.536 -1.8804 -1.3013 -0.8822
15281TIP3    H267259   0.324   3.268   1.666  1.6218 -0.8604 -0.3397
15282TIP3   OH267260   1.304   0.237   0.247  0.3918 -0.3142 -0.0900
15282TIP3    H167261   1.261   0.174   0.305 -0.4947  0.6466  0.3210
15282TIP3    H267262   1.237   0.261   0.183  0.9117 -0.2562 -0.6165
15283TIP3   OH267263   2.895   2.172   4.550 -0.1422  0.4781 -0.3006
15283TIP3    H167264   2.890   2.246   4.490  0.3881  1.4555  0.8276
15283TIP3    H267265   2.807   2.165   4.588 -0.0414  0.9224  0.0271
15284TIP3   OH267266   6.706   0.022  13.276 -0.2539  0.1111  0.0138
15284TIP3    H167267   6.658   0.077  13.337 -0.2828 -0.0904  0.1732
15284TIP3    H267268   6.741  -0.049  13.329 -2.4319 -1.5314 -0.5703
15285TIP3   OH267269   5.389   5.807  16.296 -0.3406 -0.0662  0.4173
15285TIP3    H167270   5.335   5.732  16.319  0.8722 -1.0995  0.0450
15285TIP3    H267271   5.375   5.819  16.202  1.0222 -1.1701  0.0442
15286TIP3   OH267272   2.085   3.925  13.205  0.2114  0.1816 -0.2195
15286TIP3    H167273   2.019   3.934  13.136 -1.7086 -0.3041  1.4699
15286TIP3    H267274   2.070   3.837  13.241  3.0257 -0.7161 -0.9261
15287TIP3   OH267275   2.333   5.958  10.941 -0.0655  0.3782 -0.0873
15287TIP3    H167276   2.356   5.917  11.025  0.5667  1.5726  0.3570
15287TIP3    H267277   2.314   6.049  10.964 -1.5686  0.3419 -1.0168
15288TIP3   OH267278   0.660   1.320  16.633 -0.1561 -0.3239  0.5509
15288TIP3    H167279   0.621   1.383  16.573  0.3446 -1.5918 -1.1994
15288TIP3    H267280   0.729   1.368  16.678 -0.3683  0.5969 -0.0842
15289TIP3   OH267281   1.393   2.922  12.741  0.7859 -0.4084  0.0848
15289TIP3    H167282   1.441   3.000  12.714  3.4513 -1.7966  0.4778
15289TIP3    H267283   1.331   2.906  12.669  1.7358  0.7874 -1.0498
15290TIP3   OH267284   3.104   3.691   1.993 -0.1420 -0.5946 -0.4439
15290TIP3    H167285   3.195   3.663   2.004  0.0074 -0.1976 -0.6595
15290TIP3    H267286   3.110   3.782   1.965 -0.5946 -0.6676 -0.7967
15291TIP3   OH267287   1.677   1.879  12.462 -0.4265 -0.5924  0.6728
15291TIP3    H167288   1.665   1.784  12.455 -0.4750 -0.5812  0.6063
15291TIP3    H267289   1.634   1.914  12.384  1.0480 -0.6238 -0.1860
15292TIP3   OH267290   2.920   2.661  11.302 -0.0841  0.1872 -0.7687
15292TIP3    H167291   2.909   2.750  11.268  0.7656  0.4553 -0.3680
15292TIP3    H267292   2.943   2.609  11.225 -2.7787 -0.1783 -1.4417
15293TIP3   OH267293   2.715   2.001  16.262  0.9360 -0.6069 -0.0089
15293TIP3    H167294   2.771   1.995  16.339 -0.2690  0.6368  1.0089
15293TIP3    H267295   2.670   1.917  16.259  1.3742 -0.8618  0.3275
15294TIP3   OH267296   2.244   6.783  16.627 -0.2316 -0.2333 -0.4355
15294TIP3    H167297   2.330   6.743  16.634 -0.1502  0.0706  0.4427
15294TIP3    H267298   2.235   6.836  16.706 -1.0761  0.0326 -0.6906
15295TIP3   OH267299   0.039   2.703  14.913 -0.0814 -0.2033  0.3779
15295TIP3    H167300   0.076   2.783  14.951  0.6788 -1.2244  1.9154
15295TIP3    H267301   0.111   2.666  14.863  0.2283 -0.9367  1.3406
15296TIP3   OH267302   4.951   3.406   4.587 -0.0341 -0.1200  0.9407
15296TIP3    H167303   5.029   3.413   4.642  0.7085 -1.4579  0.1132
15296TIP3    H267304   4.898   3.338   4.629  1.3026 -2.3498 -0.8017
15297TIP3   OH267305   4.569   2.692   5.096  0.5857  0.7349 -0.1495
15297TIP3    H167306   4.497   2.636   5.126  1.3047  0.2000  0.6349
15297TIP3    H267307   4.587   2.750   5.169  0.3735  1.4809 -0.6752
15298TIP3   OH267308   0.505   3.242   6.806 -0.7023 -1.0238  0.0594
15298TIP3    H167309   0.533   3.155   6.834 -1.1101 -0.7373  1.4458
15298TIP3    H267310   0.577   3.274   6.752 -0.5731 -2.2291 -0.5141
15299TIP3   OH267311   6.196   5.172   3.307 -0.1589  0.1242 -0.1846
15299TIP3    H167312   6.144   5.252   3.311 -1.2237 -0.5261 -0.6391
15299TIP3    H267313   6.199   5.149   3.214 -0.2216 -0.5859 -0.0161
15300TIP3   OH267314   3.271   2.515   4.953  0.3417 -0.1902  0.5279
15300TIP3    H167315   3.272   2.467   4.870  2.2992  0.8029 -0.0873
15300TIP3    H267316   3.294   2.449   5.019 -0.8272 -0.8965  0.2682
15301TIP3   OH267317   0.356   3.489   5.747 -0.0104 -0.0392  0.4836
15301TIP3    H167318   0.281   3.440   5.781  0.2163  0.0340  1.0846
15301TIP3    H267319   0.433   3.448   5.787  0.2593  0.0578  0.0797
15302TIP3   OH267320   1.618   3.444  11.747  0.3942  0.0039 -0.0144
15302TIP3    H167321   1.582   3.510  11.688  2.9474 -1.0465 -3.0235
15302TIP3    H267322   1.547   3.381  11.759 -0.7047  1.0801 -0.5799
15303TIP3   OH267323   1.659   0.020  13.483 -0.4489 -0.0735  0.4198
15303TIP3    H167324   1.712   0.094  13.454 -0.1516 -0.5776 -0.3755
15303TIP3    H267325   1.570   0.055  13.490 -0.0933  0.6782  1.3688
15304TIP3   OH267326   3.044   3.960  16.805  0.0906  0.3061  0.1809
15304TIP3    H167327   3.019   3.998  16.890 -0.6871 -0.2819  0.2339
15304TIP3    H267328   3.125   4.005  16.781  0.8003 -0.1250  1.6507
15305TIP3   OH267329   4.320   6.366  12.709 -0.5526 -0.3912  0.0707
15305TIP3    H167330   4.395   6.425  12.693 -2.1687  1.7674 -0.0097
15305TIP3    H267331   4.335   6.332  12.797  0.5645 -0.0706  0.0242
15306TIP3   OH267332   4.341   0.039   6.239  0.4398 -0.1684 -0.3671
15306TIP3    H167333   4.358   0.127   6.273  1.7820 -0.3332 -0.5663
15306TIP3    H267334   4.264   0.009   6.287 -0.2056  1.2128 -0.4866
15307TIP3   OH267335   3.378   1.089   4.690  0.0310 -0.0585  0.0964
15307TIP3    H167336   3.329   1.009   4.672 -0.8258  0.3949  0.3682
15307TIP3    H267337   3.356   1.148   4.618 -1.4459  0.8636  1.2269
15308TIP3   OH267338   0.250   6.721  11.088 -0.2610  0.3367  0.0687
15308TIP3    H167339   0.297   6.734  11.005  1.0332 -0.5840  0.6311
15308TIP3    H267340   0.285   6.639  11.123 -0.8477  0.6727  1.4990
15309TIP3   OH267341   0.843   1.034  14.278 -0.5745 -0.0147 -0.0114
15309TIP3    H167342   0.770   0.975  14.295 -0.4401 -0.0961  0.2881
15309TIP3    H267343   0.802   1.119  14.260 -0.7046  0.4571  2.1988
15310TIP3   OH267344   4.527   6.636  15.266  0.2727 -0.0001 -0.1790
15310TIP3    H167345   4.606   6.659  15.218  0.6491 -0.6080  0.1397
15310TIP3    H267346   4.456   6.647  15.203  0.4252  1.9029 -0.0906
15311TIP3   OH267347   5.525   3.156   6.632 -0.3081  0.7767  0.0675
15311TIP3    H167348   5.609   3.197   6.654 -0.2631  0.3193  0.7602
15311TIP3    H267349   5.489   3.212   6.564  0.4469  1.1231 -0.0641
15312TIP3   OH267350   2.565   3.418   4.344 -0.8863  0.0885  0.1822
15312TIP3    H167351   2.598   3.390   4.259 -1.0249  0.4363  0.0109
15312TIP3    H267352   2.482   3.462   4.325 -0.2211  1.4642  0.3297
15313TIP3   OH267353   2.958   4.782  13.947  0.0843 -0.3047 -0.3499
15313TIP3    H167354   2.879   4.764  13.896 -1.6733  1.0251  1.7674
15313TIP3    H267355   2.984   4.697  13.981  0.3954 -0.9657 -2.1170
15314TIP3   OH267356   5.595   0.189   4.736 -0.3956  0.0916  0.2071
15314TIP3    H167357   5.567   0.249   4.806  0.0665  2.4893 -1.5309
15314TIP3    H267358   5.678   0.154   4.767 -1.5525 -1.1824  2.0741
15315TIP3   OH267359   5.008   1.862   2.049  0.0786  0.1075  0.0642
15315TIP3    H167360   5.038   1.885   2.137 -0.1513 -0.0072  0.1742
15315TIP3    H267361   4.945   1.791   2.063 -0.5003  0.5748 -0.1386
15316TIP3   OH267362   5.987   4.333   1.818 -0.6856 -0.5341  0.0440
15316TIP3    H167363   5.996   4.386   1.897 -0.6635 -0.6120  0.0939
15316TIP3    H267364   5.942   4.390   1.756  0.1044 -0.1549 -0.1912
15317TIP3   OH267365   3.963   3.651  11.126  0.0815  0.6106  0.0041
15317TIP3    H167366   4.036   3.653  11.064 -0.3917  0.9223 -0.5537
15317TIP3    H267367   3.993   3.594  11.197  1.2396  1.5181  0.2625
15318TIP3   OH267368   3.078   4.839   3.714  0.2531 -0.4129  0.0066
15318TIP3    H167369   3.112   4.857   3.626  0.0667 -0.7188 -0.1284
15318TIP3    H267370   2.998   4.788   3.699 -0.3888  0.4806  0.3182
15319TIP3   OH267371   4.772   1.056   5.406  0.5175  0.8987  0.3321
15319TIP3    H167372   4.857   1.095   5.430  1.2242 -0.9558  1.0310
15319TIP3    H267373   4.707   1.113   5.448  1.5396  0.6341  2.4317
15320TIP3   OH267374   1.189   3.182   0.702  0.7205  0.1599 -0.0996
15320TIP3    H167375   1.209   3.202   0.611  1.3700  0.7006  0.1553
15320TIP3    H267376   1.181   3.268   0.744  0.2504 -0.0843  0.3147
15321TIP3   OH267377   2.991   0.123  11.365 -0.1393  0.2347 -0.5489
15321TIP3    H167378   3.073   0.076  11.379  0.3579  1.1067 -0.4858
15321TIP3    H267379   3.010   0.184  11.293 -1.2806 -0.8579 -1.8479
15322TIP3   OH267380   2.793   5.427   0.407  0.7576  0.1079  0.0275
15322TIP3    H167381   2.883   5.397   0.423  0.7123  0.2033  0.4525
15322TIP3    H267382   2.739   5.355   0.439  0.6818 -0.0892 -0.5181
15323TIP3   OH267383   5.444   6.693  13.497 -0.1301 -0.0854 -0.0956
15323TIP3    H167384   5.372   6.629  13.500  0.0571 -0.2983 -0.1440
15323TIP3    H267385   5.518   6.647  13.536 -0.2603  0.4464  0.8082
15324TIP3   OH267386   5.875   1.900   0.559  0.0528  0.2630 -0.3053
15324TIP3    H167387   5.930   1.828   0.586 -0.2855  0.2756  0.4271
15324TIP3    H267388   5.928   1.948   0.495  0.5801 -0.1699 -0.1977
15325TIP3   OH267389   2.963   1.036   0.795  0.0216 -0.4965 -0.5231
15325TIP3    H167390   2.992   0.984   0.871 -0.6949 -1.8631 -1.1486
15325TIP3    H267391   2.872   1.010   0.782  0.5888 -1.5478 -2.8278
15326TIP3   OH267392   1.306   5.400  14.374 -0.5177  0.0897 -0.2727
15326TIP3    H167393   1.315   5.452  14.454 -1.6929 -0.6049  0.3302
15326TIP3    H267394   1.270   5.461  14.310 -2.2543 -0.0129  0.5357
15327TIP3   OH267395   4.000   6.170   5.226 -0.1886  0.2115 -0.4034
15327TIP3    H167396   3.993   6.078   5.251 -1.7920  0.6508  0.9863
15327TIP3    H267397   4.041   6.212   5.301  0.1639  0.7183 -0.8688
15328TIP3   OH267398   6.177   3.740   0.061  0.2582 -0.4103  0.2634
15328TIP3    H167399   6.169   3.683   0.138 -0.8437  0.3030  0.6850
15328TIP3    H267400   6.180   3.829   0.096 -2.2418  0.0797 -0.5736
15329TIP3   OH267401   6.508   2.222  13.210  0.2057 -0.6950  0.3203
15329TIP3    H167402   6.561   2.283  13.159 -0.0675 -0.5920  0.1546
15329TIP3    H267403   6.427   2.212  13.159 -0.5956  0.3581  1.3336
15330TIP3   OH267404   1.887   3.351  13.685 -0.2162  0.2784 -0.0137
15330TIP3    H167405   1.876   3.284  13.618 -3.2034  1.9170 -1.3593
15330TIP3    H267406   1.804   3.351  13.733  0.8909  0.9304  2.0037
15331TIP3   OH267407   2.902   5.213   3.088  0.1070  0.6862  0.0185
15331TIP3    H167408   2.973   5.197   3.026  0.5775  0.9653  0.4664
15331TIP3    H267409   2.829   5.159   3.057  1.0186 -0.8448  0.4378
15332TIP3   OH267410   1.320   6.655  14.403  0.3922 -0.5898  0.2511
15332TIP3    H167411   1.327   6.741  14.444  0.8917 -1.5045  2.2403
15332TIP3    H267412   1.269   6.670  14.323  0.1145  1.4646  0.7533
15333TIP3   OH267413   5.119   6.422   3.740 -0.2439 -1.0012 -0.3327
15333TIP3    H167414   5.213   6.401   3.740 -0.2818 -1.1902  0.7812
15333TIP3    H267415   5.115   6.510   3.703  0.5003 -0.4957  0.7347
15334TIP3   OH267416   4.338   4.697  12.494  0.5720 -0.1700  0.3097
15334TIP3    H167417   4.347   4.685  12.399 -1.7671  2.6862 -0.4154
15334TIP3    H267418   4.328   4.792  12.505  0.7957 -0.4252  3.4387
15335TIP3   OH267419   5.786   0.817  17.166  0.0850  0.7130  0.1528
15335TIP3    H167420   5.880   0.831  17.174  0.2356 -0.1327 -0.0831
15335TIP3    H267421   5.778   0.738  17.114 -0.7656  0.9284 -0.0559
15336TIP3   OH267422   2.267   1.213  12.967 -0.1621  0.1867  0.3666
15336TIP3    H167423   2.210   1.146  12.929 -1.4066  1.5379 -0.2542
15336TIP3    H267424   2.233   1.295  12.933  1.9683  1.0941  0.2693
15337TIP3   OH267425   4.714   5.946  13.939  0.5554 -0.0641  0.1709
15337TIP3    H167426   4.638   5.959  13.882 -0.3302 -0.5736  1.1770
15337TIP3    H267427   4.723   6.029  13.986  1.0790  0.2419 -0.4563
15338TIP3   OH267428   1.458   0.865  15.941  0.1779 -0.0616 -0.3295
15338TIP3    H167429   1.438   0.958  15.946  0.0650 -0.0722 -0.5995
15338TIP3    H267430   1.503   0.854  15.858  0.4378 -0.2019 -0.1715
15339TIP3   OH267431   0.908   4.958   1.672  0.1739  0.3190 -0.0970
15339TIP3    H167432   0.831   4.962   1.728 -0.8839  0.4740 -1.5099
15339TIP3    H267433   0.881   4.906   1.596  0.3987  2.9683 -2.1538
15340TIP3   OH267434   2.328   3.875  15.085  0.1653  0.0643  0.3724
15340TIP3    H167435   2.385   3.822  15.141 -0.3363 -0.7082  0.1676
15340TIP3    H267436   2.249   3.889  15.137 -1.6391 -3.2868 -1.1446
15341TIP3   OH267437   0.692   3.839  14.841 -0.2227  0.4061 -0.0945
15341TIP3    H167438   0.708   3.933  14.850 -0.1053  0.6496 -2.1893
15341TIP3    H267439   0.639   3.816  14.917 -1.3080  2.4424 -0.1586
15342TIP3   OH267440   0.607   3.500   5.272 -0.2342  0.3529  0.0018
15342TIP3    H167441   0.567   3.541   5.349  0.1312 -0.8998  0.8885
15342TIP3    H267442   0.661   3.430   5.307 -2.8628 -2.6897 -1.5224
15343TIP3   OH267443   4.155   2.431   1.872  0.4933 -0.1837  0.1685
15343TIP3    H167444   4.206   2.353   1.851 -0.3745 -0.6438 -0.3034
15343TIP3    H267445   4.155   2.482   1.791 -0.8584 -0.8175 -0.2711
15344TIP3   OH267446   1.058   6.328   2.340  0.0045  0.6141 -0.2647
15344TIP3    H167447   1.154   6.330   2.349 -0.0794  0.7732  0.6729
15344TIP3    H267448   1.037   6.234   2.340  0.0392  0.5969  1.0208
15345TIP3   OH267449   1.757   4.057  16.974  0.1627  0.1204 -0.6346
15345TIP3    H167450   1.760   3.995  16.901  0.8609  0.4572 -0.9065
15345TIP3    H267451   1.849   4.078  16.991  0.0672 -0.4771  0.8058
15346TIP3   OH267452   6.782   0.648   4.853 -0.2886  0.3696 -0.1171
15346TIP3    H167453   6.788   0.569   4.908 -0.5506  1.7205  1.9643
15346TIP3    H267454   6.784   0.615   4.763  2.2850 -1.8217  0.6147
15347TIP3   OH267455   3.912   4.233  12.257 -0.3425 -0.3535 -0.4573
15347TIP3    H167456   3.830   4.283  12.255  0.1404  0.4769 -0.3851
15347TIP3    H267457   3.923   4.202  12.167 -0.1778  0.5065 -0.7496
15348TIP3   OH267458   4.953   3.760   5.855  0.4263  0.3089 -0.1804
15348TIP3    H167459   4.981   3.824   5.921  1.4047  0.8908 -1.1308
15348TIP3    H267460   5.013   3.686   5.867 -1.5547 -1.1092  1.8375
15349TIP3   OH267461   2.877   3.500  15.159 -0.1466 -0.7860  0.2545
15349TIP3    H167462   2.817   3.484  15.086 -0.6718 -1.7775  0.8874
15349TIP3    H267463   2.955   3.538  15.117 -0.9632 -0.0519 -0.6420
15350TIP3   OH267464   2.688   4.973   3.912 -0.1592 -0.1419  0.0928
15350TIP3    H167465   2.657   5.004   3.998  1.4091 -0.0424  0.6497
15350TIP3    H267466   2.748   4.902   3.933 -1.0868 -1.2972 -1.0249
15351TIP3   OH267467   4.633   2.514  16.033 -0.0668 -0.0573  0.1534
15351TIP3    H167468   4.693   2.524  16.107  1.6243 -1.4299 -0.9719
15351TIP3    H267469   4.628   2.420  16.018 -3.1167 -0.0985  0.6032
15352TIP3   OH267470   0.706   1.457  12.904 -0.4575  0.2667  0.0374
15352TIP3    H167471   0.688   1.423  12.816  0.1345  0.6326 -0.2302
15352TIP3    H267472   0.675   1.547  12.901  3.0280  1.5848 -1.0630
15353TIP3   OH267473   4.977   5.037   1.639 -0.5774  0.6745 -0.4094
15353TIP3    H167474   4.935   4.952   1.653  0.4164  0.3863  1.1320
15353TIP3    H267475   5.058   5.015   1.593 -0.7059  0.8807 -0.7318
15354TIP3   OH267476   6.620   5.486   1.627 -0.0036 -0.5191  0.1228
15354TIP3    H167477   6.596   5.555   1.688  1.5969  1.2037 -1.0848
15354TIP3    H267478   6.631   5.408   1.681  0.2017  0.6682  1.8543
15355TIP3   OH267479   1.097   5.557  12.349 -0.1438 -0.3018 -0.2240
15355TIP3    H167480   1.071   5.516  12.267 -1.3656 -1.3903  0.6553
15355TIP3    H267481   1.150   5.491  12.393 -0.9682 -0.4350  0.6086
15356TIP3   OH267482   0.519   4.768  14.013  0.5199 -0.6114  0.4169
15356TIP3    H167483   0.544   4.843  13.959  1.9181 -0.5032  1.1713
15356TIP3    H267484   0.555   4.692  13.967 -1.7758 -0.9857 -0.8899
15357TIP3   OH267485   0.765   2.557  14.434 -0.3508 -0.1219  0.0458
15357TIP3    H167486   0.856   2.555  14.404 -0.9270 -0.6838 -1.8172
15357TIP3    H267487   0.739   2.465  14.442 -0.9275  0.0234 -0.0565
15358TIP3   OH267488   3.115   3.522   0.314  0.3619 -0.2405 -0.2825
15358TIP3    H167489   3.155   3.496   0.231 -0.1374 -1.6603 -0.0984
15358TIP3    H267490   3.189   3.540   0.372  0.7401 -1.4824 -0.3637
15359TIP3   OH267491   2.790   3.322   2.290 -0.3863 -0.6447 -0.9563
15359TIP3    H167492   2.880   3.348   2.307  0.1825 -1.5510 -2.4490
15359TIP3    H267493   2.796   3.254   2.222 -2.0731 -2.0135  0.1841
15360TIP3   OH267494   1.412   5.713   1.358 -0.1923 -0.9386 -0.1938
15360TIP3    H167495   1.444   5.794   1.318 -0.8408 -0.6183 -0.0844
15360TIP3    H267496   1.490   5.671   1.393  0.3048 -0.9121 -1.2248
15361TIP3   OH267497   5.541   2.421   1.269  0.0747  0.2826 -0.0679
15361TIP3    H167498   5.615   2.464   1.310 -0.2015  0.8810 -0.1789
15361TIP3    H267499   5.509   2.359   1.335  1.1272 -0.5258 -0.3030
15362TIP3   OH267500   4.732   5.823   6.466  0.1223 -0.0548  0.4687
15362TIP3    H167501   4.824   5.819   6.494  0.0064  1.5114  1.1834
15362TIP3    H267502   4.695   5.739   6.491  0.9826 -0.1042  1.6151
15363TIP3   OH267503   0.008   5.145   0.927 -0.0569 -0.4575 -0.8568
15363TIP3    H167504  -0.061   5.210   0.941 -0.4769 -0.8878 -0.9076
15363TIP3    H267505  -0.007   5.079   0.994  1.4503  0.3649  0.3674
15364TIP3   OH267506   2.602   4.498   3.918  0.0282  0.0935 -0.0177
15364TIP3    H167507   2.541   4.486   3.845  0.5990  1.2010 -0.7151
15364TIP3    H267508   2.572   4.577   3.962  1.7748  1.5685 -1.3014
15365TIP3   OH267509   5.865   0.205  11.604  0.7860  0.2294 -0.1627
15365TIP3    H167510   5.864   0.294  11.639 -3.3748  0.5805 -0.7277
15365TIP3    H267511   5.831   0.213  11.515 -0.0040 -1.9348 -0.1208
15366TIP3   OH267512   4.725   1.863  15.503  0.2320  0.3851 -0.2261
15366TIP3    H167513   4.797   1.905  15.550 -1.9047  1.5998  2.1940
15366TIP3    H267514   4.680   1.810  15.569 -1.0712 -0.3959 -1.6605
15367TIP3   OH267515   4.530   2.805  16.236 -0.1108 -0.8116  0.4496
15367TIP3    H167516   4.607   2.809  16.293  0.1963 -2.9809  0.2954
15367TIP3    H267517   4.545   2.873  16.171  0.8357 -0.0698  1.3900
15368TIP3   OH267518   4.292   1.731  15.415 -0.5837 -0.6047  0.1269
15368TIP3    H167519   4.355   1.773  15.356 -1.2862 -0.3783 -0.4707
15368TIP3    H267520   4.247   1.667  15.360 -0.4734 -1.1844  0.6981
15369TIP3   OH267521   3.308   4.363   2.185  0.0900 -0.5401 -0.1231
15369TIP3    H167522   3.278   4.280   2.220  0.7096 -0.5981  0.2922
15369TIP3    H267523   3.308   4.351   2.090  0.8157 -1.2514 -0.0471
15370TIP3   OH267524   6.338   1.723  14.073 -0.6864 -0.6138  0.6402
15370TIP3    H167525   6.309   1.766  13.994 -0.4934 -0.7550  0.4912
15370TIP3    H267526   6.274   1.748  14.140 -0.0361  0.7022  0.7975
15371TIP3   OH267527   5.647   0.141  14.053 -0.1827 -0.2828 -0.4314
15371TIP3    H167528   5.648   0.046  14.045 -0.2174 -0.3084 -0.1294
15371TIP3    H267529   5.555   0.163  14.067 -0.3237 -0.1142 -1.5654
15372TIP3   OH267530   4.300   3.917  14.531  0.1700  0.2182 -0.1394
15372TIP3    H167531   4.375   3.923  14.472  0.3123 -1.0830 -0.1188
15372TIP3    H267532   4.273   4.008  14.545  2.3989  0.8124  0.6921
15373TIP3   OH267533   6.371   3.307  14.737  0.1403 -0.5529 -0.5373
15373TIP3    H167534   6.294   3.316  14.793  0.1961 -1.7220 -0.2487
15373TIP3    H267535   6.345   3.245  14.670  0.7331 -0.7346 -0.6084
15374TIP3   OH267536   1.706   2.378   4.134 -0.2952  0.0454 -0.6640
15374TIP3    H167537   1.666   2.423   4.059 -0.5513  0.6005 -0.2022
15374TIP3    H267538   1.646   2.393   4.207  1.0380  1.4783  0.2149
15375TIP3   OH267539   3.225   1.175   0.295 -0.2136 -0.3898 -0.2563
15375TIP3    H167540   3.289   1.214   0.356 -1.2541  0.6883  0.1845
15375TIP3    H267541   3.258   1.200   0.208 -1.0569  1.9426  0.0163
15376TIP3   OH267542   0.339   5.134   5.374 -0.2252  0.1653 -0.0211
15376TIP3    H167543   0.366   5.181   5.453 -0.0972  0.5124 -0.2670
15376TIP3    H267544   0.349   5.199   5.304  0.6701 -0.4461 -0.4728
15377TIP3   OH267545   3.400   0.638  16.274  0.1298  0.0427  0.3781
15377TIP3    H167546   3.392   0.617  16.181  0.3432  2.6011 -0.2723
15377TIP3    H267547   3.311   0.628  16.308 -0.5015  1.6157 -0.7149
15378TIP3   OH267548   6.172   5.479  12.314  1.0649 -0.3441  0.5969
15378TIP3    H167549   6.084   5.456  12.286  0.7983  1.0311  0.2380
15378TIP3    H267550   6.187   5.425  12.391 -0.6719  0.4315  1.5441
15379TIP3   OH267551   2.152   3.968  15.476 -0.0841  0.1791 -0.4212
15379TIP3    H167552   2.086   4.032  15.501 -0.8624  0.0699 -2.0758
15379TIP3    H267553   2.126   3.939  15.389  0.4457 -2.1435  0.1205
15380TIP3   OH267554   5.168   1.197   5.872  0.4319  0.2400 -0.2600
15380TIP3    H167555   5.257   1.213   5.902  0.6769  1.8876 -1.7438
15380TIP3    H267556   5.112   1.222   5.946  1.1348  0.8704  0.0662
15381TIP3   OH267557   2.582   4.060  16.100  0.3892 -0.1168  0.4175
15381TIP3    H167558   2.654   4.095  16.047 -1.6750  0.7285 -2.0686
15381TIP3    H267559   2.556   3.980  16.055 -0.4851 -0.1911  1.0205
15382TIP3   OH267560   2.578   0.895  11.598 -0.0672 -0.0347 -0.3435
15382TIP3    H167561   2.657   0.880  11.650  0.0150  0.6200 -0.2660
15382TIP3    H267562   2.587   0.985  11.566 -2.4065  1.4500  2.6041
15383TIP3   OH267563   3.748   2.901   3.881  0.3302  0.3245  0.3953
15383TIP3    H167564   3.712   2.911   3.969  1.2508  2.5704  0.5814
15383TIP3    H267565   3.840   2.925   3.890  0.3839  0.8434 -1.2204
15384TIP3   OH267566   3.361   1.864   3.921 -0.1506  0.0181 -0.1706
15384TIP3    H167567   3.268   1.884   3.933  0.0484  2.3079 -1.8651
15384TIP3    H267568   3.395   1.856   4.011 -1.7332  0.3134  0.4963
15385TIP3   OH267569   0.104   2.890   5.254 -0.2558 -0.0030  0.2542
15385TIP3    H167570   0.186   2.892   5.204  0.3769 -0.9009  1.2183
15385TIP3    H267571   0.067   2.978   5.242  1.0264  0.5390  0.0814
15386TIP3   OH267572   3.762   4.240   1.745 -0.7097 -0.3249  0.3560
15386TIP3    H167573   3.783   4.301   1.816  1.6987  0.2323 -0.7222
15386TIP3    H267574   3.789   4.286   1.666 -1.2033 -1.8136 -0.7145
15387TIP3   OH267575   3.708   3.895  14.134  0.1364 -0.2688  0.5907
15387TIP3    H167576   3.623   3.878  14.176 -1.1748  0.2174 -1.7314
15387TIP3    H267577   3.687   3.946  14.056  2.3623 -1.7103 -1.0836
15388TIP3   OH267578   0.807   1.793   3.876 -0.2847  0.9213  0.7385
15388TIP3    H167579   0.774   1.707   3.902  0.8206  0.8033  1.8868
15388TIP3    H267580   0.824   1.838   3.959  0.4182  1.7402  0.1704
15389TIP3   OH267581   0.623   5.208   0.531  0.1785  0.1441  0.2949
15389TIP3    H167582   0.625   5.188   0.437  0.1536 -0.7277  0.4747
15389TIP3    H267583   0.557   5.277   0.538 -0.1390 -0.0878 -0.2780
15390TIP3   OH267584   4.956   4.136  14.830 -0.0789 -0.1131  0.4470
15390TIP3    H167585   4.920   4.121  14.743  0.0107 -1.7324  0.6613
15390TIP3    H267586   5.050   4.140  14.817 -0.0602 -0.4431  0.4779
15391TIP3   OH267587   4.635   5.830  11.761 -0.0865 -0.1803  0.9121
15391TIP3    H167588   4.608   5.817  11.670  1.2260 -1.2540  0.6497
15391TIP3    H267589   4.681   5.749  11.784  0.0676  0.2992  2.3619
15392TIP3   OH267590   2.094   6.438   4.094  0.8059 -0.4213  0.3351
15392TIP3    H167591   2.088   6.468   4.185 -1.5570 -0.3162  0.1929
15392TIP3    H267592   2.126   6.514   4.046 -0.3114  0.3337  0.7374
15393TIP3   OH267593   1.458   4.213  13.806 -0.1966 -0.0400  0.4176
15393TIP3    H167594   1.539   4.238  13.850 -0.5960  1.8373  0.2033
15393TIP3    H267595   1.453   4.118  13.816  1.0748  0.0117  2.0517
15394TIP3   OH267596   3.524   1.009  15.885 -0.0391  0.4572 -0.2320
15394TIP3    H167597   3.538   1.092  15.931  4.4371  0.3666 -1.0052
15394TIP3    H267598   3.589   0.949  15.922 -1.5309 -2.0647 -1.3471
15395TIP3   OH267599   3.164   2.585  11.847 -0.4369 -0.2063 -0.1500
15395TIP3    H167600   3.072   2.594  11.820 -0.5542 -1.3499 -0.1501
15395TIP3    H267601   3.160   2.540  11.931  0.1321 -0.2199 -0.1284
15396TIP3   OH267602   4.977   3.592  10.776  0.4863 -0.3032  0.0819
15396TIP3    H167603   5.037   3.541  10.832 -1.0254 -1.8655  0.3532
15396TIP3    H267604   5.035   3.634  10.712  1.8726 -2.1044  0.0601
15397TIP3   OH267605   6.760   3.069  13.634 -0.0593  0.1788  0.2262
15397TIP3    H167606   6.712   3.048  13.714 -0.6886  0.5648 -0.0395
15397TIP3    H267607   6.736   2.999  13.573  1.8439 -1.1509  0.9122
15398TIP3   OH267608   5.504   0.810  11.347  0.2003 -0.3144  0.6835
15398TIP3    H167609   5.468   0.849  11.426 -0.2002 -1.0788  0.8956
15398TIP3    H267610   5.581   0.762  11.377  1.6895  1.6491  0.1691
15399TIP3   OH267611   4.346   4.556  14.334  0.6573 -0.4191  0.6927
15399TIP3    H167612   4.298   4.501  14.272  0.1384  1.0728 -0.2793
15399TIP3    H267613   4.426   4.581  14.287 -0.2685  1.6481  0.1383
15400TIP3   OH267614   4.870   1.268   1.611 -0.4527  0.0471  0.0177
15400TIP3    H167615   4.890   1.354   1.575  0.0269 -0.6844 -1.5541
15400TIP3    H267616   4.940   1.251   1.674  0.4156  0.1239 -0.9012
15401TIP3   OH267617   5.322   3.018  11.088 -0.1945 -0.0073 -0.3589
15401TIP3    H167618   5.360   3.026  11.001  2.1845  2.1024  0.7440
15401TIP3    H267619   5.375   2.952  11.132  0.8844  1.3622  0.4898
15402TIP3   OH267620   5.805   5.551  16.089 -0.2028 -0.4035  0.0522
15402TIP3    H167621   5.816   5.614  16.160 -1.6558  0.3183 -0.3319
15402TIP3    H267622   5.771   5.472  16.131 -0.0448 -0.3511  0.2856
15403TIP3   OH267623   4.763   5.383  14.890  0.2452 -0.1478 -0.6036
15403TIP3    H167624   4.837   5.366  14.831  1.2082 -0.8654  0.7571
15403TIP3    H267625   4.785   5.335  14.970 -0.7391  1.2540  0.5506
15404TIP3   OH267626   1.280   0.157   5.559 -0.2959  0.1311  0.0379
15404TIP3    H167627   1.235   0.201   5.631 -0.4863  0.6625 -0.4062
15404TIP3    H267628   1.371   0.188   5.565 -0.1545 -0.3302  0.4417
15405TIP3   OH267629   3.894   3.281   4.354 -0.2732 -0.5365  0.2437
15405TIP3    H167630   3.962   3.214   4.361  0.7619  0.6195  1.9907
15405TIP3    H267631   3.871   3.300   4.445 -1.4097  0.6294 -0.2701
15406TIP3   OH267632   1.567   4.001  12.332  0.0435 -0.3594  0.2525
15406TIP3    H167633   1.658   4.030  12.325  0.4626 -1.4854  0.6752
15406TIP3    H267634   1.574   3.906  12.344 -1.1834 -0.4224  0.5678
15407TIP3   OH267635   2.492   2.054   1.819  0.1978  0.3025  0.1247
15407TIP3    H167636   2.546   2.117   1.772 -0.5889 -0.3644 -1.7676
15407TIP3    H267637   2.514   1.969   1.781 -0.6404 -0.2520  0.8234
15408TIP3   OH267638   1.063   3.716   2.076  0.1351 -0.1140 -0.2928
15408TIP3    H167639   1.022   3.695   2.160  1.1949  0.4873  0.3941
15408TIP3    H267640   1.012   3.791   2.044 -1.2643 -1.3001 -0.9651
15409TIP3   OH267641   1.666   3.522   2.564 -0.1254 -0.3319 -0.2898
15409TIP3    H167642   1.710   3.444   2.531 -1.9604 -0.6806 -2.1147
15409TIP3    H267643   1.579   3.491   2.589 -0.5156  0.9405 -0.0174
15410TIP3   OH267644   1.012   1.622  11.582 -0.0814  0.1671  0.3801
15410TIP3    H167645   1.080   1.557  11.566 -0.3093  0.0464 -0.1112
15410TIP3    H267646   0.969   1.592  11.662 -0.7420 -0.7627 -0.3034
15411TIP3   OH267647   5.952   2.748  11.125 -0.7009 -0.4359  0.0510
15411TIP3    H167648   5.899   2.804  11.069 -0.9204 -0.5450  0.1506
15411TIP3    H267649   6.010   2.809  11.171  0.7609 -0.4856 -1.6365
15412TIP3   OH267650   6.468   0.873  11.848 -0.6417  0.2971  0.2572
15412TIP3    H167651   6.557   0.881  11.815  0.0870 -3.8168  0.7276
15412TIP3    H267652   6.431   0.961  11.839  2.7236  1.6793 -1.9208
15413TIP3   OH267653   3.651   3.080  13.826  0.0784 -0.4159  0.4607
15413TIP3    H167654   3.710   3.135  13.877 -1.8482  2.9560 -0.6100
15413TIP3    H267655   3.581   3.056  13.888 -0.4140  0.6389  0.3387
15414TIP3   OH267656   0.586   4.375  16.901 -0.3026 -0.0403  0.1010
15414TIP3    H167657   0.494   4.394  16.886 -0.3253  1.7475  2.0811
15414TIP3    H267658   0.628   4.394  16.817 -1.5008  0.8765 -0.3260
15415TIP3   OH267659   3.245   1.127  13.474  0.2589  0.0599  0.4217
15415TIP3    H167660   3.250   1.168  13.560  0.4036  2.1474 -0.5166
15415TIP3    H267661   3.309   1.174  13.421  0.6429 -1.6147 -0.6906
15416TIP3   OH267662   3.195   1.133  15.309  0.2364 -0.7601  0.1700
15416TIP3    H167663   3.139   1.193  15.259  0.9018  0.4533  0.8114
15416TIP3    H267664   3.257   1.191  15.355  0.7435 -1.9351  1.0321
15417TIP3   OH267665   3.307   6.684   0.288  0.3963 -0.1177 -0.2084
15417TIP3    H167666   3.339   6.762   0.242 -1.0847  1.6641  1.5900
15417TIP3    H267667   3.357   6.682   0.369 -1.3932  0.5777  0.9675
15418TIP3   OH267668   4.908   4.081   5.946  0.3445 -0.5989  0.0245
15418TIP3    H167669   4.903   4.157   6.005 -0.6190 -1.0699  0.5703
15418TIP3    H267670   4.901   4.005   6.004  0.3095 -1.0889 -0.6140
15419TIP3   OH267671   5.362   6.000   0.209 -0.7681  0.2507 -0.3861
15419TIP3    H167672   5.381   5.909   0.234 -2.1653 -0.1006 -0.5739
15419TIP3    H267673   5.386   6.005   0.117  1.2525  0.6609  0.0979
15420TIP3   OH267674   0.751   5.109  14.651 -0.0528 -0.2025  0.6476
15420TIP3    H167675   0.822   5.069  14.702 -0.1200 -0.3222  0.6449
15420TIP3    H267676   0.717   5.039  14.597  1.7130  0.4790 -1.4904
15421TIP3   OH267677   1.539   1.989   4.974 -0.0472 -0.8266  0.2889
15421TIP3    H167678   1.546   1.945   5.059  0.8931 -0.8714  0.1997
15421TIP3    H267679   1.448   1.976   4.948  0.1486 -2.5686  0.3524
15422TIP3   OH267680   1.886   0.571   1.269  0.1812 -0.1094  0.1233
15422TIP3    H167681   1.936   0.652   1.280 -1.3098  1.0214 -0.8680
15422TIP3    H267682   1.852   0.552   1.357  0.9889  0.0326  0.4719
15423TIP3   OH267683   1.622   0.169   5.102 -0.3398 -0.5276  0.4224
15423TIP3    H167684   1.573   0.095   5.136 -1.0381  0.4525  1.6067
15423TIP3    H267685   1.639   0.225   5.178  0.6312  0.2825 -0.3499
15424TIP3   OH267686   4.138   4.364   1.157 -0.4103  0.3855 -0.1020
15424TIP3    H167687   4.137   4.414   1.239 -1.6943  1.5927 -0.8120
15424TIP3    H267688   4.046   4.358   1.131 -0.0107  0.2052 -1.5680
15425TIP3   OH267689   6.691   2.567   6.274 -0.0216 -0.0552 -0.4936
15425TIP3    H167690   6.658   2.504   6.338  0.7268  0.3704  0.3280
15425TIP3    H267691   6.781   2.584   6.301 -0.4270  1.9600 -0.1946
15426TIP3   OH267692   5.995   2.981   2.323 -0.2198 -0.2632  0.7993
15426TIP3    H167693   5.937   2.984   2.247 -0.6967  0.6910  1.1830
15426TIP3    H267694   6.083   2.976   2.285 -0.4313  0.5122  0.1707
15427TIP3   OH267695   5.771   5.791  14.283  0.5794 -0.0287 -0.0958
15427TIP3    H167696   5.759   5.884  14.262 -1.2751 -0.8208 -3.3428
15427TIP3    H267697   5.689   5.766  14.326 -0.0845 -0.6590 -1.6573
15428TIP3   OH267698   2.664   3.152  11.360 -0.5254 -0.0395  0.2203
15428TIP3    H167699   2.705   3.109  11.284 -0.1531 -3.1913  2.0570
15428TIP3    H267700   2.574   3.169  11.332  0.0376  0.4565 -1.4476
15429TIP3   OH267701   3.029   1.029   6.567  0.3721  0.2647  0.6125
15429TIP3    H167702   2.944   1.000   6.532  1.3490 -1.1870 -0.7159
15429TIP3    H267703   3.090   0.959   6.543  2.2321  1.8803  0.3599
15430TIP3   OH267704   5.304   0.790  13.854  0.0232  0.0579  0.0200
15430TIP3    H167705   5.250   0.713  13.834  1.7760 -1.1979 -0.0606
15430TIP3    H267706   5.266   0.859  13.800 -2.5017 -0.3087  1.1471
15431TIP3   OH267707   2.191   5.131  16.404  0.2792 -0.2614  0.0085
15431TIP3    H167708   2.157   5.064  16.464 -0.4160 -2.9308 -3.0425
15431TIP3    H267709   2.281   5.101  16.385  1.4879  2.0603  1.6294
15432TIP3   OH267710   1.780   2.558  11.290 -0.1299 -0.2947  0.5414
15432TIP3    H167711   1.777   2.624  11.359 -0.3372  0.1397  0.1250
15432TIP3    H267712   1.742   2.602  11.213 -1.0998 -1.1769  0.4934
15433TIP3   OH267713   0.379   6.313   4.470  0.3174  0.5894  0.8327
15433TIP3    H167714   0.297   6.363   4.473  0.5045  1.2293 -1.9441
15433TIP3    H267715   0.351   6.222   4.473 -0.5740  0.7948 -0.2709
15434TIP3   OH267716   4.056   3.801   4.319  0.1362  0.2392  0.5247
15434TIP3    H167717   3.986   3.737   4.315 -0.6385  1.1338 -0.8356
15434TIP3    H267718   4.050   3.849   4.236  0.6707  2.0823  1.4980
15435TIP3   OH267719   3.115   5.474   0.306  0.1080  0.0906 -0.4825
15435TIP3    H167720   3.203   5.483   0.271 -0.5966 -1.0622 -2.8384
15435TIP3    H267721   3.066   5.546   0.266 -0.6091 -0.9610 -1.5940
15436TIP3   OH267722   4.370   3.428  14.787  1.0810 -0.4153 -0.1274
15436TIP3    H167723   4.325   3.510  14.765  0.8850 -0.7677 -1.0684
15436TIP3    H267724   4.450   3.456  14.832  2.5766  0.4763 -3.1153
15437TIP3   OH267725   0.335   2.363  13.587  0.1681 -0.0580 -0.0397
15437TIP3    H167726   0.349   2.424  13.660  0.1972 -0.8605  0.6438
15437TIP3    H267727   0.387   2.285  13.611  0.2634 -0.2904 -0.9707
15438TIP3   OH267728   6.044   0.879  11.045  0.4723 -0.4322 -0.2246
15438TIP3    H167729   6.004   0.889  11.131  0.8009 -2.1841  0.1838
15438TIP3    H267730   6.030   0.963  11.002 -0.7092  0.1030  1.1051
15439TIP3   OH267731   3.239   0.898   2.595  0.4988  0.0505  0.4438
15439TIP3    H167732   3.305   0.931   2.655  0.1606  1.7697 -0.0888
15439TIP3    H267733   3.158   0.899   2.645  0.2343  1.3941  0.0228
15440TIP3   OH267734   4.163   3.124  13.162  0.0546 -0.3034  0.4368
15440TIP3    H167735   4.227   3.194  13.151  0.4697 -0.4655  1.7092
15440TIP3    H267736   4.205   3.061  13.221 -2.0981  0.7448  3.3386
15441TIP3   OH267737   3.096   6.742  13.378  0.3286 -0.1541 -0.0930
15441TIP3    H167738   3.076   6.769  13.289  2.7082  0.0968 -0.6205
15441TIP3    H267739   3.178   6.692  13.371  0.8317  0.2623  1.9835
15442TIP3   OH267740   4.467   0.401   0.879  0.6023 -0.3425  0.2828
15442TIP3    H167741   4.410   0.465   0.839 -1.2700 -1.2998  1.2930
15442TIP3    H267742   4.535   0.385   0.814  0.1852  1.4016 -0.6345
15443TIP3   OH267743   0.351   1.648  12.147 -0.5253  0.1350 -0.0314
15443TIP3    H167744   0.446   1.632  12.153 -0.3094  0.2408 -2.2329
15443TIP3    H267745   0.334   1.715  12.214  0.4529 -1.6559  2.1186
15444TIP3   OH267746   0.209   3.414  15.924  0.6442  0.0658 -0.2017
15444TIP3    H167747   0.219   3.393  15.831  0.7413  1.0288 -0.4193
15444TIP3    H267748   0.200   3.510  15.926 -0.4838 -0.0397  0.6798
15445TIP3   OH267749   2.504   4.769   1.649  0.2363 -0.0759  0.0136
15445TIP3    H167750   2.500   4.863   1.668  1.5907 -0.3139  1.6894
15445TIP3    H267751   2.498   4.727   1.735 -0.9688 -1.5803 -0.7552
15446TIP3   OH267752   1.178   1.297   2.793 -0.5299  0.3763  0.0432
15446TIP3    H167753   1.173   1.392   2.781  4.1193  0.7798 -0.4066
15446TIP3    H267754   1.225   1.265   2.716 -2.4180 -2.4750 -0.0780
15447TIP3   OH267755   6.467   4.863  17.067 -1.1481  0.0833  0.3458
15447TIP3    H167756   6.403   4.867  16.996  0.1209 -1.0948 -0.9172
15447TIP3    H267757   6.547   4.898  17.028 -0.2932 -1.0669  1.0394
15448TIP3   OH267758   4.376   2.761  12.797  0.2153 -0.0184  0.0902
15448TIP3    H167759   4.369   2.841  12.850 -0.5133 -0.3963  0.5793
15448TIP3    H267760   4.419   2.790  12.717 -0.4656  0.9805  0.0547
15449TIP3   OH267761   0.696   6.718   2.639  0.4352 -0.3388 -0.3641
15449TIP3    H167762   0.619   6.661   2.634 -0.6189  0.8251  1.5184
15449TIP3    H267763   0.745   6.684   2.714  1.8295 -1.0593 -1.5287
15450TIP3   OH267764   6.318   0.946   0.123  0.1707  0.9701 -0.2086
15450TIP3    H167765   6.296   1.039   0.124 -0.0840  1.0001 -2.5767
15450TIP3    H267766   6.396   0.939   0.177 -0.2446  2.4196  0.6401
15451TIP3   OH267767   6.302   4.280   4.190 -0.4191 -0.1660 -0.2229
15451TIP3    H167768   6.253   4.320   4.117  0.2409 -0.6990 -0.9745
15451TIP3    H267769   6.290   4.186   4.178  0.6119 -0.2917 -0.2919
15452TIP3   OH267770   6.031   0.507   1.053 -0.4645 -0.2617 -0.5293
15452TIP3    H167771   6.025   0.476   0.963  1.8067 -1.7197 -0.2535
15452TIP3    H267772   6.044   0.427   1.105 -1.0103  0.6140  1.0264
15453TIP3   OH267773   3.467   2.429   2.007  0.2264  0.6881 -0.1928
15453TIP3    H167774   3.544   2.386   2.044  0.3574  1.2628  0.1978
15453TIP3    H267775   3.471   2.519   2.039 -1.8941  0.1435  1.8641
15454TIP3   OH267776   5.737   6.570   3.611  0.1165 -0.3240  0.1023
15454TIP3    H167777   5.674   6.601   3.546  0.7232 -0.9386 -0.7900
15454TIP3    H267778   5.741   6.476   3.597  2.9475 -0.0769 -1.4681
15455TIP3   OH267779   0.483   2.259  12.958 -0.3997  0.0496 -0.3929
15455TIP3    H167780   0.440   2.180  12.925  0.0293  0.0204 -0.9046
15455TIP3    H267781   0.513   2.304  12.879  1.2402 -0.3565 -0.0427
15456TIP3   OH267782   2.973   3.719  12.058 -0.0767 -0.1319  0.1821
15456TIP3    H167783   2.933   3.797  12.097  0.9964  0.2195  0.6091
15456TIP3    H267784   2.974   3.655  12.129 -2.6874 -1.2547 -0.6540
15457TIP3   OH267785   2.752   2.512   1.016 -0.3437  0.3635 -0.1271
15457TIP3    H167786   2.741   2.501   0.921  1.0654 -0.5369 -0.2220
15457TIP3    H267787   2.664   2.526   1.049 -0.7073  2.5749 -1.7740
15458TIP3   OH267788   5.204   3.995   5.452  0.2633  0.5105 -0.3938
15458TIP3    H167789   5.205   4.088   5.473  0.0184  1.2082 -3.0902
15458TIP3    H267790   5.167   3.990   5.364 -0.8497 -2.2714  0.0965
15459TIP3   OH267791   4.523   0.225  12.528 -0.3933 -0.0692 -0.3055
15459TIP3    H167792   4.541   0.236  12.434 -2.3848 -0.2277 -0.7717
15459TIP3    H267793   4.592   0.168  12.560  0.0621 -0.4032 -1.7932
15460TIP3   OH267794   1.185   1.672  11.215 -0.2217 -0.1954  0.1947
15460TIP3    H167795   1.175   1.765  11.235  0.3500 -0.4679  1.8767
15460TIP3    H267796   1.242   1.670  11.138  0.9662  0.8154  1.0187
15461TIP3   OH267797   2.615   2.184   2.747 -0.2057 -0.4616 -0.0362
15461TIP3    H167798   2.610   2.188   2.651 -0.6633  0.7783  0.0166
15461TIP3    H267799   2.623   2.091   2.767  2.6465 -0.5948 -1.3853
15462TIP3   OH267800   2.692   6.648  15.605 -0.0324  0.6512  0.5945
15462TIP3    H167801   2.737   6.729  15.629 -0.3752  0.3094  2.5996
15462TIP3    H267802   2.618   6.644  15.666  0.3058 -1.4374  0.9194
15463TIP3   OH267803   1.995   5.339  14.373 -0.1072  0.1639  0.8572
15463TIP3    H167804   1.950   5.374  14.297 -0.2235 -1.6492  0.0254
15463TIP3    H267805   1.954   5.254  14.388  0.9578 -0.1912  1.9928
15464TIP3   OH267806   3.974   0.689  11.390  0.4553 -0.6547  0.0039
15464TIP3    H167807   3.889   0.645  11.389  1.3631 -2.5624  1.0087
15464TIP3    H267808   4.036   0.622  11.364  1.7825  0.4092  0.3010
15465TIP3   OH267809   3.556   2.748  12.904  0.2283 -0.1988  0.1714
15465TIP3    H167810   3.542   2.653  12.908  0.4107 -0.2318  0.0454
15465TIP3    H267811   3.569   2.766  12.811  1.0354 -0.1753  0.2835
15466TIP3   OH267812   0.276   2.291  17.110  0.4948  0.2616  0.6565
15466TIP3    H167813   0.243   2.293  17.020  0.8867 -0.2452  0.4997
15466TIP3    H267814   0.356   2.238  17.105 -1.1830 -2.5678  1.8533
15467TIP3   OH267815   2.770   3.336  11.517  0.6981  0.3735 -0.1307
15467TIP3    H167816   2.740   3.285  11.441 -1.4549 -1.3237  1.6950
15467TIP3    H267817   2.858   3.302  11.535  0.0443 -1.4372 -0.1028
15468TIP3   OH267818   3.629   1.784   3.868  0.2452 -0.1702  0.2932
15468TIP3    H167819   3.655   1.716   3.931  0.5248 -0.4103 -0.0819
15468TIP3    H267820   3.544   1.814   3.900 -0.5759 -1.7104 -0.3426
15469TIP3   OH267821   4.887   1.013   1.510 -0.8033 -0.7245 -1.0589
15469TIP3    H167822   4.960   1.027   1.449 -0.8674 -1.2029 -1.2487
15469TIP3    H267823   4.882   1.094   1.561 -1.2840  0.0102 -2.2493
15470TIP3   OH267824   2.848   0.579  14.223  0.0914  0.4502  0.0520
15470TIP3    H167825   2.843   0.565  14.318 -2.9170 -0.3232 -0.1141
15470TIP3    H267826   2.892   0.663  14.214  2.8829 -0.6793  1.9465
15471TIP3   OH267827   3.973   3.833   5.604  0.4531  0.4354  0.0801
15471TIP3    H167828   3.883   3.826   5.573  1.1799 -0.2239 -2.0361
15471TIP3    H267829   3.999   3.922   5.584  0.4858  0.4275  0.0873
15472TIP3   OH267830   4.318   6.262   6.361  0.0649 -0.0722  0.2511
15472TIP3    H167831   4.408   6.282   6.335  0.0245  0.2094  0.3272
15472TIP3    H267832   4.320   6.268   6.457 -0.1541  0.4414  0.2266
15473TIP3   OH267833   2.624   1.859  12.490  0.0548  0.3518 -0.1412
15473TIP3    H167834   2.706   1.828  12.528  0.7842  1.2104 -0.9406
15473TIP3    H267835   2.595   1.788  12.433  1.3955  0.8321 -1.5038
15474TIP3   OH267836   2.552   2.515   4.154  0.0992  0.7865  0.4414
15474TIP3    H167837   2.588   2.596   4.188  2.1383 -0.1189  0.5974
15474TIP3    H267838   2.513   2.471   4.230 -0.6925  1.4268  0.4195
15475TIP3   OH267839   2.406   4.732  13.968  0.1190  0.3894  0.2544
15475TIP3    H167840   2.394   4.772  14.055  1.7141  1.3623  0.0602
15475TIP3    H267841   2.478   4.671  13.980 -0.1277 -0.0054 -0.2363
15476TIP3   OH267842   1.230   3.197   2.774 -0.1958  0.0132 -0.0727
15476TIP3    H167843   1.275   3.272   2.813  0.8587 -0.4849 -0.2998
15476TIP3    H267844   1.154   3.184   2.830  0.5343  0.1807  1.0004
15477TIP3   OH267845   5.639   0.651  15.129  0.2733 -0.6018 -0.1633
15477TIP3    H167846   5.723   0.630  15.089  0.0128 -0.7296 -0.6634
15477TIP3    H267847   5.644   0.614  15.217  2.0044  2.2504  1.0890
15478TIP3   OH267848   6.117   6.447  14.270  0.4401 -0.0590  0.2674
15478TIP3    H167849   6.072   6.366  14.293  0.6964  0.1857  1.6787
15478TIP3    H267850   6.086   6.511  14.333 -0.0645  1.0762 -1.0741
15479TIP3   OH267851   5.278   6.280  11.779 -0.5786 -0.1064  0.4124
15479TIP3    H167852   5.199   6.311  11.736 -0.1614  0.1056 -0.2052
15479TIP3    H267853   5.350   6.307  11.722 -0.0880 -0.7044  0.7262
15480TIP3   OH267854   1.101   0.332   4.081 -0.6093  0.3661 -0.1752
15480TIP3    H167855   1.129   0.408   4.132 -1.0937  0.0293  0.6164
15480TIP3    H267856   1.022   0.361   4.036 -0.1711  0.6711 -0.7464
15481TIP3   OH267857   6.138   1.844   5.807 -0.2189 -0.4889 -0.2971
15481TIP3    H167858   6.192   1.833   5.885 -1.5924  1.0974  0.9368
15481TIP3    H267859   6.201   1.856   5.736  1.0958  1.0679  1.0578
15482TIP3   OH267860   6.303   5.191  13.437 -0.1897 -0.1923 -0.0686
15482TIP3    H167861   6.338   5.256  13.498 -0.9844  0.4333 -0.2689
15482TIP3    H267862   6.261   5.242  13.369  1.1748 -0.8699 -1.4822
15483TIP3   OH267863   2.465   0.350  16.864 -0.0722 -0.2503 -0.8510
15483TIP3    H167864   2.421   0.272  16.897 -4.5818  1.3777 -2.2537
15483TIP3    H267865   2.455   0.346  16.769  1.3489  1.1478 -1.1186
15484TIP3   OH267866   2.650   1.991   1.154  0.5469  0.3208  0.2898
15484TIP3    H167867   2.557   2.014   1.150  0.4989  0.2187  0.7869
15484TIP3    H267868   2.651   1.906   1.199  1.0312  1.2584  2.1222
15485TIP3   OH267869   0.169   4.027  13.959 -0.1960 -0.0317 -0.1636
15485TIP3    H167870   0.149   4.068  14.043 -0.7943  2.6644 -1.5294
15485TIP3    H267871   0.264   4.013  13.960 -0.1913  0.0499  0.9044
15486TIP3   OH267872   4.678   5.329   5.791 -0.0942  0.4439 -0.0723
15486TIP3    H167873   4.596   5.314   5.744 -0.5671 -1.8638  1.3430
15486TIP3    H267874   4.654   5.325   5.883  1.6855 -1.2088  0.3944
15487TIP3   OH267875   2.821   0.291  12.676 -0.2422  0.1121 -0.0134
15487TIP3    H167876   2.911   0.285  12.645 -0.1798 -1.8083  0.3934
15487TIP3    H267877   2.815   0.226  12.746 -1.4633  1.4908  1.2384
15488TIP3   OH267878   2.951   2.223   2.573 -0.2183 -0.4175  0.1408
15488TIP3    H167879   2.970   2.305   2.527 -0.1058 -0.5181  0.0061
15488TIP3    H267880   2.954   2.246   2.665 -1.3760 -0.0030  0.0997
15489TIP3   OH267881   4.245   1.312   1.081 -0.4046  0.0763 -0.2556
15489TIP3    H167882   4.233   1.269   1.165  0.2293  0.7495  0.1912
15489TIP3    H267883   4.156   1.326   1.048 -0.7125  0.9842  0.9128
15490TIP3   OH267884   0.499   3.677  12.800 -0.5604  0.0122  0.3006
15490TIP3    H167885   0.442   3.613  12.844 -2.2708 -0.3791 -2.2576
15490TIP3    H267886   0.468   3.678  12.709  2.1878  1.4165 -0.7256
15491TIP3   OH267887   5.788   3.729   6.798  0.6287  0.1358 -0.1914
15491TIP3    H167888   5.733   3.656   6.771  0.9826 -0.3042  0.2549
15491TIP3    H267889   5.811   3.773   6.716 -0.3491  0.3125 -0.3890
15492TIP3   OH267890   2.730   4.736  11.591  0.6004  0.2617 -0.2039
15492TIP3    H167891   2.739   4.769  11.502 -0.3169  1.8001  0.2402
15492TIP3    H267892   2.746   4.812  11.647 -1.3328 -0.0725  0.8781
15493TIP3   OH267893   4.990   1.782  14.824 -0.0294  0.7383 -0.3132
15493TIP3    H167894   4.975   1.876  14.834  1.2339  0.9717 -0.5017
15493TIP3    H267895   4.905   1.747  14.797 -0.7064  1.7046  0.4735
15494TIP3   OH267896   4.560   1.239  11.661  0.0489  0.2114  0.1440
15494TIP3    H167897   4.595   1.150  11.653 -1.3783 -0.5424  1.6563
15494TIP3    H267898   4.465   1.228  11.648 -0.3447  1.2390  1.8880
15495TIP3   OH267899   5.667   6.725   1.473 -0.1043  0.2254 -0.2787
15495TIP3    H167900   5.693   6.760   1.388  0.4404  0.1558 -0.1405
15495TIP3    H267901   5.571   6.733   1.473 -0.3451 -1.6995 -1.7617
15496TIP3   OH267902   6.555   4.052   3.819 -0.4502  0.1326  0.2507
15496TIP3    H167903   6.533   3.988   3.887 -2.8316  0.0791 -0.4647
15496TIP3    H267904   6.637   4.020   3.782 -0.4487 -1.2831  1.3828
15497TIP3   OH267905   1.575   5.595  16.178 -0.3785 -0.1848 -0.4365
15497TIP3    H167906   1.565   5.690  16.167 -1.7889 -0.2825 -0.1762
15497TIP3    H267907   1.486   5.563  16.185  0.1197 -1.1741  2.7106
15498TIP3   OH267908   1.109   2.644  13.810 -0.7801 -0.0390  0.1113
15498TIP3    H167909   1.021   2.661  13.844 -0.7659 -0.6436  0.4630
15498TIP3    H267910   1.112   2.691  13.727 -1.1992  0.5476  0.4201
15499TIP3   OH267911   5.736   1.761   2.667 -0.7158 -0.1234  0.4756
15499TIP3    H167912   5.689   1.812   2.601  0.3242  1.5423  0.9638
15499TIP3    H267913   5.788   1.699   2.617 -1.6330 -0.4004 -0.1602
15500TIP3   OH267914   4.331   4.238  12.390  0.0189  0.2802  0.1841
15500TIP3    H167915   4.392   4.301  12.428 -0.2690 -0.2715  1.6370
15500TIP3    H267916   4.292   4.285  12.315  0.6007  1.4249  0.5704
15501TIP3   OH267917   6.015   4.711   2.711 -0.0160  0.2835 -0.0115
15501TIP3    H167918   5.996   4.633   2.763 -0.3316  0.3276 -0.0631
15501TIP3    H267919   5.938   4.766   2.720  0.3722  0.7778  0.3641
15502TIP3   OH267920   1.766   5.690   3.445 -0.0699 -0.1096  0.0765
15502TIP3    H167921   1.764   5.774   3.490  2.3883  0.7372 -1.1864
15502TIP3    H267922   1.790   5.627   3.513 -0.1000  0.5131  0.6734
15503TIP3   OH267923   3.976   2.488   0.054 -1.0460  0.1485 -0.1670
15503TIP3    H167924   4.036   2.416   0.075 -0.6645  0.3606 -0.5226
15503TIP3    H267925   3.903   2.477   0.115 -0.5354  0.0243  0.4242
15504TIP3   OH267926   1.569   6.359   5.743 -0.1628  0.2617  0.1328
15504TIP3    H167927   1.479   6.368   5.714  0.0095 -0.7850 -0.7720
15504TIP3    H267928   1.620   6.405   5.677  0.0580 -0.1612  0.0072
15505TIP3   OH267929   5.252   1.408  16.071 -0.4245  0.1005  0.0029
15505TIP3    H167930   5.221   1.329  16.027 -1.2578 -0.8354  2.1252
15505TIP3    H267931   5.336   1.382  16.109 -0.3002  0.4941 -0.0053
15506TIP3   OH267932   0.815   0.874  13.612 -0.4574  0.0289  0.4957
15506TIP3    H167933   0.771   0.789  13.610 -0.0075 -0.1986 -1.4761
15506TIP3    H267934   0.745   0.938  13.601 -0.6123 -0.1632  0.3569
15507TIP3   OH267935   6.472   1.161   1.833 -0.2583  0.3120 -0.5132
15507TIP3    H167936   6.451   1.077   1.792 -0.2063 -0.0195  0.1377
15507TIP3    H267937   6.547   1.142   1.889 -1.0306  0.5144  0.6080
15508TIP3   OH267938   0.848   4.486   1.417  0.4388 -0.4056  0.2412
15508TIP3    H167939   0.777   4.483   1.353  1.1022 -1.2521 -0.4604
15508TIP3    H267940   0.822   4.423   1.484  0.2504 -0.2774  0.2919
15509TIP3   OH267941   1.262   6.139  13.414  1.4983  0.4360  0.0455
15509TIP3    H167942   1.223   6.227  13.424 -0.0529 -0.2055  0.0136
15509TIP3    H267943   1.223   6.105  13.334 -0.5773 -1.5139  1.7393
15510TIP3   OH267944   5.506   0.955  16.814 -0.4786 -0.0100  0.3640
15510TIP3    H167945   5.545   0.876  16.776  1.4814  0.4803  1.2608
15510TIP3    H267946   5.453   0.923  16.887 -1.3954 -0.6428 -0.5455
15511TIP3   OH267947   0.989   0.849   0.004  0.3795  0.1195 -0.3387
15511TIP3    H167948   0.929   0.892  -0.058 -1.0545 -1.6668 -0.2755
15511TIP3    H267949   0.939   0.843   0.085  1.7805  1.2847  0.6583
15512TIP3   OH267950   3.515   3.110   4.555 -0.1986  0.6360  0.5066
15512TIP3    H167951   3.429   3.068   4.559 -1.0795  2.4012  2.0807
15512TIP3    H267952   3.498   3.193   4.510  0.9993  0.4011 -0.4219
15513TIP3   OH267953   3.072   2.167  12.114 -0.2902  0.1922  0.0718
15513TIP3    H167954   3.070   2.100  12.183  0.3014 -0.9539 -0.9840
15513TIP3    H267955   3.030   2.126  12.039  1.5092  0.3677 -1.1068
15514TIP3   OH267956   5.397   4.921  11.851  0.2713  0.4460 -0.3404
15514TIP3    H167957   5.374   4.989  11.914 -0.0335 -1.1266  1.3548
15514TIP3    H267958   5.369   4.955  11.767 -1.4399  1.7079  0.6748
15515TIP3   OH267959   6.640   0.290  14.339 -0.2123 -0.5233  0.0997
15515TIP3    H167960   6.622   0.351  14.411  2.6738  1.1977 -0.4852
15515TIP3    H267961   6.700   0.226  14.375 -1.1013 -1.4714 -0.0385
15516TIP3   OH267962   5.275   1.573   4.935  0.6355 -0.3883 -0.4078
15516TIP3    H167963   5.289   1.582   4.840 -3.2647  3.3836 -0.9898
15516TIP3    H267964   5.185   1.539   4.942  0.7305 -0.2746  1.9293
15517TIP3   OH267965   4.509   3.771  16.989 -0.1192  0.6204  0.3194
15517TIP3    H167966   4.525   3.703  16.923  0.8621  1.2777 -0.1426
15517TIP3    H267967   4.578   3.759  17.054  0.3598  1.4676 -0.0182
15518TIP3   OH267968   1.648   5.357  12.677 -0.1897  0.2740  0.3743
15518TIP3    H167969   1.661   5.406  12.759  0.3336 -1.1966  1.1984
15518TIP3    H267970   1.561   5.317  12.687 -0.0072 -0.1344  0.3432
15519TIP3   OH267971   0.773   4.813  14.566  0.2936 -0.0578  0.3991
15519TIP3    H167972   0.811   4.743  14.620  1.6524  1.1798  1.1324
15519TIP3    H267973   0.844   4.837  14.506  0.0735  1.0990  0.5821
15520TIP3   OH267974   4.948   0.341  11.585 -0.1729 -0.4478  0.5241
15520TIP3    H167975   5.041   0.336  11.606 -0.4603 -0.8761  1.8212
15520TIP3    H267976   4.926   0.433  11.595 -0.3188 -0.6377  2.3848
15521TIP3   OH267977   5.510   3.698   0.117 -0.5139 -0.1575 -0.6109
15521TIP3    H167978   5.467   3.776   0.153 -1.5023 -0.8025 -0.3566
15521TIP3    H267979   5.587   3.732   0.072 -0.7544  0.9371 -0.2287
15522TIP3   OH267980   5.095   4.095  15.875  0.3249 -0.7266  0.3846
15522TIP3    H167981   5.069   4.053  15.793  2.2365 -0.7048 -0.2864
15522TIP3    H267982   5.157   4.163  15.848  1.1220 -0.8345  1.8735
15523TIP3   OH267983   3.565   4.709  15.034 -0.2025  0.1340 -0.2976
15523TIP3    H167984   3.576   4.662  15.116 -1.1491 -0.4518 -0.4951
15523TIP3    H267985   3.632   4.778  15.037 -0.1629  0.0636  0.9078
15524TIP3   OH267986   0.718   0.684   1.480 -1.1146 -0.7862 -0.0219
15524TIP3    H167987   0.802   0.730   1.479 -1.5824  0.2200 -2.9966
15524TIP3    H267988   0.689   0.688   1.571  1.1322  0.5850  0.6975
15525TIP3   OH267989   0.534   6.457  13.270 -0.0050  0.4169 -0.0784
15525TIP3    H167990   0.591   6.492  13.338 -0.7724  1.3388  0.1058
15525TIP3    H267991   0.586   6.388  13.228  0.7789  0.4063  0.8840
15526TIP3   OH267992   3.562   6.622   3.717 -0.2818  0.0085 -0.5108
15526TIP3    H167993   3.496   6.570   3.671  0.5533  0.7228 -2.6221
15526TIP3    H267994   3.516   6.660   3.791 -1.9391 -0.4008 -1.3000
15527TIP3   OH267995   4.059   4.140  13.396 -0.9150 -0.2186 -0.2306
15527TIP3    H167996   4.097   4.167  13.313  0.1993 -0.4191  0.2073
15527TIP3    H267997   3.999   4.211  13.419 -0.3153  0.4154 -0.6025
15528TIP3   OH267998   3.510   5.218   1.620 -0.2127 -0.2979 -0.1301
15528TIP3    H167999   3.585   5.184   1.571  0.0746 -0.8675  0.6700
15528TIP3    H268000   3.535   5.207   1.712 -0.1757  1.9607  0.1807
15529TIP3   OH268001   0.823   1.950  16.637 -0.0736  0.3125 -0.0992
15529TIP3    H168002   0.903   1.901  16.618  0.0120 -1.3627  3.7323
15529TIP3    H268003   0.850   2.018  16.698 -1.3964  0.3148  0.5199
15530TIP3   OH268004   2.810   6.136   6.036 -0.5955  0.2972 -0.0461
15530TIP3    H168005   2.772   6.160   6.120 -0.3780 -1.4528  0.5827
15530TIP3    H268006   2.855   6.053   6.052  0.9763  0.8158 -1.4687
15531TIP3   OH268007   0.764   6.028   0.632 -0.0870  0.3891  0.2261
15531TIP3    H168008   0.816   5.974   0.692 -1.3449 -0.3710  0.6550
15531TIP3    H268009   0.673   6.009   0.654 -0.5781  0.8721 -1.2451
15532TIP3   OH268010   2.968   2.470  11.469  0.0207  0.1583 -0.3954
15532TIP3    H168011   3.015   2.397  11.429 -3.3069 -1.5508 -1.5895
15532TIP3    H268012   2.965   2.537  11.401 -0.0724 -0.0985 -0.6455
15533TIP3   OH268013   2.158   4.466  15.751  0.6815  0.4903 -0.2983
15533TIP3    H168014   2.165   4.498  15.841  1.2231 -0.3214 -0.0364
15533TIP3    H268015   2.247   4.443  15.726  0.3846 -0.3646 -0.6276
15534TIP3   OH268016   5.425   0.714  16.925 -0.4144 -0.1366  0.3535
15534TIP3    H168017   5.402   0.651  16.857  2.3729 -1.8841  0.8368
15534TIP3    H268018   5.379   0.684  17.003  0.3627 -1.2685  0.4117
15535TIP3   OH268019   3.125   1.982  17.233 -0.7211 -0.2700  0.0909
15535TIP3    H168020   3.099   1.931  17.309  1.1288 -0.1656  0.8541
15535TIP3    H268021   3.123   2.073  17.263 -1.6510 -0.0776 -0.5225
15536TIP3   OH268022   2.167   1.391   4.244  1.1247  0.0902 -0.3769
15536TIP3    H168023   2.219   1.327   4.194  2.0686  1.5335 -1.3114
15536TIP3    H268024   2.212   1.474   4.230 -0.0785  0.9713  0.8112
15537TIP3   OH268025   0.256   4.481   4.919  0.5673  0.1773  0.0786
15537TIP3    H168026   0.226   4.390   4.918 -0.4407  0.4971 -0.6654
15537TIP3    H268027   0.185   4.529   4.961  0.3333  0.8413 -1.0233
15538TIP3   OH268028   5.025   3.238   0.630 -0.1284 -0.7515 -0.5888
15538TIP3    H168029   5.001   3.331   0.633 -1.9597 -1.1505 -1.5628
15538TIP3    H268030   5.021   3.215   0.537  0.1256 -1.8572 -0.3440
15539TIP3   OH268031   2.064   1.133   4.650 -0.1834  0.2860 -0.1644
15539TIP3    H168032   2.138   1.167   4.600  0.9765 -1.8531 -0.0283
15539TIP3    H268033   2.062   1.186   4.729  0.9164  0.6828 -0.3843
15540TIP3   OH268034   4.343   3.595   0.895  0.4236  0.0187 -0.0588
15540TIP3    H168035   4.297   3.590   0.812  0.4074  2.2356 -0.2470
15540TIP3    H268036   4.273   3.609   0.960  0.6209  0.6637  0.0141
15541TIP3   OH268037   4.483   2.994  11.728  0.2652 -0.7849 -0.1760
15541TIP3    H168038   4.551   3.046  11.685  0.6042 -1.0570  0.0157
15541TIP3    H268039   4.486   2.909  11.683  2.8865 -2.2480  2.3936
15542TIP3   OH268040   1.735   2.935   1.389  0.3882  0.4420  1.2774
15542TIP3    H168041   1.768   2.959   1.476  0.9418  1.5519  0.7820
15542TIP3    H268042   1.812   2.901   1.344  0.2990  0.7215  0.9181
15543TIP3   OH268043   1.575   1.727   0.650 -0.5900  0.1979 -0.4515
15543TIP3    H168044   1.596   1.819   0.636 -0.1817  0.1154 -0.4069
15543TIP3    H268045   1.660   1.682   0.644 -0.6676 -0.0734  0.3904
15544TIP3   OH268046   5.914   5.228   3.950  0.5546  0.3124  0.4053
15544TIP3    H168047   5.945   5.182   3.872  1.1932 -1.1529  1.4811
15544TIP3    H268048   5.825   5.254   3.929  0.7891  0.1389 -0.8846
15545TIP3   OH268049   6.464   2.078   2.610 -0.5053  0.9835  0.0507
15545TIP3    H168050   6.455   1.982   2.612 -0.4089  0.9472 -0.8112
15545TIP3    H268051   6.396   2.107   2.550  0.3722  1.3196 -0.8238
15546TIP3   OH268052   0.982   1.193   5.504 -0.1098 -0.1131  0.4740
15546TIP3    H168053   1.047   1.247   5.548  2.6514 -1.4119 -1.7318
15546TIP3    H268054   0.910   1.253   5.484  2.6603  2.8192 -1.6260
15547TIP3   OH268055   0.233   5.012  14.511  0.1615 -0.2701 -0.0455
15547TIP3    H168056   0.282   5.024  14.430 -0.7956 -2.3542 -1.0050
15547TIP3    H268057   0.214   5.102  14.540 -0.4895  0.5979 -2.7712
15548TIP3   OH268058   1.975   0.341  13.121 -0.2432  0.5014  0.1224
15548TIP3    H168059   1.904   0.379  13.174 -1.6778 -1.4029 -0.3294
15548TIP3    H268060   1.941   0.340  13.032  0.5455 -0.0562 -0.1828
15549TIP3   OH268061   6.404   1.878  16.520  0.2562  0.0012  0.0280
15549TIP3    H168062   6.373   1.890  16.610  0.7052  0.0562  0.1780
15549TIP3    H268063   6.399   1.965  16.481 -1.8182 -0.3565 -0.6269
15550TIP3   OH268064   1.277   0.253   3.560  0.1563  0.3095  1.2145
15550TIP3    H168065   1.257   0.217   3.646  1.6859  2.0101  2.3655
15550TIP3    H268066   1.316   0.339   3.578 -0.3312  1.1401 -1.2172
15551TIP3   OH268067   5.576   4.489   1.437 -0.2196  0.0895  0.5484
15551TIP3    H168068   5.595   4.404   1.475 -0.3722 -0.9282 -1.5157
15551TIP3    H268069   5.622   4.489   1.353  0.0985  2.2032  0.6670
15552TIP3   OH268070   4.796   5.478   4.023 -0.3120 -0.2706 -0.1289
15552TIP3    H168071   4.734   5.537   3.980  0.1043 -1.0636 -1.8869
15552TIP3    H268072   4.864   5.463   3.958  0.4831 -1.3314  0.9090
15553TIP3   OH268073   6.620   6.294   1.719 -0.1187 -0.5568 -0.1881
15553TIP3    H168074   6.674   6.250   1.785 -1.5809 -0.8533  0.8714
15553TIP3    H268075   6.555   6.342   1.771  0.2388  1.2980 -1.3662
15554TIP3   OH268076   2.450   1.045   5.422 -0.6909 -0.0072 -0.2416
15554TIP3    H168077   2.499   1.120   5.388  0.0156 -0.3428  0.0012
15554TIP3    H268078   2.507   0.970   5.405 -0.6251 -0.2676  1.0510
15555TIP3   OH268079   4.532   3.676   4.314  0.5451  0.7542  0.1499
15555TIP3    H168080   4.577   3.758   4.295  0.5983  0.8935  0.8214
15555TIP3    H268081   4.597   3.624   4.362 -0.2287  1.2711  1.8384
15556TIP3   OH268082   3.992   1.437  13.235  0.3803  0.2240  0.3272
15556TIP3    H168083   4.021   1.494  13.164  2.9934  0.0405  1.1574
15556TIP3    H268084   3.905   1.407  13.208 -0.5346  3.4387 -0.8055
15557TIP3   OH268085   5.754   5.653  10.607 -0.2023  0.1055 -0.5370
15557TIP3    H168086   5.844   5.619  10.603  0.0054  0.6849 -0.8669
15557TIP3    H268087   5.741   5.695  10.522  0.0344  2.0487  0.3248
15558TIP3   OH268088   3.401   1.834  17.221  0.4198  0.0407 -0.0928
15558TIP3    H168089   3.325   1.887  17.248 -0.3134  0.0663 -2.0466
15558TIP3    H268090   3.364   1.766  17.165  1.6437 -1.1478  0.4757
15559TIP3   OH268091   2.433   0.244  13.022  0.0560 -0.3843 -0.0818
15559TIP3    H168092   2.490   0.171  13.044  0.5210 -0.6959 -2.1035
15559TIP3    H268093   2.474   0.284  12.945 -0.5785  1.5773  0.5276
15560TIP3   OH268094   6.588   1.849   6.599 -0.5877 -0.3064  0.1936
15560TIP3    H168095   6.516   1.900   6.635 -0.1943 -0.3156  1.0027
15560TIP3    H268096   6.546   1.772   6.561 -1.2207  0.7066 -1.2664
15561TIP3   OH268097   0.953   3.372   0.647 -0.2762  0.0786  0.3271
15561TIP3    H168098   0.991   3.452   0.685 -2.2071  0.9864  0.4956
15561TIP3    H268099   0.920   3.323   0.722  0.7353 -0.8081  0.2070
15562TIP3   OH268100   3.629   0.811  12.334 -0.3111  0.5224 -0.2044
15562TIP3    H168101   3.683   0.886  12.359 -0.1437  0.2565  0.2478
15562TIP3    H268102   3.557   0.848  12.283  0.3713  0.8641 -0.9187
15563TIP3   OH268103   3.245   1.721   3.629 -0.0348 -1.2451  0.2332
15563TIP3    H168104   3.287   1.805   3.647  0.6405 -1.5881  0.3005
15563TIP3    H268105   3.152   1.741   3.623  0.2541 -0.2348 -1.2757
15564TIP3   OH268106   0.380   1.171   1.153 -0.2860 -0.3207  0.4289
15564TIP3    H168107   0.330   1.096   1.121  1.3806 -1.9522  1.4991
15564TIP3    H268108   0.464   1.135   1.179  1.2144  2.1918 -0.5529
15565TIP3   OH268109   4.741   5.783   5.630 -0.5148 -0.4672  0.1754
15565TIP3    H168110   4.662   5.765   5.680  0.3147  0.6812  2.0026
15565TIP3    H268111   4.712   5.842   5.561 -1.3385 -0.4433  0.5284
15566TIP3   OH268112   4.523   0.430   4.112  0.1455 -0.3087 -0.0215
15566TIP3    H168113   4.616   0.421   4.091  0.2127 -1.3660  0.6542
15566TIP3    H268114   4.506   0.524   4.106  1.1992 -0.1233 -0.3627
15567TIP3   OH268115   2.135   1.192  15.504 -0.1584  0.0320 -0.2996
15567TIP3    H168116   2.170   1.126  15.444 -1.4261 -1.4664  0.5179
15567TIP3    H268117   2.189   1.269  15.490  0.6336 -0.8067 -2.1493
15568TIP3   OH268118   3.861   2.481  16.546 -0.3379 -0.1689 -0.1590
15568TIP3    H168119   3.788   2.423  16.570 -0.4886 -0.7509 -1.8992
15568TIP3    H268120   3.849   2.498  16.453 -0.5074  3.0383  0.3408
15569TIP3   OH268121   1.914   4.239  11.798  0.3690  0.0937 -0.0339
15569TIP3    H168122   1.984   4.287  11.844 -0.3632  1.1230  0.0525
15569TIP3    H268123   1.843   4.233  11.862  0.0115 -0.0702 -0.4400
15570TIP3   OH268124   5.046   0.493   5.985 -0.2276 -0.8714 -0.4346
15570TIP3    H168125   5.113   0.438   5.945  0.1245  0.1232 -1.2705
15570TIP3    H268126   4.972   0.487   5.924 -1.4990 -3.0819  1.1696
15571TIP3   OH268127   5.412   1.485  12.975  0.1336  0.5352  0.0750
15571TIP3    H168128   5.369   1.568  12.951 -1.8705 -0.4743 -0.0225
15571TIP3    H268129   5.435   1.445  12.891 -0.3171  0.3025  0.0569
15572TIP3   OH268130   0.961   6.662   5.560 -0.2736  0.3040 -0.0196
15572TIP3    H168131   1.013   6.722   5.507  0.0647 -0.4730 -0.5930
15572TIP3    H268132   0.910   6.612   5.495 -0.6809  0.0956  0.4540
15573TIP3   OH268133   0.833   6.637  13.168  0.1775 -0.4796 -0.3641
15573TIP3    H168134   0.762   6.677  13.118  0.4068  0.2700 -0.1027
15573TIP3    H268135   0.797   6.628  13.257  0.1361 -0.8339 -0.4148
15574TIP3   OH268136   0.083   1.689  13.867 -0.1003  0.4009 -0.4998
15574TIP3    H168137   0.129   1.686  13.783 -0.9485  0.6934 -0.9822
15574TIP3    H268138   0.130   1.756  13.917 -0.3726  1.1482 -1.2190
15575TIP3   OH268139   6.467   0.327   4.388 -0.5400 -0.2975  0.0898
15575TIP3    H168140   6.377   0.306   4.365 -1.0142  3.3841 -2.2806
15575TIP3    H268141   6.460   0.401   4.449  0.7810  1.0126 -1.2600
15576TIP3   OH268142   1.417   5.614   2.892 -0.2442 -0.1829  0.1938
15576TIP3    H168143   1.452   5.681   2.951 -0.5760  1.2760 -1.1982
15576TIP3    H268144   1.490   5.593   2.833 -1.0062  1.3116 -1.3641
15577TIP3   OH268145   4.017   3.132  15.372 -0.2812  0.2841  0.1122
15577TIP3    H168146   4.016   3.087  15.457  0.9893  1.1767  0.6176
15577TIP3    H268147   3.952   3.201  15.381  1.0276  1.4603  1.0069
15578TIP3   OH268148   3.797   1.544  16.998  0.0861  0.8176 -0.3683
15578TIP3    H168149   3.842   1.499  17.069  0.4396  0.7990 -0.6007
15578TIP3    H268150   3.769   1.627  17.037 -0.7422  0.3275  0.1136
15579TIP3   OH268151   0.599   1.918  16.180  0.2580  0.1723  0.0771
15579TIP3    H168152   0.670   1.878  16.128  0.2901  1.8589 -1.2663
15579TIP3    H268153   0.644   1.958  16.254  0.5319 -0.0229  0.0195
15580TIP3   OH268154   2.091   4.279  15.985  0.2341  0.2184 -0.0597
15580TIP3    H168155   2.124   4.316  15.903 -2.1977 -1.2562 -1.8402
15580TIP3    H268156   2.099   4.350  16.048  2.2417  1.3921 -1.5222
15581TIP3   OH268157   2.635   5.545  13.771 -0.3751  0.5554 -0.2283
15581TIP3    H168158   2.675   5.469  13.729 -0.0638  0.8642 -0.4957
15581TIP3    H268159   2.693   5.566  13.843 -1.4697 -0.6336  1.0575
15582TIP3   OH268160   5.128   2.709  11.215 -0.0513 -0.3982 -0.1161
15582TIP3    H168161   5.084   2.719  11.130 -0.6936  2.7144  0.4420
15582TIP3    H268162   5.221   2.709  11.194 -0.1996 -2.8671 -1.0057
15583TIP3   OH268163   0.902   2.178   6.149  0.5489 -0.2531 -0.5235
15583TIP3    H168164   0.875   2.087   6.153  2.7164 -1.0058 -1.6159
15583TIP3    H268165   0.828   2.224   6.109  0.5643 -2.1053 -2.9086
15584TIP3   OH268166   1.775   1.144  14.573  0.0998 -0.0387 -0.0049
15584TIP3    H168167   1.816   1.059  14.558 -0.0298 -0.2889  0.9985
15584TIP3    H268168   1.813   1.176  14.654 -1.5471 -0.2086  0.8802
15585TIP3   OH268169   4.616   0.706   3.087  0.3278 -0.5305  0.4516
15585TIP3    H168170   4.559   0.760   3.141 -0.8022  0.8130 -1.9348
15585TIP3    H268171   4.605   0.618   3.121 -3.3870 -0.3729  0.0092
15586TIP3   OH268172   1.223   1.752  14.945 -0.3203 -0.5954 -0.2190
15586TIP3    H168173   1.271   1.682  14.902  0.2302 -0.2293 -0.2064
15586TIP3    H268174   1.288   1.821  14.959 -0.5317 -0.6384  1.0381
15587TIP3   OH268175   1.990   3.065   5.819 -0.4951 -0.4376  0.0016
15587TIP3    H168176   1.933   3.118   5.875  0.3604  1.7073 -1.0673
15587TIP3    H268177   2.057   3.031   5.878  0.0422  1.2876  0.4287
15588TIP3   OH268178   0.128   4.078   5.473 -0.2735  0.2446 -0.0133
15588TIP3    H168179   0.200   4.053   5.530 -0.6099 -1.1094 -0.1569
15588TIP3    H268180   0.066   4.006   5.480 -1.9914  1.6937  0.6954
15589TIP3   OH268181   4.248   1.737  15.998  0.2131 -0.2710 -0.1948
15589TIP3    H168182   4.289   1.823  15.998 -0.3834  0.0245 -0.8039
15589TIP3    H268183   4.317   1.677  16.028  0.2735  0.5631  1.4620
15590TIP3   OH268184   4.984   2.043   5.079  0.0769 -0.0150 -0.2314
15590TIP3    H168185   5.021   1.967   5.035  0.2037 -0.7814  1.1690
15590TIP3    H268186   5.057   2.079   5.130 -0.3847  0.1329  0.3262
15591TIP3   OH268187   3.837   2.010  12.296 -0.4701 -0.7470  0.3772
15591TIP3    H168188   3.764   2.064  12.267 -1.0730 -2.0165 -0.5801
15591TIP3    H268189   3.843   2.027  12.390 -1.1862  0.3145  0.2541
15592TIP3   OH268190   3.584   5.886  10.650  0.1252 -0.1266  0.1924
15592TIP3    H168191   3.653   5.856  10.591 -0.0051 -0.8506  0.4013
15592TIP3    H268192   3.621   5.963  10.693  1.4568 -1.4373  1.5146
15593TIP3   OH268193   6.694   3.864   5.512 -1.0392 -0.3025  0.1340
15593TIP3    H168194   6.787   3.843   5.511 -0.7094  1.0275 -0.5296
15593TIP3    H268195   6.671   3.878   5.419 -1.8772 -0.5087  0.2950
15594TIP3   OH268196   4.188   0.066  15.284 -0.1355 -0.3068  0.2547
15594TIP3    H168197   4.121   0.091  15.219  0.3505 -2.4460 -1.1696
15594TIP3    H268198   4.139   0.029  15.357 -0.6068  0.2240  0.2106
15595TIP3   OH268199   2.170   6.738   0.506 -0.6863  0.3542 -0.5949
15595TIP3    H168200   2.232   6.787   0.453 -0.5527  0.8593  0.0064
15595TIP3    H268201   2.197   6.757   0.597  0.1402 -1.7936 -0.3184
15596TIP3   OH268202   0.161   5.315  17.183 -0.4920 -0.0412 -0.1241
15596TIP3    H168203   0.101   5.346  17.251  0.1242  1.6772 -0.3238
15596TIP3    H268204   0.245   5.354  17.205 -0.0419 -0.2869 -1.3129
15597TIP3   OH268205   1.259   3.333  12.357 -0.5259  0.3850  0.4968
15597TIP3    H168206   1.350   3.330  12.387  0.0749 -0.0625 -1.2527
15597TIP3    H268207   1.248   3.253  12.306 -1.3663  1.2891 -0.7872
15598TIP3   OH268208   5.012   0.170  12.051  0.3046 -0.9625  0.7164
15598TIP3    H168209   5.056   0.094  12.088  0.7221 -0.9828  0.1841
15598TIP3    H268210   5.079   0.238  12.047  0.4737 -1.1818 -0.6723
15599TIP3   OH268211   5.814   4.490   3.592 -0.5984  0.2468  0.1561
15599TIP3    H168212   5.905   4.518   3.598 -1.0460  1.5460  1.2529
15599TIP3    H268213   5.794   4.494   3.498 -0.6117  3.7816  0.1677
15600TIP3   OH268214   1.348   3.612  13.233 -0.2187  0.0286 -0.2239
15600TIP3    H168215   1.317   3.615  13.143 -1.3000 -2.6459 -0.0534
15600TIP3    H268216   1.443   3.610  13.225 -0.2819  0.4985 -1.2744
15601TIP3   OH268217   3.384   1.580  11.652  0.3898 -0.4870  0.0289
15601TIP3    H168218   3.464   1.606  11.607 -0.5088  0.4079 -1.1549
15601TIP3    H268219   3.335   1.530  11.586 -0.6972  0.3480  0.1615
15602TIP3   OH268220   3.861   1.800   3.739 -0.3174 -1.1330 -0.1133
15602TIP3    H168221   3.909   1.717   3.747 -0.7274 -1.3551  0.1189
15602TIP3    H268222   3.778   1.783   3.785  0.1421 -0.1623  1.1229
15603TIP3   OH268223   0.530   4.374  13.554 -0.2239 -0.3421 -0.1126
15603TIP3    H168224   0.495   4.347  13.639 -0.6668  0.9173  0.1305
15603TIP3    H268225   0.624   4.384  13.569 -0.0806 -1.4769 -0.1563
15604TIP3   OH268226   6.521   6.579   6.293  0.0068  0.4136 -0.0952
15604TIP3    H168227   6.560   6.493   6.308  0.6027 -0.0570 -3.5647
15604TIP3    H268228   6.594   6.640   6.295  0.0801  0.3560 -0.9145
15605TIP3   OH268229   2.800   6.600   2.659  0.7251 -0.2153 -0.1671
15605TIP3    H168230   2.894   6.614   2.665  0.7477 -0.3752 -0.1691
15605TIP3    H268231   2.788   6.545   2.581  0.6494 -0.3969 -0.0273
15606TIP3   OH268232   2.359   6.212   3.437  0.0323 -0.1335  0.0225
15606TIP3    H168233   2.386   6.247   3.522 -1.6178  2.1240 -0.2911
15606TIP3    H268234   2.407   6.264   3.373  0.9219 -1.5155 -0.4718
15607TIP3   OH268235   2.982   6.257   4.265  0.2421 -0.0408 -0.3789
15607TIP3    H168236   2.944   6.303   4.190 -0.7077 -0.5118 -0.1988
15607TIP3    H268237   2.917   6.265   4.335 -0.2575 -2.1494 -0.5207
15608TIP3   OH268238   3.095   3.713   5.643  0.2590 -0.1695 -0.0148
15608TIP3    H168239   3.115   3.623   5.669  0.1984 -0.4487 -0.8914
15608TIP3    H268240   3.063   3.755   5.723  0.8925 -0.7440  0.5497
15609TIP3   OH268241   5.385   0.346   5.281  0.4120 -0.3407  0.0091
15609TIP3    H168242   5.417   0.372   5.368  0.4525 -1.0712  0.2179
15609TIP3    H268243   5.312   0.287   5.299 -1.7099  1.9755 -0.4561
15610TIP3   OH268244   5.141   1.920  16.075  0.0026  0.0791 -0.2999
15610TIP3    H168245   5.176   1.965  15.998  1.4283 -0.1810  0.1725
15610TIP3    H268246   5.196   1.842  16.085 -0.2200  0.0561  0.9088
15611TIP3   OH268247   2.851   0.524  13.383  0.6133  0.0628  0.2618
15611TIP3    H168248   2.834   0.618  13.381  0.9353  0.1351  0.8503
15611TIP3    H268249   2.821   0.493  13.298  1.3327  0.8376 -0.2916
15612TIP3   OH268250   4.766   1.941  14.190 -0.0255  0.3645 -0.6868
15612TIP3    H168251   4.838   1.957  14.130 -1.6054  0.2927 -2.6898
15612TIP3    H268252   4.713   2.020  14.187 -0.9086 -0.2023 -0.5247
15613TIP3   OH268253   5.331   4.473   3.836 -0.0054 -0.2470 -0.6506
15613TIP3    H168254   5.395   4.402   3.836  0.2884 -0.0162 -1.9125
15613TIP3    H268255   5.253   4.436   3.878  0.5506 -0.9143 -0.1897
15614TIP3   OH268256   0.272   5.640  10.892  0.1147 -0.4905 -0.2137
15614TIP3    H168257   0.284   5.579  10.819  0.0588 -1.8068  0.8398
15614TIP3    H268258   0.294   5.725  10.856  0.1757 -1.1281 -1.7432
15615TIP3   OH268259   3.454   6.129  14.784 -0.3751 -0.0643 -0.0006
15615TIP3    H168260   3.438   6.036  14.798 -2.0886  0.2087  0.0426
15615TIP3    H268261   3.381   6.173  14.827  1.6486  1.4558  2.1419
15616TIP3   OH268262   4.808   3.443  13.337  0.2135  0.3641 -0.5570
15616TIP3    H168263   4.764   3.412  13.416 -0.2687  0.0988 -0.9297
15616TIP3    H268264   4.737   3.469  13.279  0.5669  0.4711 -0.9430
15617TIP3   OH268265   2.575   6.333  16.217  0.4794  0.3105 -0.5972
15617TIP3    H168266   2.550   6.318  16.308 -2.7434 -1.0018 -1.5483
15617TIP3    H268267   2.557   6.427  16.203  1.0303  0.5275  0.1161
15618TIP3   OH268268   3.384   0.322   0.042  0.6103 -0.1487  0.2509
15618TIP3    H168269   3.408   0.403  -0.003 -0.4921 -0.6932 -1.3993
15618TIP3    H268270   3.351   0.351   0.127  2.4819  0.9254  0.6800
15619TIP3   OH268271   0.030   1.753   3.676  0.2327  0.0123  0.3425
15619TIP3    H168272   0.043   1.658   3.674  1.4591  0.1590 -0.4113
15619TIP3    H268273  -0.045   1.767   3.734  0.1085 -1.4035  0.5522
15620TIP3   OH268274   0.749   2.235  17.083  0.3241 -0.2722  0.3223
15620TIP3    H168275   0.807   2.301  17.120  0.2057  0.1047 -0.1445
15620TIP3    H268276   0.788   2.214  16.998 -0.6970  0.6682 -0.4148
15621TIP3   OH268277   4.739   5.336  15.788  0.0435  0.1769 -0.9506
15621TIP3    H168278   4.657   5.335  15.739 -2.3197 -2.2064  2.5163
15621TIP3    H268279   4.717   5.380  15.870  1.4103 -2.6382  1.0915
15622TIP3   OH268280   5.037   1.655  11.799 -0.7440  0.1442 -0.7897
15622TIP3    H168281   5.079   1.733  11.836 -1.5145  1.0439 -1.7448
15622TIP3    H268282   4.969   1.633  11.863 -0.5884  0.3254 -0.5596
15623TIP3   OH268283   2.729   2.888   4.652 -0.0255 -0.4545 -0.2995
15623TIP3    H168284   2.717   2.829   4.577 -0.1556 -2.4123  1.1587
15623TIP3    H268285   2.819   2.918   4.645  0.6610 -2.3120 -0.1692
15624TIP3   OH268286   0.846   2.698   0.843 -0.4042 -0.0170 -0.8337
15624TIP3    H168287   0.872   2.731   0.929  0.9430  0.6888 -1.4804
15624TIP3    H268288   0.817   2.608   0.859 -0.7260  0.2997  0.4350
15625TIP3   OH268289   5.988   3.145   1.526  0.5843 -0.1101 -0.0246
15625TIP3    H168290   5.909   3.160   1.577 -0.9798 -1.7253 -1.8393
15625TIP3    H268291   5.985   3.212   1.457  0.5371 -0.4733 -0.3788
15626TIP3   OH268292   4.109   2.595  13.480  0.0502  0.6028  0.2013
15626TIP3    H168293   4.043   2.593  13.410  0.1289  1.0555  0.1134
15626TIP3    H268294   4.077   2.661  13.541  0.6447  1.1414 -0.0597
15627TIP3   OH268295   1.129   6.560   3.441  0.6384 -0.5566 -0.8672
15627TIP3    H168296   1.168   6.499   3.503  0.6982  1.1593  0.8681
15627TIP3    H268297   1.200   6.621   3.420  0.3662 -0.5963 -1.9630
15628TIP3   OH268298   6.586   3.197   6.125 -0.0382 -0.2813 -0.8504
15628TIP3    H168299   6.585   3.138   6.049  1.1183  0.0935 -1.1788
15628TIP3    H268300   6.496   3.226   6.134 -0.2242 -0.4562 -1.9912
15629TIP3   OH268301   4.601   4.847   0.420 -0.1331 -0.5235 -0.2261
15629TIP3    H168302   4.575   4.851   0.328 -1.4480 -1.2261  0.0847
15629TIP3    H268303   4.696   4.856   0.419 -0.2406  0.9810 -1.5396
15630TIP3   OH268304   3.701   3.911   4.815 -0.1727 -0.0349 -0.2334
15630TIP3    H168305   3.759   3.901   4.891 -0.0634  0.5986 -0.2313
15630TIP3    H268306   3.723   3.837   4.758  4.3834  2.7608 -2.7319
15631TIP3   OH268307   1.114   1.487   6.560  0.2962  0.0703  0.1738
15631TIP3    H168308   1.118   1.434   6.639 -0.1924  0.9025  0.7677
15631TIP3    H268309   1.021   1.490   6.537  0.0919  1.9593  1.0632
15632TIP3   OH268310   1.939   0.425   5.588  0.1987 -0.2487  0.0962
15632TIP3    H168311   1.986   0.342   5.601  2.5224  1.0836  0.9641
15632TIP3    H268312   1.936   0.436   5.493  0.6250 -0.9361 -0.0071
15633TIP3   OH268313   3.162   0.623   0.142 -0.0671 -0.3127  0.6139
15633TIP3    H168314   3.202   0.536   0.145  1.4614  0.3063 -0.6107
15633TIP3    H268315   3.072   0.607   0.113  0.7473 -1.3489 -1.4917
15634TIP3   OH268316   1.535   1.956   2.490 -0.5667 -0.8690  0.2665
15634TIP3    H168317   1.441   1.939   2.480 -0.5887  0.1984 -1.7321
15634TIP3    H268318   1.575   1.869   2.490 -1.2693 -1.2946 -2.7644
15635TIP3   OH268319   3.329   2.152  17.045  0.0015  0.6079 -0.0828
15635TIP3    H168320   3.311   2.239  17.080 -0.6919  0.4340  0.0134
15635TIP3    H268321   3.248   2.103  17.059 -0.2547  0.4902 -1.8225
15636TIP3   OH268322   1.043   5.960   1.020 -0.0141 -0.3964  0.4186
15636TIP3    H168323   1.116   6.006   0.980  0.7286  1.3323  3.4848
15636TIP3    H268324   0.968   6.019   1.006 -1.2392 -2.4748 -3.3465
15637TIP3   OH268325   6.166   2.863   0.172 -0.4074 -0.4344 -0.4231
15637TIP3    H168326   6.111   2.809   0.115 -2.0486 -1.0825  1.6371
15637TIP3    H268327   6.104   2.924   0.213  1.1282  1.8640 -1.3338
15638TIP3   OH268328   4.836   4.217   2.940 -0.3540 -0.1487 -0.0315
15638TIP3    H168329   4.901   4.160   2.898 -0.0713 -0.7405  1.1750
15638TIP3    H268330   4.888   4.288   2.977 -0.5865  0.2700 -0.4899
15639TIP3   OH268331   6.548   2.029   2.894  0.6114 -0.0483  0.9962
15639TIP3    H168332   6.577   2.051   2.806  0.7464 -0.0711  1.0348
15639TIP3    H268333   6.567   2.108   2.946 -1.6455  0.8945  0.5234
15640TIP3   OH268334   1.903   6.365  10.962 -0.3001  0.4289 -0.4712
15640TIP3    H168335   1.993   6.336  10.946 -1.1146 -1.8319 -1.2115
15640TIP3    H268336   1.849   6.307  10.910 -2.2467  1.5793  0.1682
15641TIP3   OH268337   3.711   1.375  13.219  0.8808 -0.7547 -0.0113
15641TIP3    H168338   3.702   1.470  13.213 -0.4322 -0.8735 -0.3647
15641TIP3    H268339   3.685   1.343  13.133  1.8585 -1.4210 -0.0789
15642TIP3   OH268340   4.566   1.353  14.770  0.4048  0.2461  0.0481
15642TIP3    H168341   4.597   1.273  14.728  1.8181  0.3860  0.7746
15642TIP3    H268342   4.527   1.404  14.699 -1.1597 -1.3575 -0.3191
15643TIP3   OH268343   3.080   2.712  13.710 -0.3428 -0.1653 -0.1239
15643TIP3    H168344   3.171   2.742  13.708  0.6526 -2.9369 -1.0165
15643TIP3    H268345   3.059   2.694  13.618 -1.2857 -0.9617  0.2291
15644TIP3   OH268346   6.098   1.367  16.534  0.7131 -0.2554 -0.2627
15644TIP3    H168347   6.094   1.442  16.593  2.2730 -1.4752  1.5166
15644TIP3    H268348   6.099   1.406  16.446  2.5554  1.8944  0.6153
15645TIP3   OH268349   4.103   4.155   6.079  0.1922 -0.2771  0.0219
15645TIP3    H168350   4.109   4.201   5.995 -2.5231  0.7618  0.2850
15645TIP3    H268351   4.133   4.219   6.144 -0.7255  0.0859  0.1047
15646TIP3   OH268352   6.309   3.832   3.073  0.4569 -0.3617 -0.0603
15646TIP3    H168353   6.387   3.875   3.038 -0.4930  0.2991 -1.4621
15646TIP3    H268354   6.271   3.896   3.132 -0.3599  0.3398 -1.3057
15647TIP3   OH268355   0.730   1.677   2.287  0.0574  0.3810 -0.7944
15647TIP3    H168356   0.688   1.763   2.287  0.3185  0.5143 -1.2779
15647TIP3    H268357   0.774   1.672   2.202  3.1445  1.3037  0.5817
15648TIP3   OH268358   2.288   4.475  17.131  0.0274 -0.3998  0.4454
15648TIP3    H168359   2.282   4.547  17.194 -0.1320  0.8554 -0.9588
15648TIP3    H268360   2.381   4.470  17.109 -0.1123  0.0745 -0.2496
15649TIP3   OH268361   0.869   5.509   4.160 -0.6825 -0.0981 -0.4271
15649TIP3    H168362   0.809   5.581   4.180 -0.8144 -0.6368  1.2715
15649TIP3    H268363   0.842   5.438   4.219  0.5937 -0.9113 -0.7803
15650TIP3   OH268364   4.674   6.582  16.389  0.0779  0.1685 -0.2199
15650TIP3    H168365   4.694   6.492  16.361 -2.9817 -1.6750  2.7222
15650TIP3    H268366   4.751   6.609  16.438  0.3785 -1.6293  0.3924
15651TIP3   OH268367   0.927   0.609   4.704 -0.0020  0.1868  0.4536
15651TIP3    H168368   0.882   0.525   4.696  0.4909 -0.2290  1.8191
15651TIP3    H268369   0.913   0.652   4.620  1.1789 -1.9765 -0.9245
15652TIP3   OH268370   4.395   6.124  11.321 -0.1413  0.2581 -0.2461
15652TIP3    H168371   4.313   6.090  11.284  0.6850 -0.5401 -1.3902
15652TIP3    H268372   4.399   6.215  11.291 -2.6298  1.7476  3.2706
15653TIP3   OH268373   6.787   2.098  15.580 -0.1698  0.5446  0.1330
15653TIP3    H168374   6.845   2.058  15.645  1.1863 -0.3610 -1.5218
15653TIP3    H268375   6.733   2.026  15.549 -0.0305  0.7024 -0.5032
15654TIP3   OH268376   6.695   3.023   1.712  0.0894 -0.2526  0.3963
15654TIP3    H168377   6.744   3.013   1.794  2.4271  1.0914 -0.7426
15654TIP3    H268378   6.605   3.004   1.736  1.1082 -2.9524  2.6094
15655TIP3   OH268379   3.260   3.054   4.834  0.1666  0.0325 -0.3083
15655TIP3    H168380   3.269   2.992   4.906  1.7415 -0.5465 -0.9714
15655TIP3    H268381   3.199   3.011   4.773 -2.2187  1.0765  1.1774
15656TIP3   OH268382   6.759   3.242   1.147 -0.8049 -0.3015  0.3613
15656TIP3    H168383   6.684   3.284   1.106 -0.0426  0.9635  0.2223
15656TIP3    H268384   6.807   3.203   1.074  1.5907  3.5709 -0.3948
15657TIP3   OH268385   2.278   1.765   2.996  0.0684  0.1711 -0.3371
15657TIP3    H168386   2.221   1.813   3.056  1.3274  1.4628 -0.1270
15657TIP3    H268387   2.333   1.711   3.053  0.6192  0.6808 -0.3797
15658TIP3   OH268388   5.779   4.257  14.055 -0.4638  0.2125 -0.2161
15658TIP3    H168389   5.822   4.193  14.111 -0.1653  0.0234 -0.6514
15658TIP3    H268390   5.814   4.341  14.084  0.6349  0.0222 -0.9109
15659TIP3   OH268391   4.668   0.059  11.468 -0.1128 -0.3675  0.5873
15659TIP3    H168392   4.700   0.054  11.378 -0.4497 -1.5334  0.5115
15659TIP3    H268393   4.668   0.152  11.489 -0.8706 -0.0123 -0.9226
15660TIP3   OH268394   1.298   1.889   5.617 -0.4589  0.4770 -0.4650
15660TIP3    H168395   1.322   1.916   5.705 -2.1237 -0.4001  0.2848
15660TIP3    H268396   1.219   1.938   5.597 -1.7847 -1.4548 -0.2665
15661TIP3   OH268397   3.147   5.604  11.396 -0.5162 -0.6958  0.1749
15661TIP3    H168398   3.072   5.553  11.426 -0.5294  0.4498  2.2870
15661TIP3    H268399   3.109   5.670  11.339 -1.1769 -0.0940  1.2654
15662TIP3   OH268400   4.351   2.483   4.544 -0.1583 -0.1438 -0.1015
15662TIP3    H168401   4.281   2.463   4.481 -1.3854  0.9948  0.8373
15662TIP3    H268402   4.427   2.436   4.511 -0.6298  0.7341 -2.6650
15663TIP3   OH268403   4.023   1.961  11.754  0.6414  0.1092 -0.2961
15663TIP3    H168404   3.939   1.992  11.788  0.0686 -0.7732 -0.8640
15663TIP3    H268405   4.070   2.041  11.731  2.0165  1.0023  4.5284
15664TIP3   OH268406   5.675   2.281  15.375  0.2138  0.1761  0.5826
15664TIP3    H168407   5.732   2.260  15.449  1.5102  2.6367  0.4143
15664TIP3    H268408   5.731   2.272  15.298 -0.2462  0.5275  0.1989
15665TIP3   OH268409   1.810   1.706   1.485  0.0713 -0.5438  0.7717
15665TIP3    H168410   1.739   1.666   1.435 -1.8017  1.0093  2.0276
15665TIP3    H268411   1.832   1.641   1.552  2.0044 -2.2711 -1.4175
15666TIP3   OH268412   0.651   2.639  10.781 -0.1892 -0.5559  0.0528
15666TIP3    H168413   0.726   2.671  10.832 -0.7793 -0.6297  0.9991
15666TIP3    H268414   0.689   2.614  10.697  0.8389 -0.5033  0.4777
15667TIP3   OH268415   3.580   4.801   1.165 -0.4327  0.7440 -0.1711
15667TIP3    H168416   3.519   4.748   1.115 -1.0276  0.2316  1.0478
15667TIP3    H268417   3.526   4.869   1.205 -0.2539  0.2312  0.9945
15668TIP3   OH268418   3.813   4.234   4.250 -0.0572  0.0546 -0.1681
15668TIP3    H168419   3.719   4.251   4.254 -0.2687 -0.6873 -1.5446
15668TIP3    H268420   3.851   4.315   4.216 -0.0417  0.7235  1.3354
15669TIP3   OH268421   1.832   5.297   4.043 -0.3108 -0.2048  0.0261
15669TIP3    H168422   1.849   5.209   4.076 -0.1418 -0.0067  0.4834
15669TIP3    H268423   1.876   5.355   4.106 -1.7188  0.2781  0.6158
15670TIP3   OH268424   0.018   4.926  10.738  0.0480 -0.1349  0.1666
15670TIP3    H168425  -0.062   4.910  10.687 -0.4264 -1.7730  1.3251
15670TIP3    H268426  -0.008   4.992  10.802  0.5788  1.7499 -1.4756
15671TIP3   OH268427   3.194   2.337  12.284 -0.5816  0.3156 -0.1816
15671TIP3    H168428   3.123   2.394  12.313 -1.1226 -0.4430 -0.0207
15671TIP3    H268429   3.157   2.286  12.212  0.0234  0.4385 -0.5918
15672TIP3   OH268430   5.966   6.057  13.345  0.4192  0.2512  0.6506
15672TIP3    H168431   5.965   6.012  13.430 -1.9066  0.5887  0.8527
15672TIP3    H268432   5.950   5.988  13.281 -0.1516  0.3368  0.6981
15673TIP3   OH268433   6.608   0.959  13.874 -1.0327  0.2699  0.3132
15673TIP3    H168434   6.639   1.035  13.824 -2.4508 -0.5338 -1.9365
15673TIP3    H268435   6.517   0.980  13.896 -1.5479 -0.8476 -0.6211
15674TIP3   OH268436   5.919   1.585  15.836  0.0873  0.3438 -0.1284
15674TIP3    H168437   5.854   1.604  15.768  0.4259  0.8533 -0.3150
15674TIP3    H268438   5.933   1.668  15.880  0.1759  0.1048  0.2993
15675TIP3   OH268439   4.928   6.487  12.407 -0.6151  0.4705 -0.4769
15675TIP3    H168440   4.870   6.562  12.417 -1.9719 -0.5300 -0.5711
15675TIP3    H268441   4.991   6.513  12.340  1.6149  3.0803  2.2824
15676TIP3   OH268442   5.100   1.154  17.164 -0.3798 -0.1389 -0.4836
15676TIP3    H168443   5.129   1.234  17.208 -0.5705 -0.7662  0.8429
15676TIP3    H268444   5.162   1.142  17.093  0.8965  0.0813  0.5584
15677TIP3   OH268445   3.846   3.143  17.227  0.1348 -0.4807  0.3321
15677TIP3    H168446   3.934   3.108  17.212  0.7780  1.2656 -0.1468
15677TIP3    H268447   3.842   3.157  17.322  0.5536 -0.1214  0.2995
15678TIP3   OH268448   5.770   0.961  11.918  1.0550 -0.3958  0.5589
15678TIP3    H168449   5.768   0.972  11.823  1.3970 -0.5310  0.5348
15678TIP3    H268450   5.679   0.944  11.942  0.9578 -0.2963  0.2636
15679TIP3   OH268451   1.966   2.233  14.875  0.5841  0.0680  0.5684
15679TIP3    H168452   1.916   2.281  14.941 -0.6056 -1.1800  0.6252
15679TIP3    H268453   1.900   2.200  14.814  1.7632  2.8666 -2.5049
15680TIP3   OH268454   2.792   1.207   2.691 -0.0582  0.4376  0.1567
15680TIP3    H168455   2.705   1.210   2.730 -1.1867  0.2203 -2.1764
15680TIP3    H268456   2.784   1.259   2.611  1.4968 -0.9286 -0.9454
15681TIP3   OH268457   4.114   5.832   6.486 -0.1328  0.0928  0.6288
15681TIP3    H168458   4.167   5.802   6.561 -0.0012 -0.6297  0.2555
15681TIP3    H268459   4.026   5.800   6.505  0.2014 -1.3979 -0.2322
15682TIP3   OH268460   6.718   2.736   4.751  0.3536  0.4212 -0.2630
15682TIP3    H168461   6.786   2.775   4.806  0.3798  1.1538 -0.7875
15682TIP3    H268462   6.750   2.649   4.729  1.3505  0.9235 -0.8663
15683TIP3   OH268463   0.223   3.720   3.641  0.4969  0.1078  0.0043
15683TIP3    H168464   0.215   3.626   3.655 -1.8697  0.2053 -0.3497
15683TIP3    H268465   0.274   3.751   3.717 -0.7784 -1.1424  1.4252
15684TIP3   OH268466   5.605   0.910  12.924  0.1241  0.2529  0.6514
15684TIP3    H168467   5.563   0.988  12.890  1.9879  0.7239 -0.7515
15684TIP3    H268468   5.579   0.906  13.016 -1.6433  1.3520  0.2368
15685TIP3   OH268469   3.434   4.051  11.983  0.2432 -0.1913  0.0647
15685TIP3    H168470   3.385   3.971  11.966  2.1266 -1.6376  1.0829
15685TIP3    H268471   3.474   4.074  11.899  1.1694 -1.3922  0.1582
15686TIP3   OH268472   1.880   3.402   0.996 -0.0383 -0.2925 -0.2655
15686TIP3    H168473   1.844   3.436   1.078 -0.3536  1.0363 -0.9280
15686TIP3    H268474   1.972   3.425   0.998 -0.3858  1.2966 -1.0161
15687TIP3   OH268475   5.715   2.446   0.248  0.5563  0.0333  0.2909
15687TIP3    H168476   5.780   2.383   0.219 -1.1398 -1.1081 -1.2891
15687TIP3    H268477   5.704   2.505   0.173  0.7532  1.0546  1.0473
15688TIP3   OH268478   1.003   1.087  15.043  0.1978 -0.2806  0.5253
15688TIP3    H168479   1.006   0.994  15.023  0.1655 -0.0965 -0.3626
15688TIP3    H268480   0.933   1.096  15.108 -0.6971 -0.7002 -0.3631
15689TIP3   OH268481   0.704   5.526   3.138 -0.6520  0.2636  0.8416
15689TIP3    H168482   0.760   5.482   3.073 -0.2510 -0.3908  1.6091
15689TIP3    H268483   0.743   5.613   3.148 -1.6387  0.9611 -0.9299
15690TIP3   OH268484   6.249   2.066  13.382  0.3884  0.1736 -0.1937
15690TIP3    H168485   6.168   2.093  13.427 -0.8932 -1.9439 -1.0780
15690TIP3    H268486   6.253   2.123  13.305 -1.8592 -1.3957 -1.6266
15691TIP3   OH268487   0.453   0.708   0.337  0.4391  0.1192 -0.2222
15691TIP3    H168488   0.411   0.654   0.270  2.3308 -0.1584 -1.2740
15691TIP3    H268489   0.442   0.798   0.306 -2.9131  0.4840  1.6459
15692TIP3   OH268490   3.434   6.722   3.922 -0.1774 -0.0814  0.3816
15692TIP3    H168491   3.492   6.784   3.965  0.8211  1.1093 -2.4428
15692TIP3    H268492   3.358   6.774   3.895 -0.3380 -0.5529 -0.1193
15693TIP3   OH268493   5.244   5.469   2.770  0.1487  0.2398  0.4042
15693TIP3    H168494   5.227   5.503   2.858 -2.4072 -0.7920  0.4058
15693TIP3    H268495   5.157   5.450   2.735  1.2172 -1.7948 -1.3644
15694TIP3   OH268496   1.928   6.434  12.020 -0.0014  0.1159 -0.2836
15694TIP3    H168497   1.894   6.429  12.109 -1.2821  1.6534 -0.6190
15694TIP3    H268498   1.942   6.343  11.994  0.9998 -0.3379  1.6751
15695TIP3   OH268499   2.144   1.702  11.309 -0.0981  0.0992 -0.3547
15695TIP3    H168500   2.081   1.653  11.257  0.8118 -1.8679  0.2999
15695TIP3    H268501   2.197   1.749  11.245  0.8380 -2.0674 -1.2689
15696TIP3   OH268502   2.339   6.469   2.958 -0.3495  0.4941  0.5480
15696TIP3    H168503   2.318   6.528   3.030  0.5624  2.5143 -0.7499
15696TIP3    H268504   2.257   6.459   2.911 -0.3373  1.4563  0.3005
15697TIP3   OH268505   3.687   6.104   2.890 -0.5581  0.5130 -0.1428
15697TIP3    H168506   3.770   6.136   2.856 -0.9155  0.9408 -0.6184
15697TIP3    H268507   3.706   6.080   2.981  0.0613  0.6761 -0.2257
15698TIP3   OH268508   6.775   6.135   0.297  0.2430 -0.5286  0.5139
15698TIP3    H168509   6.785   6.216   0.347  1.6107 -0.3101 -0.0717
15698TIP3    H268510   6.735   6.074   0.358  0.1401  0.2859  1.2822
15699TIP3   OH268511   2.441   4.158   4.460 -0.4804 -0.1136  0.1239
15699TIP3    H168512   2.399   4.232   4.505 -0.2078 -0.3230  0.7403
15699TIP3    H268513   2.381   4.085   4.475  0.1859 -0.4646  1.1920
15700TIP3   OH268514   0.632   1.736  14.461  0.2896  0.3512 -0.7727
15700TIP3    H168515   0.563   1.678  14.430 -0.4383  1.4832 -1.3576
15700TIP3    H268516   0.675   1.768  14.382  1.3326 -0.1362 -0.4238
15701TIP3   OH268517   6.791   4.854  11.321 -0.3921  0.3964 -0.2478
15701TIP3    H168518   6.843   4.835  11.399 -1.2352  0.7120  0.4094
15701TIP3    H268519   6.786   4.771  11.274  0.6582  0.3496 -0.3131
15702TIP3   OH268520   3.877   6.135  12.658 -0.2011 -0.1527  0.0779
15702TIP3    H168521   3.833   6.219  12.658 -0.1180 -0.1026  1.0355
15702TIP3    H268522   3.875   6.107  12.566  0.1624  1.0872 -0.3227
15703TIP3   OH268523   0.967   2.303  15.629  0.6324 -0.0997  0.3793
15703TIP3    H168524   0.915   2.382  15.617  1.3047  0.8511  3.0522
15703TIP3    H268525   0.963   2.258  15.544 -3.2023  0.6548 -0.0134
15704TIP3   OH268526   0.830   0.969   2.181 -0.3253 -0.4956  0.1729
15704TIP3    H168527   0.786   1.024   2.116 -2.2471  0.1641  1.8908
15704TIP3    H268528   0.844   0.885   2.137 -1.2062  0.0493 -1.2151
15705TIP3   OH268529   2.255   5.301   6.231 -0.1102 -0.5503 -0.3085
15705TIP3    H168530   2.275   5.209   6.212  0.4007 -0.3881 -0.5925
15705TIP3    H268531   2.338   5.336   6.263 -0.1132 -0.0173 -0.8657
15706TIP3   OH268532   2.315   5.056   4.829  0.7443 -0.4045  0.1705
15706TIP3    H168533   2.303   5.117   4.756 -1.0140 -0.9846 -0.0827
15706TIP3    H268534   2.371   4.987   4.794 -0.1033 -0.6883 -0.6597
15707TIP3   OH268535   5.368   3.223  11.730 -0.2527  0.7936 -0.3250
15707TIP3    H168536   5.368   3.164  11.805 -0.8032  1.0890 -0.0881
15707TIP3    H268537   5.280   3.216  11.694 -0.0281  0.7391 -0.8789
15708TIP3   OH268538   1.396   3.255   4.320 -0.3597 -0.1712 -0.1968
15708TIP3    H168539   1.409   3.349   4.312  0.2569 -0.1284  1.1181
15708TIP3    H268540   1.361   3.228   4.235 -2.1950  1.5043 -0.0394
15709TIP3   OH268541   3.176   0.186   2.112 -0.2541  0.1693 -0.0195
15709TIP3    H168542   3.117   0.210   2.041  0.3433  0.5730 -0.3860
15709TIP3    H268543   3.256   0.156   2.069  0.0407  0.2281  0.4715
15710TIP3   OH268544   5.334   5.777   3.467 -0.0695  0.2689 -0.6587
15710TIP3    H168545   5.244   5.761   3.494 -0.2002  1.1247 -0.5828
15710TIP3    H268546   5.380   5.696   3.489 -0.3323  0.6295  1.4213
15711TIP3   OH268547   3.635   1.925  13.915 -0.0900 -0.4389  0.2361
15711TIP3    H168548   3.655   1.944  13.824 -1.3830 -0.1761 -0.0141
15711TIP3    H268549   3.654   2.006  13.962  0.9207 -0.6847  0.2736
15712TIP3   OH268550   1.101   1.675   0.436  0.6387 -0.0725 -0.0186
15712TIP3    H168551   1.061   1.670   0.523  0.1561 -1.6754 -0.2926
15712TIP3    H268552   1.162   1.749   0.441  0.2702  0.1543  1.5267
15713TIP3   OH268553   5.830   0.161   5.144  0.2176 -0.2282  0.1294
15713TIP3    H168554   5.798   0.157   5.054 -0.2064  0.0767  0.2640
15713TIP3    H268555   5.868   0.248   5.153 -0.8104  0.1859  0.5922
15714TIP3   OH268556   2.499   1.640  12.378  0.3024 -0.3372 -0.2813
15714TIP3    H168557   2.490   1.592  12.460  1.8474  0.9718  0.7189
15714TIP3    H268558   2.411   1.674  12.361 -0.3823 -1.8834 -0.0173
15715TIP3   OH268559   5.999   1.946   1.150 -0.0360  0.1187  0.0385
15715TIP3    H168560   5.946   1.883   1.200  0.2602  0.5017  0.8580
15715TIP3    H268561   6.024   2.012   1.215  0.2052  0.7323 -0.6687
15716TIP3   OH268562   4.323   0.343   2.022  0.2141 -0.0449 -0.4959
15716TIP3    H168563   4.316   0.426   2.069 -1.0077  0.8452 -2.1524
15716TIP3    H268564   4.417   0.334   2.004  0.4143  0.7148  0.1092
15717TIP3   OH268565   4.617   3.395   1.231 -0.0752 -0.8115 -0.6653
15717TIP3    H168566   4.639   3.302   1.225  0.0276 -0.7998 -0.4888
15717TIP3    H268567   4.535   3.403   1.183  0.5510 -0.7620 -1.7484
15718TIP3   OH268568   2.869   4.717   2.680 -0.3797 -0.8189 -0.1770
15718TIP3    H168569   2.781   4.680   2.689 -0.2768 -0.9620  0.2810
15718TIP3    H268570   2.871   4.752   2.592 -1.8128  1.6136  0.6713
15719TIP3   OH268571   6.090   2.078  16.093 -0.2501 -0.1962 -0.1886
15719TIP3    H168572   6.172   2.077  16.142 -0.9915  0.3426  1.0900
15719TIP3    H268573   6.071   1.986  16.075  0.1497 -0.3788  0.3182
15720TIP3   OH268574   2.048   1.761   4.312  0.9338  0.0212 -0.4331
15720TIP3    H168575   2.015   1.843   4.349 -0.8508 -0.7141 -0.3051
15720TIP3    H268576   2.066   1.705   4.387 -1.2431 -0.9287 -0.5551
15721TIP3   OH268577   2.627   1.682   5.866 -0.1708  0.3856  0.5047
15721TIP3    H168578   2.668   1.659   5.949  0.5102 -1.6988 -0.3250
15721TIP3    H268579   2.693   1.733   5.819  1.4022 -2.3453 -0.5311
15722TIP3   OH268580   4.939   6.306   5.670 -0.0512  0.6340  0.0004
15722TIP3    H168581   4.997   6.350   5.607 -1.3638  1.3411 -0.7677
15722TIP3    H268582   4.945   6.213   5.647 -0.6903  0.8946 -1.3721
15723TIP3   OH268583   3.182   1.803  16.207  1.0581 -0.4183  0.2113
15723TIP3    H168584   3.218   1.718  16.184  0.3569 -0.5973 -0.2578
15723TIP3    H268585   3.220   1.863  16.141  0.0913 -0.7017 -0.6285
15724TIP3   OH268586   4.809   5.724  12.210  0.1874 -0.3542 -0.0899
15724TIP3    H168587   4.865   5.696  12.284  0.3379  0.0208 -0.0614
15724TIP3    H268588   4.870   5.761  12.147 -0.2072  2.2483  0.9182
15725TIP3   OH268589   1.158   4.529  11.908  0.5700 -0.3147  0.2836
15725TIP3    H168590   1.115   4.447  11.930  1.5024 -0.3375  2.2501
15725TIP3    H268591   1.240   4.528  11.959  0.0127  2.3438  1.4079
15726TIP3   OH268592   2.701   3.017   0.782  0.0156  0.1528 -0.1956
15726TIP3    H168593   2.710   3.105   0.819  0.5561  0.2207 -0.4755
15726TIP3    H268594   2.612   3.015   0.747  0.1417  0.7481 -0.5793
15727TIP3   OH268595   5.828   1.292  12.936 -0.5629 -0.2911 -0.1759
15727TIP3    H168596   5.778   1.252  13.007  0.6531 -1.2411  0.1904
15727TIP3    H268597   5.792   1.253  12.856 -1.9197  0.7633 -0.1185
15728TIP3   OH268598   0.985   6.553  15.260 -0.0977 -0.2692  0.1308
15728TIP3    H168599   0.952   6.629  15.308 -2.1369 -1.1212  0.1812
15728TIP3    H268600   0.949   6.563  15.171  0.2757 -0.7762 -0.0832
15729TIP3   OH268601   3.716   2.942  12.479 -0.1476  0.2418 -0.3230
15729TIP3    H168602   3.655   3.013  12.461 -0.1339  0.0739 -1.0574
15729TIP3    H268603   3.776   2.977  12.545 -0.4928  0.7103 -0.2605
15730TIP3   OH268604   1.676   4.009   5.253  0.0247  0.2275  0.0656
15730TIP3    H168605   1.713   3.930   5.291 -0.0514  0.3365  0.3744
15730TIP3    H268606   1.706   4.080   5.311 -2.0019  0.1401  1.3185
15731TIP3   OH268607   0.527   2.501   5.744  0.1817  0.2633  0.2286
15731TIP3    H168608   0.544   2.522   5.836  2.7540  0.1040 -0.1378
15731TIP3    H268609   0.541   2.583   5.697  0.0233  0.0821 -0.1408
15732TIP3   OH268610   0.338   3.776   5.756  0.0565  0.2505 -0.2050
15732TIP3    H168611   0.345   3.685   5.728  0.9018  0.1877  0.1830
15732TIP3    H268612   0.376   3.777   5.844 -0.2693  0.9158 -0.0635
15733TIP3   OH268613   5.823   1.949   1.834  0.6282  0.6269  0.1428
15733TIP3    H168614   5.848   1.928   1.924  0.8159  0.2204 -0.0049
15733TIP3    H268615   5.727   1.952   1.837  0.6411  0.8959  0.4169
15734TIP3   OH268616   6.763   6.634  15.018  0.4513 -0.4316 -0.0312
15734TIP3    H168617   6.819   6.683  14.957 -0.0760  1.0171  0.5887
15734TIP3    H268618   6.809   6.551  15.032  1.4300 -0.0886 -1.0675
15735TIP3   OH268619   4.732   4.479  12.723 -0.1342 -0.3102 -0.4250
15735TIP3    H168620   4.728   4.572  12.703  0.4384 -0.4869 -1.4182
15735TIP3    H268621   4.660   4.465  12.786 -0.9095  0.5900 -1.0818
15736TIP3   OH268622   3.368   6.676   1.345  0.0006  0.6721 -0.1660
15736TIP3    H168623   3.298   6.731   1.379 -0.4204  0.7452 -1.1149
15736TIP3    H268624   3.332   6.639   1.264  1.4448  1.6829 -1.3472
15737TIP3   OH268625   4.229   1.838   0.470  0.1778  0.6385 -0.3847
15737TIP3    H168626   4.284   1.794   0.405 -0.1690 -0.4553  0.0404
15737TIP3    H268627   4.290   1.866   0.538  0.2617 -0.4606  0.0246
15738TIP3   OH268628   5.470   3.936   5.445 -0.0363  0.7331  1.0244
15738TIP3    H168629   5.379   3.965   5.452  0.6941  3.3881  0.7961
15738TIP3    H268630   5.484   3.924   5.351  0.1456  1.4844  0.9494
15739TIP3   OH268631   2.935   6.205  14.484 -0.0213 -0.3981  0.7816
15739TIP3    H168632   2.877   6.271  14.522 -2.5909 -0.3728 -2.6645
15739TIP3    H268633   2.886   6.123  14.490  2.1617 -1.6733  2.9318
15740TIP3   OH268634   1.268   6.019  15.395  0.1229  0.0138 -0.2899
15740TIP3    H168635   1.238   6.057  15.477 -0.4068 -0.0629 -0.4426
15740TIP3    H268636   1.351   6.063  15.377 -0.0232  0.4224  0.0117
15741TIP3   OH268637   6.063   1.853   4.972 -0.1050  0.7228  0.0861
15741TIP3    H168638   6.029   1.766   4.995  1.2399 -0.1616 -1.0930
15741TIP3    H268639   6.088   1.891   5.057  1.6243 -1.0969  0.4811
15742TIP3   OH268640   5.052   1.955  16.333  0.3410 -0.4594 -0.8795
15742TIP3    H168641   4.987   2.022  16.312  0.8536  0.5053  0.4824
15742TIP3    H268642   5.080   1.921  16.248 -2.1539 -1.1564 -1.4919
15743TIP3   OH268643   1.611   5.880  10.278  0.3863 -0.3223 -0.4477
15743TIP3    H168644   1.555   5.955  10.256 -0.4593 -1.0869 -0.9716
15743TIP3    H268645   1.673   5.915  10.341 -0.5687  0.6005  0.0178
15744TIP3   OH268646   2.981   0.645  14.700 -0.2545 -0.3489  0.1978
15744TIP3    H168647   2.943   0.685  14.778  0.4790 -0.1396  0.4459
15744TIP3    H268648   3.002   0.718  14.643  0.5309 -0.4139  0.3999
15745TIP3   OH268649   6.671   4.932   1.059 -0.6855 -0.4953  0.1364
15745TIP3    H168650   6.577   4.927   1.077 -0.7727  0.1136 -0.1144
15745TIP3    H268651   6.691   4.849   1.014 -0.6397 -1.6115  2.1182
15746TIP3   OH268652   4.016   2.086  14.502  0.2039 -0.0526 -0.5324
15746TIP3    H168653   3.959   2.009  14.512  0.0215  0.2144  0.6244
15746TIP3    H268654   3.988   2.126  14.420 -1.0763 -0.1045 -0.1406
15747TIP3   OH268655   6.531   6.273   2.015 -0.1853  0.0482 -0.2657
15747TIP3    H168656   6.503   6.300   2.103 -1.7165 -1.6525 -0.1795
15747TIP3    H268657   6.543   6.356   1.968  2.5989  1.1167  2.0239
15748TIP3   OH268658   5.785   1.635   3.173  0.2671 -0.2689  0.0332
15748TIP3    H168659   5.797   1.627   3.079  0.9897  0.2874  0.0627
15748TIP3    H268660   5.833   1.715   3.196 -1.9172  0.9824  0.5118
15749TIP3   OH268661   0.562   1.007   2.018  0.2604 -0.2835 -0.0039
15749TIP3    H168662   0.468   0.993   2.020  0.1134  0.6987  1.5690
15749TIP3    H268663   0.579   1.067   2.091  2.0480 -0.1180 -0.5104
15750TIP3   OH268664   6.500   4.195   5.809  0.5704 -0.3780  0.5830
15750TIP3    H168665   6.548   4.277   5.796  0.6864 -0.5550 -0.1451
15750TIP3    H268666   6.490   4.158   5.721  1.6001 -1.7619  1.0110
15751TIP3   OH268667   5.908   6.569  14.422 -0.3711  0.2586 -0.2548
15751TIP3    H168668   5.847   6.521  14.479  1.7170 -1.4819  0.6325
15751TIP3    H268669   5.855   6.592  14.346 -2.2608 -0.7536  0.6557
15752TIP3   OH268670   4.192   0.802  11.617 -0.0152  0.2754  0.1202
15752TIP3    H168671   4.125   0.803  11.548 -0.5609  1.4987  0.6274
15752TIP3    H268672   4.249   0.729  11.594 -2.8589 -2.4254  0.9957
15753TIP3   OH268673   5.392   2.419  11.198 -0.2347  0.0487  0.0579
15753TIP3    H168674   5.302   2.441  11.223 -0.9041 -1.7051 -0.7063
15753TIP3    H268675   5.434   2.505  11.186 -1.6799  0.9053  0.7789
15754TIP3   OH268676   6.571   2.503  13.680  0.2007 -0.2830 -0.1031
15754TIP3    H168677   6.637   2.561  13.718  0.7738 -1.4148  0.6659
15754TIP3    H268678   6.487   2.541  13.708  0.5760 -0.0151  0.6800
15755TIP3   OH268679   6.398   4.418  11.026  1.0719  0.7226 -0.7745
15755TIP3    H168680   6.359   4.362  11.093 -0.4254  1.8213 -0.6726
15755TIP3    H268681   6.484   4.441  11.060  0.6258  0.6638  0.4205
15756TIP3   OH268682   0.760   2.048  10.849  0.1627  0.0616 -0.3605
15756TIP3    H168683   0.714   1.978  10.802  2.2357 -0.5796 -1.5799
15756TIP3    H268684   0.821   2.083  10.784  0.5408  1.6841  0.8282
15757TIP3   OH268685   0.623   3.341   2.217 -0.1928  0.1448 -0.1740
15757TIP3    H168686   0.596   3.413   2.274 -0.7484 -0.4896  0.3770
15757TIP3    H268687   0.542   3.311   2.176 -0.0771 -0.6409  0.1591
15758TIP3   OH268688   2.251   5.515   5.674 -0.2972  0.1497 -1.1506
15758TIP3    H168689   2.243   5.519   5.769  0.5646  0.3038 -1.0748
15758TIP3    H268690   2.200   5.439   5.648 -1.1654  0.5533 -0.6391
15759TIP3   OH268691   6.655   5.540  12.960  0.0575  0.0248 -0.7502
15759TIP3    H168692   6.640   5.625  13.001  1.1832  0.5289 -1.3264
15759TIP3    H268693   6.686   5.562  12.872  2.2074 -0.9237 -0.2801
15760TIP3   OH268694   4.112   5.352  13.106 -0.1988 -0.3761  0.5306
15760TIP3    H168695   4.060   5.430  13.089  1.6781  0.8689  0.1554
15760TIP3    H268696   4.050   5.288  13.141 -1.8312  1.1816  0.5988
15761TIP3   OH268697   3.702   5.769  11.435 -0.1182  0.0216  0.1744
15761TIP3    H168698   3.792   5.740  11.420  0.4058  1.6499 -0.0999
15761TIP3    H268699   3.654   5.740  11.357  0.3542 -0.1439 -0.0558
15762TIP3   OH268700   0.973   3.088  13.687 -0.2796  0.0797  0.3434
15762TIP3    H168701   0.903   3.044  13.735 -0.8860  0.2053 -0.4009
15762TIP3    H268702   0.933   3.114  13.604  1.0026 -0.9876 -0.6524
15763TIP3   OH268703   6.650   5.178   2.194 -0.2864  0.6053  0.0976
15763TIP3    H168704   6.658   5.258   2.141 -0.6654 -0.4806 -1.6969
15763TIP3    H268705   6.735   5.168   2.237 -0.4222  2.2533  0.8200
15764TIP3   OH268706   4.743   3.626   3.003  0.1798  0.1770  0.0505
15764TIP3    H168707   4.809   3.591   2.943 -2.0460 -0.9764 -1.9357
15764TIP3    H268708   4.676   3.663   2.945 -2.0417 -0.8469  1.8047
15765TIP3   OH268709   5.359   6.755  12.802 -0.4170 -0.2975  0.1716
15765TIP3    H168710   5.373   6.671  12.758 -0.6899  0.0402 -0.5720
15765TIP3    H268711   5.352   6.733  12.895 -0.5145 -1.0987 -0.0234
15766TIP3   OH268712   6.535   0.478  13.615 -0.0931 -0.2434 -0.0506
15766TIP3    H168713   6.565   0.566  13.638  1.0714 -0.5589 -0.2695
15766TIP3    H268714   6.588   0.420  13.669 -0.6095 -0.8228 -0.1581
15767TIP3   OH268715   5.169   1.799   0.853  0.3097  0.2777 -0.2857
15767TIP3    H168716   5.098   1.822   0.914 -0.1067 -1.2947 -0.1392
15767TIP3    H268717   5.238   1.764   0.909  0.3945 -0.0782 -0.6133
15768TIP3   OH268718   0.454   1.308  11.100  0.4036 -0.0778 -0.0992
15768TIP3    H168719   0.392   1.238  11.079 -0.9348  1.7754 -2.9823
15768TIP3    H268720   0.410   1.360  11.167  0.2185 -0.4858  0.0969
15769TIP3   OH268721   2.804   1.202   3.391 -0.2565  1.0330  0.2015
15769TIP3    H168722   2.862   1.193   3.466 -0.6452 -0.8969  0.3032
15769TIP3    H268723   2.813   1.120   3.343  0.5293  2.4735 -2.3092
15770TIP3   OH268724   5.941   0.041  14.522 -0.0296  0.3407 -0.4241
15770TIP3    H168725   5.908  -0.046  14.500 -0.0301  0.0824  0.5754
15770TIP3    H268726   5.899   0.063  14.605  1.7547  0.3032  0.5304
15771TIP3   OH268727   0.717   0.606   1.208 -0.1488 -0.0817 -0.1862
15771TIP3    H168728   0.630   0.636   1.236 -0.1059  0.2697 -0.4250
15771TIP3    H268729   0.769   0.609   1.288  0.1453  1.5511 -0.3922
15772TIP3   OH268730   6.069   1.467  11.447 -0.4184 -0.5515  0.4587
15772TIP3    H168731   6.024   1.551  11.457 -0.5271 -0.6987  1.2322
15772TIP3    H268732   6.152   1.490  11.406 -1.3816 -0.3300 -1.4734
15773TIP3   OH268733   4.133   4.970   5.596  0.0404  0.2875  0.1025
15773TIP3    H168734   4.134   5.041   5.659  1.2081  0.7341 -0.4014
15773TIP3    H268735   4.108   5.011   5.513  4.7250  1.1080 -1.2090
15774TIP3   OH268736   5.432   4.159  16.859  0.0310 -0.1550 -0.4623
15774TIP3    H168737   5.376   4.230  16.891 -0.2650 -0.7943  0.4604
15774TIP3    H268738   5.373   4.100  16.812  0.0481 -0.4656 -0.0970
15775TIP3   OH268739   1.264   6.374  13.243  0.0177 -0.6364  0.4067
15775TIP3    H168740   1.244   6.281  13.243 -1.2909 -0.3890  1.1629
15775TIP3    H268741   1.230   6.406  13.326  1.5310  0.3194  0.6929
15776TIP3   OH268742   2.667   2.711  13.501  0.1644 -0.0242  0.0823
15776TIP3    H168743   2.600   2.751  13.446 -0.7116  0.0334  1.1376
15776TIP3    H268744   2.654   2.752  13.587  0.6627 -0.9982  0.6425
15777TIP3   OH268745   0.253   5.488   4.035  0.1019  0.1136 -0.3788
15777TIP3    H168746   0.325   5.512   3.977  0.0414  0.7392 -0.2022
15777TIP3    H268747   0.183   5.549   4.012 -0.7217 -1.1058 -1.2259
15778TIP3   OH268748   3.714   5.476   1.178 -0.1432  0.5506  0.0184
15778TIP3    H168749   3.663   5.550   1.211  0.1198  1.0477 -0.6683
15778TIP3    H268750   3.721   5.492   1.084  0.5573  0.0406 -0.0203
15779TIP3   OH268751   0.161   0.244   1.744 -0.5729  0.1560 -0.4866
15779TIP3    H168752   0.228   0.285   1.799 -0.8715  0.3958 -0.2992
15779TIP3    H268753   0.203   0.235   1.658 -0.0420 -0.3733 -0.1885
15780TIP3   OH268754   6.442   0.691  13.398  0.0259  0.0364  0.3245
15780TIP3    H168755   6.348   0.676  13.404  0.2854 -1.7435  0.6557
15780TIP3    H268756   6.477   0.659  13.482  1.0077 -0.1802 -0.1452
15781TIP3   OH268757   0.789   3.621  14.708 -0.3721 -0.9150 -0.6921
15781TIP3    H168758   0.794   3.659  14.620  0.1574  0.2970 -0.1599
15781TIP3    H268759   0.741   3.686  14.759  0.0850 -1.1986  0.1189
15782TIP3   OH268760   6.165   0.982  11.636  0.3172 -0.0568 -0.6228
15782TIP3    H168761   6.207   0.994  11.551  1.0816 -1.3316 -0.4557
15782TIP3    H268762   6.230   1.015  11.699 -0.3133  1.0393 -0.5195
15783TIP3   OH268763   3.235   0.924  16.636  0.0077  0.0165  0.0233
15783TIP3    H168764   3.307   0.866  16.611  2.0324  1.5553  1.7839
15783TIP3    H268765   3.248   1.002  16.583 -2.3408 -0.7817 -1.9033
15784TIP3   OH268766   2.332   5.778  10.731  0.2593  0.7478 -0.0280
15784TIP3    H168767   2.289   5.692  10.735  2.3946 -0.3554  1.2314
15784TIP3    H268768   2.300   5.824  10.808 -0.6470  0.9851 -0.5316
15785TIP3   OH268769   4.594   2.212  14.201  0.1716 -1.0991  0.3533
15785TIP3    H168770   4.612   2.303  14.179  0.0725 -1.5039 -1.5618
15785TIP3    H268771   4.499   2.206  14.205  0.1839 -0.7397  2.4225
15786TIP3   OH268772   2.912   2.340  17.120 -0.0738  0.3840  0.3057
15786TIP3    H168773   2.881   2.430  17.135 -3.7476 -1.0763  2.9750
15786TIP3    H268774   2.986   2.330  17.180  1.4029  1.9495 -1.1323
15787TIP3   OH268775   5.297   3.703  11.742 -0.3787 -0.6026  0.3438
15787TIP3    H168776   5.352   3.638  11.698  2.0111  1.2241  0.4230
15787TIP3    H268777   5.255   3.751  11.670  1.5354  0.7225  0.0283
15788TIP3   OH268778   6.068   6.002   1.791 -0.3183 -0.0123 -0.1378
15788TIP3    H168779   6.021   6.002   1.875 -1.0067 -0.4967 -0.5085
15788TIP3    H268780   6.160   6.014   1.815 -0.6213  0.9643  0.6069
15789TIP3   OH268781   0.226   1.397   6.059  0.2214 -0.4549 -0.1493
15789TIP3    H168782   0.135   1.411   6.082  0.5765  0.5853  0.7248
15789TIP3    H268783   0.239   1.448   5.979  1.3698  4.4755  2.7208
15790TIP3   OH268784   2.520   1.443  13.203  0.1512  0.4823 -0.4653
15790TIP3    H168785   2.532   1.538  13.198 -0.1967  0.4909 -1.1571
15790TIP3    H268786   2.598   1.412  13.248  2.3499  0.6583 -3.8039
15791TIP3   OH268787   5.231   1.991  14.475 -0.0367  0.3872  0.5312
15791TIP3    H168788   5.314   1.977  14.520 -0.0847 -1.7541  0.0633
15791TIP3    H268789   5.203   1.903  14.448 -1.3262  1.2993 -1.3119
15792TIP3   OH268790   2.151   1.005  11.648 -0.1006  0.6081  0.0544
15792TIP3    H168791   2.155   1.076  11.712 -1.4983 -0.8024  1.8080
15792TIP3    H268792   2.057   0.995  11.629  0.0436 -0.9473  0.0659
15793TIP3   OH268793   3.503   1.736   6.363 -0.3598  0.1148 -0.0791
15793TIP3    H168794   3.596   1.732   6.342 -0.4838  0.2378 -0.6621
15793TIP3    H268795   3.474   1.644   6.360 -0.2776  0.0867  0.0014
15794TIP3   OH268796   3.669   3.747   3.804 -0.0270  0.9828 -0.8297
15794TIP3    H168797   3.664   3.699   3.722 -0.9561  1.1581 -0.8775
15794TIP3    H268798   3.635   3.834   3.784 -0.8511  0.8351 -0.1181
15795TIP3   OH268799   3.408   1.479  13.271  0.1547  0.1252  0.2599
15795TIP3    H168800   3.313   1.481  13.275  0.1812 -0.5827  1.6267
15795TIP3    H268801   3.428   1.488  13.177 -1.2161  0.8883  0.0122
15796TIP3   OH268802   6.380   0.467  11.363 -0.0206  0.4312  0.3120
15796TIP3    H168803   6.414   0.529  11.298 -0.0739 -1.2629 -1.4238
15796TIP3    H268804   6.450   0.402  11.372 -1.2312 -1.0498 -0.4645
15797TIP3   OH268805   0.364   2.442   4.223  0.7144  0.1820  0.0781
15797TIP3    H168806   0.408   2.367   4.184  2.1832  0.4929  1.0721
15797TIP3    H268807   0.415   2.518   4.195 -0.4056  0.7791 -0.4285
15798TIP3   OH268808   4.605   2.229   6.526  0.2305 -0.5141  0.0825
15798TIP3    H168809   4.680   2.287   6.523  0.4719 -0.7215  1.3632
15798TIP3    H268810   4.533   2.280   6.488  0.4028  0.6882  1.2938
15799TIP3   OH268811   0.214   5.522  12.485  0.1980 -0.6549  0.5810
15799TIP3    H168812   0.273   5.454  12.452  1.6479  0.0052  1.7065
15799TIP3    H268813   0.136   5.515  12.430  0.6802 -2.6047  0.0568
15800TIP3   OH268814   6.184   6.755  15.539  0.1087 -0.3213 -0.1980
15800TIP3    H168815   6.197   6.664  15.567  2.8364 -1.0389 -3.2460
15800TIP3    H268816   6.117   6.750  15.471 -0.6745  0.1984  0.5140
15801TIP3   OH268817   3.944   0.205   5.894  0.2266  0.3561  0.4312
15801TIP3    H168818   3.921   0.201   5.986 -2.1794 -0.4454 -0.1315
15801TIP3    H268819   3.984   0.120   5.875  1.4183  0.7975  0.8542
15802TIP3   OH268820   3.309   5.116   2.461  0.4307 -0.8577  0.3098
15802TIP3    H168821   3.265   5.037   2.494  1.1922 -0.4043  2.5920
15802TIP3    H268822   3.374   5.137   2.527  0.9812  1.1028 -0.7600
15803TIP3   OH268823   2.800   6.182   2.505 -0.2702  0.7302  0.6532
15803TIP3    H168824   2.720   6.164   2.456  0.4415 -1.1753  0.1289
15803TIP3    H268825   2.774   6.171   2.597 -0.5314 -0.2621  0.4710
15804TIP3   OH268826   1.975   0.825  11.437 -0.4157  0.1680 -0.1325
15804TIP3    H168827   1.929   0.904  11.407 -1.5618 -0.2802  0.3872
15804TIP3    H268828   1.907   0.758  11.441 -0.0647 -0.1278  2.1258
15805TIP3   OH268829   6.639   1.655   0.812  0.5103 -0.2584 -0.3575
15805TIP3    H168830   6.723   1.616   0.837 -0.1361 -1.0681  0.6259
15805TIP3    H268831   6.616   1.711   0.886  0.0756 -0.2311 -0.5115
15806TIP3   OH268832   1.425   4.912  14.691  0.5005  0.3325  0.6832
15806TIP3    H168833   1.454   5.002  14.705  2.4815  0.3860 -2.5760
15806TIP3    H268834   1.349   4.919  14.634  0.2861 -0.0635  0.9113
15807TIP3   OH268835   2.130   1.759   5.819  0.2237  0.6652  0.7196
15807TIP3    H168836   2.224   1.761   5.802  0.4079  1.9900  1.7723
15807TIP3    H268837   2.117   1.823   5.889 -1.8302  2.5170 -1.2218
15808TIP3   OH268838   2.570   3.008   0.057 -0.0256  0.0357 -0.2455
15808TIP3    H168839   2.556   3.007   0.152  0.8101 -1.2443 -0.1227
15808TIP3    H268840   2.652   2.960   0.044  0.6693  1.4722 -1.5019
15809TIP3   OH268841   2.892   4.512   3.811 -0.1065 -0.0718  0.3839
15809TIP3    H168842   2.802   4.496   3.837  0.3607 -2.4925  0.7352
15809TIP3    H268843   2.901   4.467   3.727  0.5479  0.9125 -0.0890
15810TIP3   OH268844   2.170   2.213  12.889 -0.6633 -0.8456  0.7958
15810TIP3    H168845   2.112   2.244  12.959 -1.4790 -0.6186  0.0469
15810TIP3    H268846   2.182   2.120  12.907 -0.7197 -0.7522  1.3335
15811TIP3   OH268847   6.703   2.225   2.642  0.6440 -0.6659  0.4255
15811TIP3    H168848   6.757   2.304   2.638 -0.8472  0.3561 -0.6220
15811TIP3    H268849   6.624   2.253   2.688  0.5754 -1.8722  1.0661
15812TIP3   OH268850   2.305   2.996   3.247  0.5289  0.1876 -0.1460
15812TIP3    H168851   2.370   3.064   3.230  0.2934  0.2757 -0.7160
15812TIP3    H268852   2.347   2.915   3.217  0.1278  0.3378 -1.1525
15813TIP3   OH268853   4.578   3.159  14.223 -0.5427 -0.4083 -0.0432
15813TIP3    H168854   4.656   3.184  14.173  0.6073  0.3701  1.9758
15813TIP3    H268855   4.572   3.225  14.292 -1.5004 -1.8719  1.3611
15814TIP3   OH268856   1.359   6.574  15.146 -0.7727 -0.2270  0.1750
15814TIP3    H168857   1.371   6.594  15.053  0.7750  0.1127  0.4131
15814TIP3    H268858   1.313   6.651  15.181  0.2492  0.4724  0.0218
15815TIP3   OH268859   5.512   4.976  13.234 -0.1212  0.7241  0.0541
15815TIP3    H168860   5.605   4.986  13.250  0.4332 -2.1569 -0.8178
15815TIP3    H268861   5.503   4.984  13.139 -0.1901 -2.0762 -0.2498
15816TIP3   OH268862   3.148   0.276  11.756 -0.0264 -0.6355  0.7321
15816TIP3    H168863   3.062   0.262  11.715 -0.9426 -1.0467  2.6748
15816TIP3    H268864   3.147   0.367  11.785  0.6644 -0.3097 -0.2251
15817TIP3   OH268865   2.326   3.745  10.304  0.0372  0.0812  0.6337
15817TIP3    H168866   2.354   3.768  10.392  2.0626  1.4761 -0.2860
15817TIP3    H268867   2.370   3.808  10.248 -2.5532  0.3452 -1.2854
15818TIP3   OH268868   2.472   3.504  14.184  0.1758  0.0861  0.3068
15818TIP3    H168869   2.424   3.496  14.266 -2.6755  0.9589 -1.1343
15818TIP3    H268870   2.431   3.579  14.140  1.0198 -0.8680 -2.2692
15819TIP3   OH268871   6.398   2.678   2.791  0.1961  0.1942 -0.5206
15819TIP3    H168872   6.351   2.674   2.707  0.4158 -0.1655 -0.6281
15819TIP3    H268873   6.339   2.637   2.854  0.1889  0.1294 -0.5702
15820TIP3   OH268874   2.608   0.810   4.531 -0.1005  0.1832 -0.3565
15820TIP3    H168875   2.687   0.772   4.493 -0.7282 -1.8176  0.2242
15820TIP3    H268876   2.633   0.901   4.551  1.3612  0.2206 -2.0876
15821TIP3   OH268877   2.359   0.023   2.908  0.3829  0.3808  0.5929
15821TIP3    H168878   2.389  -0.035   2.978 -0.5728  0.1445  0.8147
15821TIP3    H268879   2.440   0.062   2.873  1.0591 -1.1981  0.3289
15822TIP3   OH268880   2.097   2.104  16.686 -0.6608 -0.4767  0.3169
15822TIP3    H168881   2.130   2.083  16.773 -1.9071  0.1539  0.9789
15822TIP3    H268882   2.161   2.165  16.650  0.6422 -1.8680  0.1626
15823TIP3   OH268883   1.007   3.295   6.359  0.3075 -0.3084 -0.3747
15823TIP3    H168884   1.058   3.257   6.430 -0.8096  1.0705  1.2569
15823TIP3    H268885   0.978   3.380   6.393 -0.4897  0.3028 -2.3946
15824TIP3   OH268886   1.481   2.668  16.941  0.1095  0.2520  0.6199
15824TIP3    H168887   1.417   2.720  16.991 -1.6162 -1.4894  0.3354
15824TIP3    H268888   1.559   2.723  16.939 -0.8942  1.8770  2.2226
15825TIP3   OH268889   3.416   4.292   0.941  0.0570 -0.1812 -0.1576
15825TIP3    H168890   3.432   4.301   1.035  0.1037 -1.4714 -0.0218
15825TIP3    H268891   3.322   4.305   0.932 -0.1823 -1.4956  0.2834
15826TIP3   OH268892   2.676   5.757   1.677  0.2829 -0.3818  0.2425
15826TIP3    H168893   2.721   5.841   1.682 -0.3328  0.0290 -0.7990
15826TIP3    H268894   2.583   5.779   1.679  0.0746 -0.8656 -1.6305
15827TIP3   OH268895   1.028   3.623  14.831  0.2653 -0.3415  0.2223
15827TIP3    H168896   0.991   3.584  14.909 -0.6896  0.7369  0.3447
15827TIP3    H268897   0.957   3.622  14.767  0.1389  1.2789  0.2827
15828TIP3   OH268898   4.913   4.162   4.930  0.0912  0.0259 -0.2735
15828TIP3    H168899   4.938   4.121   4.847  0.2178 -1.4973  0.4874
15828TIP3    H268900   4.992   4.209   4.958  0.2119  0.1189 -0.7585
15829TIP3   OH268901   3.277   3.044  16.246 -0.0222 -0.2510 -0.4010
15829TIP3    H168902   3.190   3.076  16.272 -0.5699 -1.3790 -0.7951
15829TIP3    H268903   3.297   3.093  16.166 -0.2703  0.0414 -0.2876
15830TIP3   OH268904   0.683   3.095   3.728 -0.6374 -0.1869  0.1798
15830TIP3    H168905   0.622   3.023   3.744 -0.4383 -0.2112  0.8599
15830TIP3    H268906   0.762   3.071   3.776 -0.5662  0.4806  0.4095
15831TIP3   OH268907   0.125   3.749  11.644  0.1430 -0.9342 -0.4351
15831TIP3    H168908   0.209   3.728  11.685  0.7593 -0.2948 -1.3148
15831TIP3    H268909   0.075   3.667  11.647 -0.1945 -0.7313  2.2895
15832TIP3   OH268910   2.561   5.543  12.861 -0.2659 -0.1763 -0.2355
15832TIP3    H168911   2.620   5.525  12.787  0.3892  3.2812 -0.7168
15832TIP3    H268912   2.608   5.511  12.938  0.8043 -0.3323 -0.9369
15833TIP3   OH268913   4.518   1.268  15.022 -0.3490 -0.2884  0.3089
15833TIP3    H168914   4.544   1.306  14.938 -0.9284  3.0218  1.4383
15833TIP3    H268915   4.544   1.334  15.086  1.0415 -3.1419  2.9273
15834TIP3   OH268916   1.712   0.296   2.248  0.1196  0.1560  0.1294
15834TIP3    H168917   1.720   0.209   2.287 -0.7774  0.4777  1.0720
15834TIP3    H268918   1.635   0.334   2.290 -2.1057 -0.1374 -3.2780
15835TIP3   OH268919   1.275   6.149  17.024 -0.0860 -0.2271  0.4983
15835TIP3    H168920   1.357   6.181  17.059 -0.5539 -0.6702  2.0964
15835TIP3    H268921   1.231   6.108  17.099 -1.0367 -1.4553 -0.6678
15836TIP3   OH268922   1.228   0.327  16.404 -0.6408  1.0921 -0.2195
15836TIP3    H168923   1.237   0.379  16.324 -0.6714 -0.3126 -1.1757
15836TIP3    H268924   1.313   0.282  16.412 -0.8676  0.7338  0.1716
15837TIP3   OH268925   2.644   2.048  11.511  0.0708  0.0651 -0.1319
15837TIP3    H168926   2.557   2.088  11.507 -0.4783 -1.1615 -1.1329
15837TIP3    H268927   2.703   2.119  11.489 -0.9269  0.2514 -2.5021
15838TIP3   OH268928   4.341   1.181  15.735  0.3825 -0.3921  0.0915
15838TIP3    H168929   4.368   1.092  15.758  1.3131  0.4888  2.8414
15838TIP3    H268930   4.246   1.175  15.726  0.5623 -1.9081 -1.2295
15839TIP3   OH268931   5.981   3.047  12.080 -0.1527 -0.0439 -0.2680
15839TIP3    H168932   6.028   3.093  12.149 -1.5283  1.6412 -0.4064
15839TIP3    H268933   5.894   3.087  12.078 -1.1177 -2.0319 -1.0373
15840TIP3   OH268934   0.423   5.237   1.400  0.2562 -0.0014 -0.0968
15840TIP3    H168935   0.329   5.250   1.383  0.2600  0.1918  0.0213
15840TIP3    H268936   0.462   5.323   1.384  0.4607 -0.1645 -0.4620
15841TIP3   OH268937   4.557   6.788  13.128  0.3209  0.3778  0.1099
15841TIP3    H168938   4.495   6.777  13.200 -0.7185 -0.9092 -0.9488
15841TIP3    H268939   4.511   6.843  13.065 -0.3244 -1.6180 -1.2552
15842TIP3   OH268940   1.440   0.262   2.704  0.7229  0.6781 -0.0787
15842TIP3    H168941   1.523   0.305   2.684  0.3884  2.3920  1.8332
15842TIP3    H268942   1.374   0.330   2.690  0.0333  0.4721  1.8551
15843TIP3   OH268943   1.145   5.500   2.728  0.5990  0.1340 -0.3634
15843TIP3    H168944   1.204   5.560   2.683  0.1473  0.9272  0.0939
15843TIP3    H268945   1.113   5.549   2.803 -1.0557 -0.0824 -0.8902
15844TIP3   OH268946   2.737   2.184  14.159 -0.2684  0.2609 -0.1943
15844TIP3    H168947   2.759   2.235  14.237  0.7795  0.9781 -0.9348
15844TIP3    H268948   2.753   2.244  14.086  2.6954 -1.5575 -1.2342
15845TIP3   OH268949   1.824   6.536   2.665 -0.1521  0.0329  0.0745
15845TIP3    H168950   1.897   6.505   2.611 -1.2484 -0.9556 -0.8938
15845TIP3    H268951   1.854   6.621   2.699  0.3199  1.0953 -2.7280
15846TIP3   OH268952   2.517   0.321   3.067  0.2652  0.2420  0.0526
15846TIP3    H168953   2.584   0.271   3.113 -0.0845 -0.3204 -0.0281
15846TIP3    H268954   2.531   0.412   3.093  1.1083  0.1382 -0.0353
15847TIP3   OH268955   5.308   0.554  13.254  0.3396  0.9535 -0.0945
15847TIP3    H168956   5.360   0.561  13.174  0.8103 -0.2529  0.0754
15847TIP3    H268957   5.244   0.485  13.235  0.9924  0.0624  0.8335
15848TIP3   OH268958   4.230   5.795   4.864 -0.3132 -0.4176  0.5960
15848TIP3    H168959   4.293   5.854   4.824  1.2886 -1.0068  2.1082
15848TIP3    H268960   4.196   5.743   4.791  0.0623  0.7132 -0.4115
15849TIP3   OH268961   2.227   5.799  10.497  0.1260  0.1153 -0.4714
15849TIP3    H168962   2.297   5.799  10.563 -0.8545 -0.0392  0.6051
15849TIP3    H268963   2.185   5.713  10.507  1.7788 -1.1765 -3.3542
15850TIP3   OH268964   0.600   2.440   4.880 -0.4330  0.1139 -0.2649
15850TIP3    H168965   0.632   2.365   4.829 -1.8187 -0.6626 -0.0404
15850TIP3    H268966   0.666   2.508   4.866 -0.8207  0.0069 -3.2548
15851TIP3   OH268967   2.074   0.963  13.112 -0.0396  0.7133  0.0744
15851TIP3    H168968   2.140   1.003  13.169  0.2968 -0.3983  0.4910
15851TIP3    H268969   2.118   0.887  13.073 -0.6070  0.8347 -0.8303
15852TIP3   OH268970   5.366   5.258   1.054 -1.0599  0.3031  0.2133
15852TIP3    H168971   5.418   5.294   0.982 -2.1382  0.3574 -0.5722
15852TIP3    H268972   5.408   5.291   1.133 -0.8316  1.6561 -0.4364
15853TIP3   OH268973   3.863   5.185   1.963 -0.3619 -0.4480 -0.1927
15853TIP3    H168974   3.860   5.192   2.059 -0.4379  2.0278 -0.3349
15853TIP3    H268975   3.936   5.125   1.947  1.0997  0.7959  1.3988
15854TIP3   OH268976   0.551   0.320   6.138  0.0390  0.0260  0.7974
15854TIP3    H168977   0.462   0.295   6.111 -0.0905  2.3341 -1.2904
15854TIP3    H268978   0.541   0.350   6.228 -0.6768 -2.4496  1.6304
15855TIP3   OH268979   5.429   6.647   2.045 -0.4434 -0.1345 -0.0018
15855TIP3    H168980   5.485   6.573   2.066 -1.5552 -0.8081  0.6351
15855TIP3    H268981   5.370   6.615   1.976 -0.6986  0.2638  0.0257
15856TIP3   OH268982   5.470   2.913  15.006 -0.3832  0.7968 -0.5068
15856TIP3    H168983   5.554   2.955  15.029 -0.3416  0.3421  0.1742
15856TIP3    H268984   5.486   2.875  14.919 -0.3120  1.8721 -0.9879
15857TIP3   OH268985   1.668   4.534  13.753  0.7398 -0.0032  0.4520
15857TIP3    H168986   1.709   4.581  13.681  1.3960 -0.0011  0.8164
15857TIP3    H268987   1.575   4.535  13.733  1.0475 -1.4602 -1.2526
15858TIP3   OH268988   5.413   0.565   1.505 -0.0005 -0.3213  0.0754
15858TIP3    H168989   5.317   0.561   1.502 -0.0055  0.1756 -0.6495
15858TIP3    H268990   5.439   0.576   1.414  0.6266  1.9602  0.4794
15859TIP3   OH268991   1.628   6.168  12.051 -0.0101 -0.0295  0.1806
15859TIP3    H168992   1.594   6.251  12.017  0.1236 -0.4515 -1.0447
15859TIP3    H268993   1.551   6.123  12.086 -0.8867 -1.0785 -2.7704
15860TIP3   OH268994   1.654   2.433   5.393 -0.4860 -0.1837 -0.2463
15860TIP3    H168995   1.612   2.408   5.311 -1.2522  0.4075 -0.0491
15860TIP3    H268996   1.635   2.526   5.403  0.5364  0.0069  0.0642
15861TIP3   OH268997   2.489   4.218   2.671  0.0298 -0.6727 -0.1132
15861TIP3    H168998   2.477   4.262   2.587 -0.4379  2.1474  1.3215
15861TIP3    H268999   2.424   4.147   2.670  0.4450 -1.0851 -2.3115
15862TIP3   OH269000   2.583   3.197  13.810  0.2162 -0.1006  0.1650
15862TIP3    H169001   2.593   3.215  13.716  1.1568 -2.0682 -0.1552
15862TIP3    H269002   2.583   3.284  13.851  0.1683  0.7846 -1.6026
15863TIP3   OH269003   3.900   3.693  11.934  0.4299  0.3685  0.5551
15863TIP3    H169004   3.837   3.704  11.863  0.5509  2.6541  0.7206
15863TIP3    H269005   3.853   3.718  12.013  0.9912  0.1886  0.9554
15864TIP3   OH269006   1.070   3.239   3.643 -0.3235 -0.4729  0.3293
15864TIP3    H169007   1.080   3.181   3.718 -0.1089  1.0465  1.5387
15864TIP3    H269008   0.975   3.247   3.632 -0.3570 -0.7265  0.4147
15865TIP3   OH269009   0.162   4.057   4.731 -0.2347  0.5143  0.3597
15865TIP3    H169010   0.184   3.965   4.718  1.4237  1.1663 -2.2589
15865TIP3    H269011   0.104   4.079   4.658  1.0238  1.9798 -0.2733
15866TIP3   OH269012   5.801   3.262   6.728 -0.5855  0.2883 -0.1601
15866TIP3    H169013   5.854   3.311   6.790 -0.6849  2.2899 -1.5415
15866TIP3    H269014   5.862   3.239   6.658 -0.7285 -0.8631  0.0788
15867TIP3   OH269015   4.038   3.749  10.859 -0.3233  0.5910 -0.5113
15867TIP3    H169016   4.056   3.821  10.799  1.3967  1.1008  0.5500
15867TIP3    H269017   4.072   3.671  10.814 -1.0877  0.6103 -1.1394
15868TIP3   OH269018   2.556   2.074  12.992  0.5341  0.0465 -0.2768
15868TIP3    H169019   2.575   2.139  12.925  2.5029 -0.8688 -0.6652
15868TIP3    H269020   2.491   2.116  13.048  0.4718  1.6624 -1.4802
15869TIP3   OH269021   6.171   1.871  11.490  0.6759  0.7087  0.1973
15869TIP3    H169022   6.150   1.825  11.409  1.7976  0.3650  0.0766
15869TIP3    H269023   6.256   1.912  11.473  0.3848  1.5901  0.8112
15870TIP3   OH269024   6.704   2.684  15.575  0.7722 -0.7814  0.3871
15870TIP3    H169025   6.702   2.760  15.633  0.7976 -0.7771  0.3827
15870TIP3    H269026   6.660   2.615  15.624 -2.0010  0.0419 -0.7568
15871TIP3   OH269027   2.019   6.010   3.751 -0.4616  0.1827  0.0057
15871TIP3    H169028   1.925   6.012   3.770 -0.6277 -0.2931 -0.7159
15871TIP3    H269029   2.060   6.039   3.833 -1.2509  1.0028  0.1350
15872TIP3   OH269030   6.252   4.557  14.656 -0.7039  0.7360 -0.6409
15872TIP3    H169031   6.285   4.474  14.690  1.0723  1.0577 -1.4616
15872TIP3    H269032   6.244   4.613  14.733 -0.2241  0.3440 -0.2985
15873TIP3   OH269033   4.176   5.815   3.716 -0.1270  0.1922 -0.2045
15873TIP3    H169034   4.247   5.879   3.723  0.3075 -0.4429  1.8736
15873TIP3    H269035   4.217   5.738   3.677 -0.0913  0.3780 -0.5412
15874TIP3   OH269036   4.647   1.713   5.203 -1.1080  0.0114 -0.0659
15874TIP3    H169037   4.702   1.658   5.148 -1.5518  0.4543 -0.9753
15874TIP3    H269038   4.576   1.656   5.231 -1.9626  0.2661 -1.5919
15875TIP3   OH269039   6.691   5.912   4.324  0.5172 -1.0437  0.5229
15875TIP3    H169040   6.611   5.873   4.289 -0.0320 -0.6088  1.2499
15875TIP3    H269041   6.761   5.855   4.293 -0.1162 -1.6984  0.2583
15876TIP3   OH269042   1.494   1.072  14.556  0.0151 -0.0757 -0.0346
15876TIP3    H169043   1.589   1.085  14.547  0.1690 -0.7986  0.4639
15876TIP3    H269044   1.480   0.982  14.528 -0.5722  0.1014 -0.3323
15877TIP3   OH269045   5.285   5.190  15.093  0.8452  0.0481 -0.4877
15877TIP3    H169046   5.209   5.212  15.146  0.4498 -0.3660 -0.8747
15877TIP3    H269047   5.285   5.255  15.023  2.1212  1.4221  0.7117
15878TIP3   OH269048   5.706   6.610  15.608  0.7252  0.1532 -0.1068
15878TIP3    H169049   5.624   6.660  15.616  0.3732 -0.5655  1.0889
15878TIP3    H269050   5.743   6.639  15.525 -0.8563  0.3304 -0.7979
15879TIP3   OH269051   1.073   3.612  12.116 -1.1678  0.1365 -0.7278
15879TIP3    H169052   1.131   3.640  12.187  1.4974 -2.1435 -1.8098
15879TIP3    H269053   1.025   3.691  12.091  2.0269  2.4438 -0.1941
15880TIP3   OH269054   1.013   1.429   4.127 -0.1046 -0.2345 -0.3670
15880TIP3    H169055   0.935   1.381   4.157  0.7423 -1.2691  0.2658
15880TIP3    H269056   1.084   1.396   4.183  0.7319  0.9280 -0.7084
15881TIP3   OH269057   0.049   6.720   2.296  0.0528  0.3954  0.5276
15881TIP3    H169058   0.115   6.751   2.358  2.8246 -1.8525 -1.0780
15881TIP3    H269059   0.063   6.772   2.217 -1.2592  1.0026  0.6619
15882TIP3   OH269060   3.746   2.508  12.580 -0.1305 -0.3076  0.0650
15882TIP3    H169061   3.673   2.570  12.574 -1.1895 -1.5254  0.0650
15882TIP3    H269062   3.821   2.557  12.548 -1.0301  0.8376 -0.3639
15883TIP3   OH269063   3.190   3.593   5.274  0.8866 -0.2322  0.4194
15883TIP3    H169064   3.163   3.503   5.294 -1.2423  0.2541 -0.0494
15883TIP3    H269065   3.148   3.647   5.340  1.5774  0.4971  0.2849
15884TIP3   OH269066   4.555   4.610  17.097 -0.2353  0.6170  0.7669
15884TIP3    H169067   4.519   4.692  17.064 -2.5454 -1.2651 -1.8271
15884TIP3    H269068   4.645   4.607  17.062 -0.0417  2.0893  1.0861
15885TIP3   OH269069   2.251   5.006  12.309 -0.5596  0.1177 -0.1016
15885TIP3    H169070   2.282   4.922  12.273 -1.5022 -0.7062  0.9411
15885TIP3    H269071   2.308   5.071  12.269  0.8402 -1.1114 -0.2110
15886TIP3   OH269072   1.663   3.570  12.013 -0.4407  0.3263 -0.6724
15886TIP3    H169073   1.719   3.550  11.938 -0.0786 -1.5064  0.0490
15886TIP3    H269074   1.585   3.515  12.000  0.0354 -0.7351  0.7438
15887TIP3   OH269075   5.902   0.870  13.853  0.5609 -0.4904  0.0597
15887TIP3    H169076   5.909   0.926  13.776 -0.2961 -0.6100 -0.1173
15887TIP3    H269077   5.935   0.785  13.824 -2.0707 -1.2570 -0.9753
15888TIP3   OH269078   6.412   5.333   3.686  0.7645 -0.1011 -0.0844
15888TIP3    H169079   6.461   5.265   3.732  0.2574 -2.0377 -2.2104
15888TIP3    H269080   6.415   5.307   3.594  2.1664  3.7876 -1.3695
15889TIP3   OH269081   3.335   6.717  11.124  0.6219 -0.1235  0.0257
15889TIP3    H169082   3.413   6.768  11.144  0.9839 -1.8685  3.7465
15889TIP3    H269083   3.366   6.649  11.064  1.0746  1.3161 -1.4473
15890TIP3   OH269084   0.721   3.392   6.710 -0.4693  0.1469  0.7319
15890TIP3    H169085   0.772   3.399   6.791 -0.6711  2.5883  0.7349
15890TIP3    H269086   0.783   3.411   6.640 -0.4840 -1.1015  0.3669
15891TIP3   OH269087   2.600   5.491  15.477  0.3851  0.2877  0.5426
15891TIP3    H169088   2.645   5.454  15.553  1.6427  0.1695 -0.2355
15891TIP3    H269089   2.654   5.466  15.402 -1.6910 -1.0069 -0.6055
15892TIP3   OH269090   3.379   4.146   0.215 -0.6166  0.5217 -0.1187
15892TIP3    H169091   3.360   4.072   0.158  0.5239 -0.9103  1.2747
15892TIP3    H269092   3.475   4.146   0.222 -0.7206  0.8532  1.5244
15893TIP3   OH269093   2.183   3.188   1.778 -0.1519  0.7403 -0.1844
15893TIP3    H169094   2.146   3.271   1.745 -1.2640  0.9114  1.4004
15893TIP3    H269095   2.273   3.210   1.800 -0.0554  1.1949 -0.9790
15894TIP3   OH269096   0.011   3.413   1.344 -0.1098  0.5527  0.6292
15894TIP3    H169097   0.010   3.347   1.413 -1.6163  1.0795  1.1573
15894TIP3    H269098  -0.022   3.366   1.267 -0.6721  0.5347  0.8716
15895TIP3   OH269099   3.845   3.503  14.188 -0.5850  0.2723 -0.4676
15895TIP3    H169100   3.863   3.597  14.189 -2.0973  0.6103 -1.2747
15895TIP3    H269101   3.750   3.497  14.175 -0.3797 -1.3735 -1.5221
15896TIP3   OH269102   5.127   5.884   0.029 -0.7887  0.3801  0.4980
15896TIP3    H169103   5.186   5.912  -0.041 -0.2285 -1.0848  0.3521
15896TIP3    H269104   5.090   5.802  -0.001 -3.5033  1.5524  0.2912
15897TIP3   OH269105   5.349   6.068  13.555  0.1235 -0.5073 -0.4012
15897TIP3    H169106   5.312   6.150  13.587  0.7972  1.5647 -4.3746
15897TIP3    H269107   5.443   6.082  13.556  0.3586 -1.9094  0.3174
15898TIP3   OH269108   0.880   5.707  12.446 -0.3092 -0.0098 -0.2089
15898TIP3    H169109   0.926   5.738  12.524  0.5190  0.0866 -0.7284
15898TIP3    H269110   0.948   5.668  12.391 -0.3367  2.5075 -2.2126
15899TIP3   OH269111   5.903   3.497  11.493  0.4521 -0.2182  0.0489
15899TIP3    H169112   5.870   3.525  11.578  0.0571  1.7887 -0.7261
15899TIP3    H269113   5.998   3.505  11.500  0.5131 -1.3461  0.7079
15900TIP3   OH269114   4.481   4.119  16.319 -0.1171 -0.1830 -0.0340
15900TIP3    H169115   4.568   4.154  16.301  0.5800 -0.6251  2.1449
15900TIP3    H269116   4.435   4.191  16.363  0.1934 -0.8678  1.4705
15901TIP3   OH269117   0.762   5.294  13.722 -0.1623  0.3726 -0.1483
15901TIP3    H169118   0.685   5.243  13.746 -0.0160 -0.7713 -1.8674
15901TIP3    H269119   0.728   5.368  13.672 -0.1392 -0.4924 -1.4798
15902TIP3   OH269120   6.177   3.525  14.614 -0.1691  0.2434  0.2314
15902TIP3    H169121   6.257   3.496  14.658 -0.8656  0.8321  1.9906
15902TIP3    H269122   6.107   3.478  14.660 -0.9929  1.4395  0.2264
15903TIP3   OH269123   2.018   5.736   0.338  0.3447 -0.3908 -0.2155
15903TIP3    H169124   1.956   5.751   0.410 -0.0992 -2.6361 -0.0423
15903TIP3    H269125   2.102   5.720   0.382 -0.3060 -3.7916  0.1065
15904TIP3   OH269126   5.082   4.784  13.298  0.2331  0.2007 -0.5813
15904TIP3    H169127   5.033   4.750  13.373  0.9347 -0.4856 -0.4248
15904TIP3    H269128   5.019   4.780  13.226 -0.0685 -0.3011 -0.3000
15905TIP3   OH269129   0.220   4.671   1.905  0.5310 -0.0873  0.1259
15905TIP3    H169130   0.210   4.687   1.999  2.2108  2.9811 -0.1083
15905TIP3    H269131   0.156   4.729   1.864  0.6137 -0.5503 -0.6833
15906TIP3   OH269132   0.003   5.017   5.491 -0.1792  0.4215 -0.0441
15906TIP3    H169133  -0.069   4.974   5.446  0.3190 -0.8551  0.3258
15906TIP3    H269134   0.073   5.021   5.426  0.1285 -0.3145  0.2267
15907TIP3   OH269135   1.150   5.865  13.920  0.4593 -0.0872 -0.8724
15907TIP3    H169136   1.229   5.911  13.947  0.3853 -0.0098 -0.7870
15907TIP3    H269137   1.081   5.931  13.928  0.2673 -0.3629 -0.2572
15908TIP3   OH269138   1.859   2.665   6.246  0.0559  0.0484  0.1380
15908TIP3    H169139   1.902   2.608   6.311  0.7891 -0.2080 -0.5486
15908TIP3    H269140   1.914   2.743   6.243  0.4085 -0.2171 -0.6372
15909TIP3   OH269141   0.609   4.103   1.711  0.2200 -0.2787 -0.6028
15909TIP3    H169142   0.533   4.125   1.765 -0.7795 -0.5241 -1.8561
15909TIP3    H269143   0.651   4.030   1.757 -1.4714 -1.4860 -0.8989
15910TIP3   OH269144   2.514   2.553   2.689  0.4603 -0.1145  0.8614
15910TIP3    H169145   2.556   2.533   2.606  0.2091  0.0974  0.6824
15910TIP3    H269146   2.478   2.469   2.718 -1.0949  0.1394 -0.1763
15911TIP3   OH269147   3.557   1.096   1.633  0.3474  0.2740 -0.0661
15911TIP3    H169148   3.507   1.030   1.584  1.4440  0.4297 -1.4404
15911TIP3    H269149   3.601   1.148   1.566  1.9120  0.5045  1.0808
15912TIP3   OH269150   5.233   6.493  16.321 -0.2403 -0.7217  0.1283
15912TIP3    H169151   5.177   6.528  16.389 -1.6000 -1.3669 -0.6144
15912TIP3    H269152   5.292   6.432  16.366 -0.8170 -0.7958  0.7810
15913TIP3   OH269153   0.050   6.027  13.271 -0.1302 -0.1888 -0.0429
15913TIP3    H169154   0.023   5.936  13.284  3.5249 -1.4839 -0.3242
15913TIP3    H269155   0.031   6.046  13.179 -0.0154 -1.0457 -0.2488
15914TIP3   OH269156   4.296   1.596   3.627 -0.0267 -0.1585  0.3401
15914TIP3    H169157   4.210   1.568   3.656 -0.7532  0.7460 -0.8325
15914TIP3    H269158   4.356   1.564   3.694 -0.9393 -3.1140 -0.1219
15915TIP3   OH269159   3.595   3.239  10.835  0.0564 -0.4630 -0.2352
15915TIP3    H169160   3.685   3.213  10.855  0.3231  0.6888  0.0998
15915TIP3    H269161   3.567   3.176  10.768  1.3444 -0.4268 -0.8458
15916TIP3   OH269162   6.177   2.975  11.187 -0.4466 -0.0503  0.5207
15916TIP3    H169163   6.216   2.895  11.149  1.2054 -0.1079  2.2053
15916TIP3    H269164   6.148   2.948  11.274 -0.0181  1.1471  1.0443
15917TIP3   OH269165   3.656   4.730  12.139 -0.0814  0.2456  0.1281
15917TIP3    H169166   3.631   4.822  12.138 -0.5582  0.1191 -0.7464
15917TIP3    H269167   3.643   4.702  12.229 -1.0085  0.7498  0.1558
15918TIP3   OH269168   0.255   3.465  11.766  0.0698  0.4136 -0.1458
15918TIP3    H169169   0.294   3.383  11.796  0.4832  0.4972 -0.4488
15918TIP3    H269170   0.183   3.437  11.709  0.0947  0.2581 -0.1028
15919TIP3   OH269171   1.336   0.875   3.825  0.5404  0.0630  0.2870
15919TIP3    H169172   1.342   0.967   3.798  0.8310  0.1966  0.7694
15919TIP3    H269173   1.253   0.869   3.872  0.1026 -0.1361 -0.4926
15920TIP3   OH269174   5.261   1.353  13.181 -0.3601 -0.3621  0.5416
15920TIP3    H169175   5.316   1.278  13.204  0.2408  0.4071  1.7055
15920TIP3    H269176   5.310   1.399  13.113 -1.2484 -1.5925 -1.0039
15921TIP3   OH269177   6.069   3.003   0.619 -0.3031  0.1620  0.2409
15921TIP3    H169178   6.107   3.027   0.704  0.1911 -0.3072  0.1577
15921TIP3    H269179   6.109   2.918   0.598 -1.4251 -0.3677  0.1696
15922TIP3   OH269180   2.638   3.569  11.236 -0.5589  0.2046 -0.4174
15922TIP3    H169181   2.600   3.484  11.256  1.3043 -0.3637  1.0454
15922TIP3    H269182   2.691   3.590  11.313  0.3313  1.9254 -1.4336
15923TIP3   OH269183   2.590   6.769  16.930  0.7634 -0.0114  0.0477
15923TIP3    H169184   2.569   6.676  16.924  0.2435  0.0965  0.1375
15923TIP3    H269185   2.640   6.777  17.011  1.5547 -0.3402 -0.3911
15924TIP3   OH269186   2.570   6.265  13.691  0.0854  0.2800  0.0555
15924TIP3    H169187   2.508   6.194  13.672 -0.2430  0.0147  1.9258
15924TIP3    H269188   2.518   6.330  13.737  0.4644  1.6401 -1.3394
15925TIP3   OH269189   2.185   0.686  15.914 -0.0768  0.2679 -0.2773
15925TIP3    H169190   2.131   0.664  15.839 -1.4628  1.0995  0.4384
15925TIP3    H269191   2.135   0.752  15.961  1.0782  0.2734  1.0045
15926TIP3   OH269192   6.698   6.738  13.969  0.9804  0.8005  0.0049
15926TIP3    H169193   6.690   6.715  13.876  1.8252  1.3774 -0.2224
15926TIP3    H269194   6.638   6.812  13.980 -1.3486 -1.0292  0.6221
15927TIP3   OH269195   5.972   4.524  16.840  0.3757  0.2123  0.6660
15927TIP3    H169196   5.889   4.495  16.802  0.2412  0.6373  0.6257
15927TIP3    H269197   5.985   4.612  16.805 -0.1622  0.9550  2.2118
15928TIP3   OH269198   1.198   0.595   1.983  0.3472 -0.0881 -0.5605
15928TIP3    H169199   1.231   0.577   2.071  0.4347  0.1950 -0.5341
15928TIP3    H269200   1.209   0.513   1.936 -0.8622 -0.6216  0.0466
15929TIP3   OH269201   2.533   1.977  15.305  0.2343 -0.2413 -0.3787
15929TIP3    H169202   2.539   2.061  15.350 -0.0383 -1.2227  1.5484
15929TIP3    H269203   2.608   1.927  15.338 -0.6548 -1.4076 -0.0888
15930TIP3   OH269204   3.733   5.766  10.899 -0.6389  0.0075  0.3074
15930TIP3    H169205   3.793   5.761  10.825 -1.8387 -0.8770 -0.6356
15930TIP3    H269206   3.751   5.686  10.949 -0.0807  0.4301  0.8069
15931TIP3   OH269207   1.979   0.700  13.447  0.9073 -0.6920  0.4681
15931TIP3    H169208   1.981   0.781  13.497  2.3872  0.0474 -0.7088
15931TIP3    H269209   1.938   0.724  13.364  2.8407 -0.7050 -0.5392
15932TIP3   OH269210   4.779   4.160  11.619 -0.5230 -0.1479  0.5526
15932TIP3    H169211   4.825   4.195  11.696  0.1085  0.6837 -0.1804
15932TIP3    H269212   4.807   4.069  11.613  0.2142  0.0617  0.7302
15933TIP3   OH269213   0.981   1.123  13.624  0.1557  0.2622 -0.2269
15933TIP3    H169214   0.904   1.168  13.660 -0.7053 -2.2768  1.4451
15933TIP3    H269215   0.971   1.032  13.654  3.0542 -0.5024 -1.2551
15934TIP3   OH269216   1.886   3.565  11.830 -0.2732  0.0702 -0.5473
15934TIP3    H169217   1.971   3.587  11.791 -0.4868  0.2656 -0.9093
15934TIP3    H269218   1.853   3.494  11.776  0.5962 -1.4567  0.8676
15935TIP3   OH269219   0.202   5.882  10.460  0.2532  0.9758 -0.3148
15935TIP3    H169220   0.262   5.931  10.516  0.1502 -0.3637  1.0091
15935TIP3    H269221   0.118   5.885  10.507 -0.4168  1.7173 -1.5038
15936TIP3   OH269222   0.418   5.546  11.234  0.1054 -0.1859 -0.5130
15936TIP3    H169223   0.398   5.575  11.323  1.6668  1.0222 -0.5095
15936TIP3    H269224   0.341   5.496  11.207  0.1521 -1.7635  1.9841
15937TIP3   OH269225   5.050   5.235  15.233 -0.2573 -0.7683 -0.2661
15937TIP3    H169226   4.983   5.209  15.170 -0.8484 -1.9675  0.7980
15937TIP3    H269227   5.007   5.299  15.289  0.4141  0.6632 -1.3251
15938TIP3   OH269228   5.084   2.477   1.711  0.8385 -0.2102 -0.3428
15938TIP3    H169229   5.038   2.473   1.795  2.8213  0.3264  0.8448
15938TIP3    H269230   5.042   2.410   1.657 -1.8393  0.8038  0.3246
15939TIP3   OH269231   1.231   3.621  12.398  0.8190 -0.4679  0.1671
15939TIP3    H169232   1.228   3.527  12.380  0.2560 -0.4420  0.0929
15939TIP3    H269233   1.291   3.656  12.332  1.9274 -0.9235  0.9103
15940TIP3   OH269234   0.369   6.525   4.143  0.7998  0.0599  0.1036
15940TIP3    H169235   0.281   6.512   4.107  0.6099 -0.7460  0.8439
15940TIP3    H269236   0.395   6.439   4.175  2.4422 -0.0613 -1.3550
15941TIP3   OH269237   6.322   0.015  15.970 -0.0342 -0.2076 -0.2122
15941TIP3    H169238   6.248   0.069  15.942  0.2537  0.2846 -0.0342
15941TIP3    H269239   6.289  -0.075  15.966 -0.9236  0.0681  0.7301
15942TIP3   OH269240   4.077   2.720  12.180  0.0750 -0.2536 -0.2924
15942TIP3    H169241   4.097   2.627  12.194 -0.4333 -0.3648 -0.2941
15942TIP3    H269242   3.982   2.725  12.181  0.0793  0.1378 -1.1903
15943TIP3   OH269243   0.440   3.267  11.811  0.1163 -0.3099  0.3088
15943TIP3    H169244   0.485   3.183  11.802  0.2173 -0.3781  1.3411
15943TIP3    H269245   0.480   3.323  11.744  0.8270 -0.7604  0.3439
15944TIP3   OH269246   3.292   1.061  13.051 -0.4476  0.0080 -0.1405
15944TIP3    H169247   3.230   1.027  13.115 -0.1882  0.4419  0.3503
15944TIP3    H269248   3.238   1.097  12.981 -0.7609  0.5118  0.3503
15945TIP3   OH269249   0.920   1.004   3.294  0.2402 -0.4233  0.3568
15945TIP3    H169250   0.982   1.013   3.367  1.2743  2.7989 -0.7678
15945TIP3    H269251   0.836   1.030   3.330  0.8239  1.5829  0.3857
15946TIP3   OH269252   2.610   4.680  14.610  0.1964 -0.6628 -0.0397
15946TIP3    H169253   2.641   4.713  14.525 -0.9722 -0.2832 -0.3352
15946TIP3    H269254   2.532   4.629  14.589 -1.7296  1.6586  1.0277
15947TIP3   OH269255   4.945   0.650  10.447 -0.1696  0.1623 -0.5891
15947TIP3    H169256   4.875   0.648  10.513 -0.1706 -1.8928 -0.5926
15947TIP3    H269257   4.995   0.571  10.463  0.4385  0.1341 -2.4308
15948TIP3   OH269258   4.671   3.685   5.845 -1.2545  0.2299  0.3738
15948TIP3    H169259   4.630   3.662   5.761 -0.8052  1.9001 -0.3499
15948TIP3    H269260   4.752   3.730   5.820  0.0457 -1.2238  1.7596
15949TIP3   OH269261   3.527   5.659   2.340 -0.1673  0.0995  0.1409
15949TIP3    H169262   3.443   5.704   2.353  0.4165  1.0588  0.7967
15949TIP3    H269263   3.516   5.575   2.385 -1.6800 -1.0022 -2.0760
15950TIP3   OH269264   3.591   2.635  16.406  0.5647  0.1852 -0.2757
15950TIP3    H169265   3.539   2.674  16.477 -0.7829 -0.2406 -0.9949
15950TIP3    H269266   3.550   2.551  16.390  0.4024  0.5739 -2.0439
15951TIP3   OH269267   5.989   4.293   0.459 -0.1378 -0.2512  0.0928
15951TIP3    H169268   6.073   4.332   0.483  0.5890  0.6008 -3.2847
15951TIP3    H269269   6.013   4.216   0.406 -1.4945 -0.5734 -0.0877
15952TIP3   OH269270   5.689   4.604   3.283  0.1559  0.0396 -0.0994
15952TIP3    H169271   5.733   4.668   3.227 -0.9487 -1.5310 -3.0147
15952TIP3    H269272   5.755   4.537   3.298  1.2759  1.6404  2.8563
15953TIP3   OH269273   1.044   2.352  16.154 -0.5978  0.5186 -0.1184
15953TIP3    H169274   1.037   2.260  16.130  0.0421  0.3250  0.4170
15953TIP3    H269275   1.117   2.385  16.102 -0.6936  0.6775 -0.1552
15954TIP3   OH269276   6.382   2.992  14.577  0.0940  0.0007 -0.0672
15954TIP3    H169277   6.332   3.062  14.621  0.4233  0.1586  0.0562
15954TIP3    H269278   6.468   2.995  14.617  0.9981  1.3420 -1.9552
15955TIP3   OH269279   2.653   2.606   4.751 -0.0261  0.1824  0.1924
15955TIP3    H169280   2.650   2.636   4.660 -2.4224  0.4184  0.2675
15955TIP3    H269281   2.726   2.654   4.790  1.6326 -0.5790 -1.7760
15956TIP3   OH269282   1.215   2.052   4.540 -0.0841  0.4340 -0.0746
15956TIP3    H169283   1.217   2.064   4.445  0.5294  0.9880  0.0013
15956TIP3    H269284   1.297   2.009   4.560  1.4001  3.3241  0.5637
15957TIP3   OH269285   1.820   6.726  11.234  0.4223  0.0559 -0.0271
15957TIP3    H169286   1.867   6.665  11.291 -0.2555  0.4540  0.9837
15957TIP3    H269287   1.853   6.812  11.258 -0.1188  0.2594  0.0117
15958TIP3   OH269288   0.130   6.495   0.982 -0.4533  0.0851  0.3848
15958TIP3    H169289   0.059   6.531   0.929  0.5899  0.1427 -1.0403
15958TIP3    H269290   0.160   6.419   0.932 -0.6735 -1.0056  1.8650
15959TIP3   OH269291   5.492   4.486  16.619 -0.1630  0.4911  0.0726
15959TIP3    H169292   5.539   4.514  16.541  2.8963  0.3319  1.7038
15959TIP3    H269293   5.491   4.562  16.676  1.0214 -0.3927  1.3328
15960TIP3   OH269294   4.294   1.436   4.415  0.2867 -0.1254 -0.2858
15960TIP3    H169295   4.325   1.465   4.329 -1.6667  1.3719 -0.5562
15960TIP3    H269296   4.365   1.383   4.449  1.4020 -0.2126 -2.5423
15961TIP3   OH269297   2.992   1.342   0.758  0.4180  0.2145 -0.3472
15961TIP3    H169298   2.943   1.336   0.840 -0.5778  1.6110 -0.7963
15961TIP3    H269299   2.966   1.266   0.708 -1.0934  0.7709 -0.4432
15962TIP3   OH269300   6.239   5.734   3.082 -0.1405 -0.4706  0.2738
15962TIP3    H169301   6.307   5.731   3.014 -1.4871 -1.9658 -1.0912
15962TIP3    H269302   6.277   5.687   3.155  0.4492 -0.9668 -0.3389
15963TIP3   OH269303   6.248   4.174  16.656  0.6553  0.1036 -0.1501
15963TIP3    H169304   6.163   4.174  16.612  0.2648  1.0928  0.5541
15963TIP3    H269305   6.245   4.098  16.714  1.5729 -1.8366 -2.4557
15964TIP3   OH269306   3.553   4.701  15.536  0.1519  0.2767 -0.2567
15964TIP3    H169307   3.556   4.606  15.526 -2.5706 -0.0499  1.0762
15964TIP3    H269308   3.460   4.721  15.548  0.8141  2.8829  1.3613
15965TIP3   OH269309   5.362   4.866  12.250 -0.0218 -0.3258 -0.5290
15965TIP3    H169310   5.313   4.864  12.333  0.6990 -2.2007 -0.1143
15965TIP3    H269311   5.406   4.951  12.251  0.3575 -0.4903  1.2658
15966TIP3   OH269312   1.009   3.469   1.657  0.5269 -0.7426 -0.1552
15966TIP3    H169313   1.070   3.396   1.652  2.5979  0.9692 -1.6598
15966TIP3    H269314   0.997   3.497   1.566 -0.5524  0.5372  0.3416
15967TIP3   OH269315   0.048   4.579  11.467  0.1402 -0.5074 -0.1968
15967TIP3    H169316   0.092   4.494  11.457 -1.0427 -1.0028 -1.4317
15967TIP3    H269317   0.033   4.609  11.377 -0.2773  0.5928  0.2234
15968TIP3   OH269318   3.843   3.850   3.980 -0.3030 -0.2921  0.0956
15968TIP3    H169319   3.871   3.936   3.948  1.5105  0.1043  2.4333
15968TIP3    H269320   3.779   3.820   3.916  0.5469  1.8729 -1.9051
15969TIP3   OH269321   3.518   6.664  12.344  0.8666 -0.5439  0.0480
15969TIP3    H169322   3.530   6.569  12.343 -0.3772 -0.7263 -0.9724
15969TIP3    H269323   3.487   6.685  12.256 -1.2221  0.4785  0.9577
15970TIP3   OH269324   3.782   5.754   2.358  0.2770  0.1646 -0.6242
15970TIP3    H169325   3.695   5.713   2.353 -0.0834  0.8923 -0.4641
15970TIP3    H269326   3.830   5.719   2.283 -0.9131  1.4932 -2.0672
15971TIP3   OH269327   1.552   2.813   0.213 -0.7290  0.3231 -0.8426
15971TIP3    H169328   1.636   2.859   0.205 -1.2778  1.2459 -1.4713
15971TIP3    H269329   1.493   2.861   0.155 -1.8417  0.0374  0.0238
15972TIP3   OH269330   3.959   6.090   3.839 -0.1694 -0.2849  0.2164
15972TIP3    H169331   3.876   6.137   3.825  1.0233  1.9028  0.0124
15972TIP3    H269332   3.977   6.047   3.755 -1.0495 -0.7318  0.2453
15973TIP3   OH269333   6.757   5.094   1.843  0.0399 -0.6363  0.2838
15973TIP3    H169334   6.755   5.008   1.801  1.7999 -0.8862  0.6229
15973TIP3    H269335   6.812   5.082   1.920  1.6232  1.1282 -0.5016
15974TIP3   OH269336   0.700   5.124   5.398  0.2115  0.5823 -0.2314
15974TIP3    H169337   0.779   5.161   5.438 -0.1968 -0.5845  1.8118
15974TIP3    H269338   0.674   5.188   5.332  1.7631  1.9262  0.3919
15975TIP3   OH269339   2.513   3.592   5.609 -0.3691  0.5434  0.1188
15975TIP3    H169340   2.506   3.664   5.546 -1.3972 -1.4711 -2.2353
15975TIP3    H269341   2.492   3.513   5.559  2.3425 -1.6876  2.1073
15976TIP3   OH269342   4.108   5.145   3.260 -0.2365 -0.0104  0.1190
15976TIP3    H169343   4.017   5.116   3.251 -0.1592  0.3137 -3.1400
15976TIP3    H269344   4.104   5.239   3.243  0.8154 -0.2424 -1.6368
15977TIP3   OH269345   6.695   2.420   4.749 -0.2253 -0.4038 -0.2942
15977TIP3    H169346   6.689   2.394   4.841  1.6251 -0.6041 -0.2080
15977TIP3    H269347   6.781   2.390   4.720 -0.1998  0.8698 -1.7043
15978TIP3   OH269348   0.279   5.976  13.419 -0.6567 -0.0179 -0.0936
15978TIP3    H169349   0.195   5.990  13.376  0.1032 -1.0326 -2.0283
15978TIP3    H269350   0.326   6.058  13.407 -0.6416 -0.1224 -0.8357
15979TIP3   OH269351   1.374   3.130  10.464 -0.0981  0.5432 -0.7452
15979TIP3    H169352   1.329   3.185  10.528  0.7414  0.3740  0.0016
15979TIP3    H269353   1.434   3.189  10.418 -0.1258  0.5073 -0.8285
15980TIP3   OH269354   5.993   5.231   2.054 -0.0581  0.7005  0.3747
15980TIP3    H169355   5.988   5.157   1.993 -1.3978  1.4492 -0.4680
15980TIP3    H269356   6.058   5.290   2.015 -0.7319  1.0621 -0.2142
15981TIP3   OH269357   0.357   6.117  10.679 -0.2701  0.7730  0.2727
15981TIP3    H169358   0.420   6.065  10.630  0.5769 -0.4672  2.5496
15981TIP3    H269359   0.327   6.183  10.617  1.2561 -0.2605 -1.6664
15982TIP3   OH269360   4.497   4.202  13.089 -0.1005 -0.0176 -0.3306
15982TIP3    H169361   4.438   4.149  13.143 -0.9518  1.5188  0.3076
15982TIP3    H269362   4.559   4.240  13.151 -1.5212  2.3391 -0.2395
15983TIP3   OH269363   2.292   5.867  14.482 -0.2331 -0.3115 -0.1524
15983TIP3    H169364   2.331   5.925  14.416  0.1949 -0.3898  0.0288
15983TIP3    H269365   2.367   5.830  14.529 -0.5346  0.5010  1.0311
15984TIP3   OH269366   3.156   1.735   4.514  0.1705  0.5193  0.0623
15984TIP3    H169367   3.209   1.760   4.439  1.7472  0.0356  0.9831
15984TIP3    H269368   3.112   1.817   4.541 -1.4884  0.4465 -2.1282
15985TIP3   OH269369   6.713   4.377  14.791  0.0575  0.3873 -0.3571
15985TIP3    H169370   6.788   4.390  14.732  0.4207  3.3078  0.5733
15985TIP3    H269371   6.750   4.331  14.867  0.2398 -0.6909 -1.0709
15986TIP3   OH269372   2.090   0.021   1.246  0.2227 -0.1129 -0.4546
15986TIP3    H169373   2.159   0.086   1.242  0.5059 -0.4598 -3.7398
15986TIP3    H269374   2.022   0.054   1.188 -1.0966 -1.1999  0.4065
15987TIP3   OH269375   3.609   1.998  16.855  0.4262 -0.1510 -0.2559
15987TIP3    H169376   3.616   1.977  16.948  0.0303 -1.2806 -0.4660
15987TIP3    H269377   3.564   2.083  16.852  1.5679  0.5042  0.6038
15988TIP3   OH269378   2.809   2.917  12.216 -0.4437 -0.2675  1.1842
15988TIP3    H169379   2.758   2.982  12.167 -0.0534  0.2676  1.4807
15988TIP3    H269380   2.878   2.968  12.258  2.0968 -1.2498 -1.4333
15989TIP3   OH269381   5.225   3.000   4.299 -0.3616  0.6085  0.0011
15989TIP3    H169382   5.201   3.042   4.381  1.7943  0.0790  0.9635
15989TIP3    H269383   5.286   3.061   4.258 -0.9870  0.6069 -0.9619
15990TIP3   OH269384   6.724   0.299   5.391  0.5100  0.3097  0.1440
15990TIP3    H169385   6.719   0.369   5.326  1.6980 -1.0049 -1.4501
15990TIP3    H269386   6.804   0.252   5.369  0.1065 -1.1469  1.6015
15991TIP3   OH269387   5.206   1.690   3.057 -0.3130 -0.2618  0.4438
15991TIP3    H169388   5.300   1.678   3.067  0.1123 -0.4629 -2.6934
15991TIP3    H269389   5.172   1.602   3.041 -0.6039  0.0444 -0.7946
15992TIP3   OH269390   2.621   0.042  11.030  0.2927  0.5565  0.5667
15992TIP3    H169391   2.660  -0.019  11.093  0.0257  1.3041  1.4792
15992TIP3    H269392   2.612   0.124  11.079 -0.0798  1.1061 -0.4010
15993TIP3   OH269393   4.772   1.017  15.042  0.2195 -0.0217 -0.4208
15993TIP3    H169394   4.800   1.087  14.984 -0.5605  0.6974  0.0385
15993TIP3    H269395   4.691   1.050  15.082  1.2600 -0.0137  1.8896
15994TIP3   OH269396   6.636   4.269  16.404 -0.1696 -0.1515  0.7930
15994TIP3    H169397   6.612   4.263  16.497  1.4009  1.1870  1.3535
15994TIP3    H269398   6.730   4.247  16.403  0.1589  1.1914 -0.2543
15995TIP3   OH269399   3.581   6.086   5.858  0.4105 -0.0497  0.1418
15995TIP3    H169400   3.576   6.123   5.945  1.7087  1.0493 -0.2153
15995TIP3    H269401   3.516   6.016   5.857 -1.1063  1.2915  1.2901
15996TIP3   OH269402   5.930   5.293   5.195  0.2006 -0.6584  0.6697
15996TIP3    H169403   5.853   5.342   5.166  1.0367 -0.6698 -1.9100
15996TIP3    H269404   5.961   5.339   5.273 -2.2348 -0.5351  1.6419
15997TIP3   OH269405   2.020   2.441  12.305 -0.3415  0.3284 -0.1574
15997TIP3    H169406   2.009   2.360  12.255  0.4449 -0.5321  1.0082
15997TIP3    H269407   1.931   2.470  12.324 -0.7559 -1.9108  1.9336
15998TIP3   OH269408   5.772   6.755   5.305 -0.3434  0.4008 -0.1730
15998TIP3    H169409   5.781   6.845   5.271  0.1846  0.8264  1.0352
15998TIP3    H269410   5.810   6.700   5.236 -1.4524  1.0116 -1.3122
15999TIP3   OH269411   1.358   3.949   5.513 -0.4866 -0.1033 -0.3648
15999TIP3    H169412   1.274   3.971   5.554 -0.5652 -0.5489 -0.2889
15999TIP3    H269413   1.422   3.997   5.565 -0.6562 -0.0780 -0.1752
16000TIP3   OH269414   5.309   2.365   3.672  0.4608 -0.5822 -0.0756
16000TIP3    H169415   5.271   2.293   3.622 -1.0676  0.8342 -1.0612
16000TIP3    H269416   5.357   2.417   3.607  3.1263 -1.6225  0.9260
16001TIP3   OH269417   4.532   5.286   5.431  0.1939  0.2640  0.2129
16001TIP3    H169418   4.462   5.342   5.462 -1.3465 -2.1998  1.4386
16001TIP3    H269419   4.529   5.295   5.335  0.3603  2.5616  0.3588
16002TIP3   OH269420   0.104   0.758  12.854  0.1757 -0.5091 -0.2225
16002TIP3    H169421   0.086   0.844  12.816  1.2432  0.1731  0.7533
16002TIP3    H269422   0.031   0.744  12.915  0.5500  0.2277  0.4241
16003TIP3   OH269423   0.534   6.666   5.585 -0.0552 -0.4695  0.1051
16003TIP3    H169424   0.549   6.663   5.679  0.0347  1.4399  0.1721
16003TIP3    H269425   0.606   6.613   5.548  0.9506  0.2252  1.0124
16004TIP3   OH269426   1.091   3.412  15.082 -0.1630  0.2724  0.3363
16004TIP3    H169427   1.085   3.349  15.010 -0.6584 -1.1277  1.5508
16004TIP3    H269428   1.106   3.358  15.159 -1.2102  1.6090  1.5151
16005TIP3   OH269429   2.118   1.867   4.078 -0.6348 -0.2069  0.0890
16005TIP3    H169430   2.106   1.840   4.169 -0.4875  0.6759  0.3854
16005TIP3    H269431   2.040   1.919   4.058  0.5180  1.8157  0.5821
16006TIP3   OH269432   2.890   2.316   2.826 -0.3250 -0.0063  0.2569
16006TIP3    H169433   2.799   2.308   2.799 -0.5216 -2.0586  1.3421
16006TIP3    H269434   2.904   2.244   2.887  1.9090  0.5302  0.4861
16007TIP3   OH269435   1.393   4.815   2.397 -0.0299 -0.4745 -0.5611
16007TIP3    H169436   1.369   4.803   2.305  1.2498 -2.4936 -0.6901
16007TIP3    H269437   1.489   4.812   2.397  0.0494  0.9775  0.6856
16008TIP3   OH269438   5.328   3.978   3.391 -0.5158  0.8542  0.3746
16008TIP3    H169439   5.419   3.980   3.422  0.0135  0.9568 -1.1178
16008TIP3    H269440   5.334   3.992   3.297 -2.0776  0.6461  0.2134
16009TIP3   OH269441   6.342   0.944   0.459 -0.6691  0.3099  0.6753
16009TIP3    H169442   6.295   0.902   0.531 -1.8991 -0.7199 -0.6576
16009TIP3    H269443   6.307   1.033   0.455  0.3016  0.7899  2.0815
16010TIP3   OH269444   5.984   4.124  16.575  0.5754 -0.3255  0.6145
16010TIP3    H169445   5.944   4.112  16.661 -0.8545 -1.2747 -0.1301
16010TIP3    H269446   5.952   4.050  16.523  0.7847  0.6187 -0.9429
16011TIP3   OH269447   2.806   6.054   2.796 -0.4631  0.7249 -0.5839
16011TIP3    H169448   2.882   6.104   2.828 -0.0613  0.1404 -0.5954
16011TIP3    H269449   2.834   5.963   2.803 -1.5812  0.4332  0.4853
16012TIP3   OH269450   6.451   5.019  11.694  0.2735  0.2226 -0.6195
16012TIP3    H169451   6.403   5.102  11.697  0.2109  0.1678 -0.0100
16012TIP3    H269452   6.386   4.952  11.716  0.7759  0.2205  0.9874
16013TIP3   OH269453   3.132   5.178  14.239 -0.1021 -0.1618 -0.0618
16013TIP3    H169454   3.047   5.138  14.261 -0.5974  1.0198  0.2303
16013TIP3    H269455   3.146   5.244  14.307  3.5964 -3.7341  3.2058
16014TIP3   OH269456   4.313   3.052   3.592 -0.3223  0.6532 -0.3788
16014TIP3    H169457   4.331   3.038   3.685 -2.4849  3.2404  0.5879
16014TIP3    H269458   4.265   2.974   3.564  0.1173 -0.0402  0.7538
16015TIP3   OH269459   4.675   1.313   1.056  0.1530 -0.5137  0.3547
16015TIP3    H169460   4.609   1.381   1.041 -0.9256 -1.6935 -0.4541
16015TIP3    H269461   4.728   1.314   0.976  0.9121  0.2068  0.8634
16016TIP3   OH269462   6.091   1.137   1.620  0.3896 -0.3790 -0.7775
16016TIP3    H169463   6.146   1.206   1.581  0.1518  0.2350 -0.0579
16016TIP3    H269464   6.120   1.132   1.711  1.9662 -2.8550 -1.3453
16017TIP3   OH269465   4.063   4.526  13.234  0.2147 -0.4929 -0.6645
16017TIP3    H169466   4.031   4.479  13.311 -1.7855  0.6771 -0.6969
16017TIP3    H269467   4.052   4.619  13.257  6.2635  0.3691  0.3974
16018TIP3   OH269468   4.937   3.196   3.634  0.5147 -0.1431 -0.5178
16018TIP3    H169469   4.950   3.102   3.647  1.3441  0.1812  1.4882
16018TIP3    H269470   5.024   3.234   3.647  0.4953  0.8235 -2.7718
16019TIP3   OH269471   3.717   1.376   0.921  0.2222  0.2387 -0.2780
16019TIP3    H169472   3.653   1.362   0.991 -0.1358 -1.5995 -0.9233
16019TIP3    H269473   3.665   1.382   0.841  0.7914 -1.0398 -0.7804
16020TIP3   OH269474   4.420   1.949  13.587 -0.1945  0.1279 -0.3937
16020TIP3    H169475   4.507   1.988  13.574  0.6886 -2.4263 -3.6641
16020TIP3    H269476   4.368   2.019  13.626  2.6585  2.6223 -0.6516
16021TIP3   OH269477   5.807   2.049   0.137  0.0462 -0.0214 -0.0234
16021TIP3    H169478   5.749   2.028   0.210 -1.2131 -1.7804 -1.4098
16021TIP3    H269479   5.872   1.979   0.138 -0.1061 -0.1854 -0.6559
16022TIP3   OH269480   3.435   5.418  17.187  0.0020  0.1677  0.3906
16022TIP3    H169481   3.390   5.462  17.115  1.7984 -0.2152 -1.0463
16022TIP3    H269482   3.476   5.342  17.147  4.1674  1.8685  0.8528
16023TIP3   OH269483   5.716   3.030  16.649  0.4032 -0.3327  0.1937
16023TIP3    H169484   5.666   2.991  16.577 -0.2080 -0.2166  0.5548
16023TIP3    H269485   5.737   3.119  16.618  2.3258 -1.0865 -0.8929
16024TIP3   OH269486   5.334   0.605  15.977 -0.2754 -0.3402 -0.4309
16024TIP3    H169487   5.318   0.637  16.066  0.1940 -0.1692 -0.4042
16024TIP3    H269488   5.255   0.628  15.928  0.1033  0.9846 -0.4488
16025TIP3   OH269489   5.712   0.380   1.161  0.5590  0.4263  0.0997
16025TIP3    H169490   5.706   0.475   1.168  0.9361  0.4497  0.1723
16025TIP3    H269491   5.798   0.365   1.120 -0.0487  0.1591 -1.1090
16026TIP3   OH269492   4.262   3.519   5.596 -0.6274  0.1683 -0.3674
16026TIP3    H169493   4.197   3.561   5.539  1.1141  1.6398 -1.3653
16026TIP3    H269494   4.254   3.564   5.680 -2.1190 -0.9361  0.1313
16027TIP3   OH269495   0.281   3.328   2.868  0.0907 -0.1112 -0.7255
16027TIP3    H169496   0.328   3.268   2.926 -1.4481 -1.0421 -0.3815
16027TIP3    H269497   0.335   3.332   2.789  1.2323 -0.3621  0.0149
16028TIP3   OH269498   2.839   0.030  13.357 -0.0009 -0.4103  0.5405
16028TIP3    H169499   2.926   0.020  13.396 -0.4966  0.2528  1.8885
16028TIP3    H269500   2.802  -0.058  13.358  0.2250 -0.5022  1.0256
16029TIP3   OH269501   3.768   0.800  11.697 -0.6309  0.1292  0.0886
16029TIP3    H169502   3.715   0.853  11.756 -0.7954  0.6800 -0.5328
16029TIP3    H269503   3.733   0.819  11.610 -1.5753 -2.0277 -0.0673
16030TIP3   OH269504   2.015   5.119  11.422 -0.1980 -0.1134  0.5186
16030TIP3    H169505   1.962   5.151  11.350  0.1948  0.3217  0.4168
16030TIP3    H269506   2.088   5.182  11.428 -0.2183 -0.1514  1.2747
16031TIP3   OH269507   4.836   2.094   0.930 -0.2165  0.1545  0.1387
16031TIP3    H169508   4.779   2.109   1.006 -2.3735 -0.6585 -1.2334
16031TIP3    H269509   4.895   2.170   0.929 -1.4206  1.1679  1.5136
16032TIP3   OH269510   3.499   4.249   1.976 -0.1137 -0.1792 -0.0062
16032TIP3    H169511   3.489   4.168   2.024  0.6123 -0.5630 -0.4825
16032TIP3    H269512   3.439   4.241   1.902  1.4511 -1.2316 -1.2460
16033TIP3   OH269513   2.755   3.881  17.086  0.0473 -0.3829 -0.2807
16033TIP3    H169514   2.759   3.876  16.991  0.3604  1.3965 -0.4048
16033TIP3    H269515   2.675   3.929  17.104 -0.6958 -1.8309  0.4418
16034TIP3   OH269516   4.067   5.404  11.087  0.2001  0.2070  0.2159
16034TIP3    H169517   4.152   5.448  11.090 -0.3399  1.2218  1.6656
16034TIP3    H269518   4.022   5.433  11.166 -1.4266 -0.4697 -0.4141
16035TIP3   OH269519   2.693   4.492   3.386  0.1663 -0.5179 -0.0632
16035TIP3    H169520   2.662   4.552   3.454  1.2820 -0.6430  0.5807
16035TIP3    H269521   2.787   4.507   3.382  0.0134  0.1971 -2.3005
16036TIP3   OH269522   2.484   6.642   5.936  0.1343  0.2955  0.4691
16036TIP3    H169523   2.510   6.563   5.983  0.9950  0.0561 -0.3643
16036TIP3    H269524   2.567   6.683   5.910 -0.3082  0.6762 -0.3986
16037TIP3   OH269525   1.419   0.463   2.930  0.0086  0.0739 -0.0494
16037TIP3    H169526   1.421   0.413   3.011 -0.4105 -0.1115 -0.1493
16037TIP3    H269527   1.465   0.408   2.867  0.0498  0.0742 -0.0201
16038TIP3   OH269528   4.402   6.476  13.428  0.4732 -0.6327 -0.1461
16038TIP3    H169529   4.318   6.481  13.382 -0.9149  1.5027  2.3113
16038TIP3    H269530   4.385   6.421  13.505  1.7084 -1.2030 -0.2480
16039TIP3   OH269531   5.057   2.671  12.861  0.3113  0.6990  0.2631
16039TIP3    H169532   5.059   2.576  12.850  2.2407  0.7340 -0.0285
16039TIP3    H269533   5.087   2.686  12.950  0.1141  1.0463  0.2732
16040TIP3   OH269534   4.158   4.484  15.309  0.1479 -0.3414  0.3000
16040TIP3    H169535   4.074   4.439  15.313 -0.9122  1.5757  0.9454
16040TIP3    H269536   4.201   4.463  15.392 -1.5105  1.8657  1.8367
16041TIP3   OH269537   0.167   2.277   0.722  1.0724  0.6242  0.5430
16041TIP3    H169538   0.190   2.240   0.637  2.7469  1.5081  0.5680
16041TIP3    H269539   0.252   2.298   0.763  0.2605  1.6126  1.7953
16042TIP3   OH269540   6.328   4.379   4.448  0.0816  0.2753  0.1753
16042TIP3    H169541   6.315   4.473   4.457 -0.2026  0.3350 -0.7669
16042TIP3    H269542   6.340   4.365   4.354 -1.4491 -0.8208  0.1147
16043TIP3   OH269543   2.467   0.684   3.375  0.2324 -0.3509  0.7717
16043TIP3    H169544   2.444   0.663   3.284 -1.1352  0.9248  0.7812
16043TIP3    H269545   2.429   0.612   3.426 -0.3157 -0.2995  0.4480
16044TIP3   OH269546   3.043   1.629   6.041  0.4988  0.1445  0.0494
16044TIP3    H169547   2.990   1.678   6.104  2.1829  1.6493  0.3658
16044TIP3    H269548   3.119   1.599   6.091  1.0277 -0.0949 -0.8707
16045TIP3   OH269549   0.850   5.999  10.734 -0.0387 -0.0072 -0.0062
16045TIP3    H169550   0.939   5.997  10.770  0.2301 -3.4387 -0.5470
16045TIP3    H269551   0.857   5.956  10.649 -2.2679 -0.6106  0.0498
16046TIP3   OH269552   3.176   4.053   0.630  0.1744 -0.0363  0.0045
16046TIP3    H169553   3.251   4.113   0.625  0.4848 -0.3043  1.1650
16046TIP3    H269554   3.100   4.107   0.612  0.5911  0.3415 -0.6918
16047TIP3   OH269555   6.497   1.491   5.319  0.4793  0.0417 -0.3958
16047TIP3    H169556   6.443   1.569   5.306 -1.9777 -1.4064  0.5308
16047TIP3    H269557   6.505   1.483   5.414 -1.6265 -2.2427 -0.3211
16048TIP3   OH269558   2.868   3.586  11.449 -0.0119 -0.1332 -0.1529
16048TIP3    H169559   2.883   3.635  11.530 -0.1657  0.5286 -0.5185
16048TIP3    H269560   2.842   3.498  11.478  0.9965 -0.2336  0.5070
16049TIP3   OH269561   1.751   2.470  15.904  0.1812  0.2286  0.1559
16049TIP3    H169562   1.688   2.506  15.965  0.2286 -0.6356  0.7393
16049TIP3    H269563   1.721   2.499  15.818 -0.8570  0.0447  0.4469
16050TIP3   OH269564   6.594   5.918   5.021  0.2021 -0.0771 -0.1248
16050TIP3    H169565   6.646   5.873   5.088 -1.1744 -3.1506 -0.9833
16050TIP3    H269566   6.521   5.859   5.002  0.6013  0.4861 -4.4698
16051TIP3   OH269567   2.585   4.744   4.401 -0.3193  0.5815  0.2255
16051TIP3    H169568   2.512   4.799   4.374  0.5866  1.7707  0.1140
16051TIP3    H269569   2.550   4.655   4.400 -1.5516  1.0530 -0.5243
16052TIP3   OH269570   1.894   0.122   1.431 -0.5340 -0.2158 -0.0962
16052TIP3    H169571   1.922   0.107   1.522 -1.5733  1.1135  0.4921
16052TIP3    H269572   1.973   0.108   1.379  0.0955 -0.9600  1.0216
16053TIP3   OH269573   0.007   0.198  14.707  0.5094 -0.1027 -0.9022
16053TIP3    H169574  -0.032   0.235  14.786  1.4034 -1.2927  0.1462
16053TIP3    H269575   0.085   0.251  14.690  0.8186 -0.4047 -0.4402
16054TIP3   OH269576   0.622   3.457  12.068 -0.2233 -0.7676 -0.0243
16054TIP3    H169577   0.595   3.369  12.095  2.0762 -0.8670  2.4499
16054TIP3    H269578   0.562   3.515  12.114  1.6983 -1.0395  3.1469
16055TIP3   OH269579   3.612   4.883  15.314 -0.3538  0.2369  0.2144
16055TIP3    H169580   3.703   4.913  15.312  0.1042 -1.0966 -0.7926
16055TIP3    H269581   3.608   4.821  15.387 -0.4088  0.1818  0.1655
16056TIP3   OH269582   6.762   3.491   5.847  0.1882 -0.0588  0.2204
16056TIP3    H169583   6.772   3.455   5.935 -0.8505 -0.0150  0.3696
16056TIP3    H269584   6.668   3.489   5.830  0.4188 -0.6532 -1.1402
16057TIP3   OH269585   3.208   4.519  10.626  0.1023 -0.5416 -0.0206
16057TIP3    H169586   3.296   4.553  10.639  0.1551  0.1519 -1.7918
16057TIP3    H269587   3.216   4.424  10.640  1.0115 -0.4195  0.3449
16058TIP3   OH269588   5.815   3.511   1.639  0.2724 -0.1897  0.7697
16058TIP3    H169589   5.905   3.509   1.671  0.0208  1.5361  1.6798
16058TIP3    H269590   5.763   3.480   1.713  0.0182 -0.1601  0.6038
16059TIP3   OH269591   3.609   4.627   5.210 -0.5022 -0.1478  0.5156
16059TIP3    H169592   3.607   4.615   5.305  1.6316 -0.0926  0.6264
16059TIP3    H269593   3.631   4.540   5.176 -0.5422 -0.0091  0.1359
16060TIP3   OH269594   5.040   2.780  14.207  0.2886 -0.0479  0.1608
16060TIP3    H169595   5.044   2.870  14.241 -0.6058 -0.7463  2.3014
16060TIP3    H269596   4.947   2.756  14.214  0.6431 -1.4158  0.4594
16061TIP3   OH269597   5.358   2.878   2.206 -0.7154  0.2509 -0.0407
16061TIP3    H169598   5.310   2.795   2.204  0.2796 -0.3317 -1.0082
16061TIP3    H269599   5.372   2.895   2.300  0.2051 -1.3930  0.1671
16062TIP3   OH269600   4.826   0.903  16.602  0.1937 -0.2618 -0.0233
16062TIP3    H169601   4.912   0.911  16.642 -0.1638 -1.7244  1.1107
16062TIP3    H269602   4.839   0.931  16.511  1.3244  1.8024  0.7034
16063TIP3   OH269603   2.245   4.876  16.603 -0.4919 -0.1928 -0.1696
16063TIP3    H169604   2.318   4.832  16.646  0.2844 -0.2024 -1.4610
16063TIP3    H269605   2.175   4.876  16.669  0.4422 -0.7679  0.8544
16064TIP3   OH269606   6.480   3.703  13.756 -0.1569 -0.0641  0.4675
16064TIP3    H169607   6.522   3.784  13.782  0.4676 -0.2752  0.1321
16064TIP3    H269608   6.545   3.635  13.771 -0.7480 -0.5361  0.9432
16065TIP3   OH269609   4.624   0.650   3.918  0.3404 -0.2415 -0.0112
16065TIP3    H169610   4.689   0.590   3.953 -0.2735 -1.3913 -0.7935
16065TIP3    H269611   4.636   0.731   3.968  1.3192 -0.9406  0.9082
16066TIP3   OH269612   3.409   2.645   2.897 -0.4382 -0.0375 -0.5517
16066TIP3    H169613   3.452   2.711   2.843  0.5436 -2.4571 -2.8864
16066TIP3    H269614   3.365   2.587   2.835  0.4343 -2.7559  1.1854
16067TIP3   OH269615   6.134   0.375  11.726  0.2213  0.8957 -0.6623
16067TIP3    H169616   6.199   0.445  11.726  0.0343  1.0883  0.3906
16067TIP3    H269617   6.059   0.412  11.679  0.2043  1.3243 -0.3023
16068TIP3   OH269618   2.556   5.935   1.895  0.8935 -0.3196  0.5864
16068TIP3    H169619   2.651   5.918   1.896  1.2413  1.0040 -1.6688
16068TIP3    H269620   2.517   5.849   1.883  1.7628 -0.9304  1.8739
16069TIP3   OH269621   3.256   3.651  17.059  0.5614  0.1675  0.2380
16069TIP3    H169622   3.235   3.743  17.071  2.1052  0.5410  0.3592
16069TIP3    H269623   3.312   3.649  16.981 -2.1619 -1.1322 -1.8413
16070TIP3   OH269624   3.009   5.446   3.361 -0.6933 -0.3956 -0.1568
16070TIP3    H169625   2.919   5.457   3.392 -0.1714  1.0187  0.9482
16070TIP3    H269626   3.027   5.353   3.376 -2.0181 -0.7413 -0.5581
16071TIP3   OH269627   2.076   5.979   2.762  0.3310 -0.1352  0.4901
16071TIP3    H169628   2.028   6.043   2.815  0.6755 -0.9992  1.8850
16071TIP3    H269629   2.022   5.969   2.683 -0.0796  1.3415  0.5424
16072TIP3   OH269630   4.228   2.552  12.667  0.8753 -0.0631 -0.3436
16072TIP3    H169631   4.281   2.625  12.698  3.7112 -2.2060  0.3245
16072TIP3    H269632   4.207   2.502  12.746  0.8490 -1.0957 -0.9736
16073TIP3   OH269633   4.393   2.024  12.497 -0.3274  0.1547 -0.1632
16073TIP3    H169634   4.456   2.077  12.449 -0.4192 -0.1652 -0.6433
16073TIP3    H269635   4.347   2.086  12.554  0.8573  0.3065  0.6805
16074TIP3   OH269636   0.869   2.756   3.198 -1.0216  0.3109  0.7562
16074TIP3    H169637   0.900   2.703   3.125 -0.0029  0.9799  0.6811
16074TIP3    H269638   0.774   2.759   3.188 -0.7976  1.9694 -1.6619
16075TIP3   OH269639   2.474   5.727   5.022  0.1575  0.1660 -0.5716
16075TIP3    H169640   2.388   5.692   5.045 -1.2028  3.2736 -0.3667
16075TIP3    H269641   2.525   5.721   5.103  0.1512 -1.5722 -0.6593
16076TIP3   OH269642   2.817   4.010   1.172  0.2460 -0.3834 -0.4858
16076TIP3    H169643   2.734   4.057   1.180 -0.0422 -1.0614  0.6794
16076TIP3    H269644   2.795   3.930   1.124  0.3559 -0.2898 -0.6976
16077TIP3   OH269645   4.544   0.512  17.016  0.0492  0.3757  1.1685
16077TIP3    H169646   4.537   0.416  17.024 -2.8509  0.5063  1.3081
16077TIP3    H269647   4.585   0.540  17.098  0.1717 -0.6950  1.4906
16078TIP3   OH269648   6.432   0.357  12.062  0.0501  0.7730  0.2306
16078TIP3    H169649   6.375   0.281  12.059 -0.8837  1.3427  1.9574
16078TIP3    H269650   6.397   0.411  12.133  2.7305  1.1480  1.3976
16079TIP3   OH269651   6.229   4.295  15.026 -0.1871 -0.0874  0.4354
16079TIP3    H169652   6.322   4.304  15.003 -0.3629  1.0479  0.0906
16079TIP3    H269653   6.184   4.353  14.964 -1.1023 -0.4461  0.7533
16080TIP3   OH269654   1.125   4.606   4.501  0.2110  0.1005 -0.2326
16080TIP3    H169655   1.161   4.519   4.487  0.7033  0.2070  0.3417
16080TIP3    H269656   1.151   4.629   4.590 -1.6715 -0.0166  0.4065
16081TIP3   OH269657   2.804   4.021   3.694  0.0846  0.3141 -0.1576
16081TIP3    H169658   2.814   4.100   3.748 -0.8323 -0.5797  1.4017
16081TIP3    H269659   2.884   3.971   3.710  1.6426  1.7883 -2.7730
16082TIP3   OH269660   2.662   0.892   5.316 -0.5289 -0.3086  0.3465
16082TIP3    H169661   2.662   0.800   5.343 -1.2473  0.1704  2.1953
16082TIP3    H269662   2.725   0.934   5.375 -0.9092  0.5316  0.1711
16083TIP3   OH269663   1.221   2.108  12.668 -0.2447  0.4138  0.1256
16083TIP3    H169664   1.193   2.020  12.695  0.8881 -0.3365 -0.9954
16083TIP3    H269665   1.181   2.120  12.581  1.5968 -0.0730 -0.8465
16084TIP3   OH269666   0.590   5.035   2.692 -0.3239 -0.0170 -0.3231
16084TIP3    H169667   0.624   5.021   2.781  0.0424  0.9609 -0.2924
16084TIP3    H269668   0.651   5.098   2.653  0.4448 -1.6116 -1.8366
16085TIP3   OH269669   4.390   1.843   2.045 -0.5074  0.8936 -0.0099
16085TIP3    H169670   4.317   1.861   2.105 -0.3158  2.4892 -0.2228
16085TIP3    H269671   4.466   1.835   2.103 -0.8303 -0.8585  0.2207
16086TIP3   OH269672   2.739   5.038   2.031  0.0443 -0.3091  0.0173
16086TIP3    H169673   2.653   4.996   2.025 -0.0569  0.0627 -1.3768
16086TIP3    H269674   2.791   4.998   1.962  1.4164 -1.4184  1.6221
16087TIP3   OH269675   6.747   5.739   2.048 -0.1540  0.4501 -0.6866
16087TIP3    H169676   6.801   5.662   2.067 -1.4606 -0.7746 -1.7101
16087TIP3    H269677   6.792   5.811   2.092 -0.3796 -1.3239  2.8761
16088TIP3   OH269678   5.924   4.775  12.649 -0.2730  0.2585  0.0892
16088TIP3    H169679   5.914   4.860  12.607 -0.4165 -0.3105 -1.0446
16088TIP3    H269680   5.948   4.796  12.740 -0.2010  1.4978 -0.2046
16089TIP3   OH269681   2.180   6.112   1.258  0.0812  0.4988  0.2814
16089TIP3    H169682   2.122   6.097   1.333 -1.6884  1.0036 -0.9033
16089TIP3    H269683   2.180   6.030   1.210  2.3952 -0.3095  1.5269
16090TIP3   OH269684   6.560   6.486   2.879 -0.5330  0.2431  0.0461
16090TIP3    H169685   6.634   6.459   2.824 -1.0640 -0.4383 -0.3399
16090TIP3    H269686   6.489   6.427   2.855 -1.0202  0.4767  0.8771
16091TIP3   OH269687   5.802   3.262  12.172  0.0104 -0.4534 -0.7734
16091TIP3    H169688   5.849   3.222  12.246 -0.4344  1.4662  0.6242
16091TIP3    H269689   5.721   3.294  12.210 -0.4545  0.1477 -2.2293
16092TIP3   OH269690   0.059   4.314   5.321  0.3817  0.7111  0.4265
16092TIP3    H169691   0.017   4.368   5.388 -2.7333  0.0083 -0.8297
16092TIP3    H269692   0.120   4.259   5.370  0.5893  2.4123  2.2194
16093TIP3   OH269693   5.698   1.724   5.535 -0.1327 -0.0122  0.0411
16093TIP3    H169694   5.620   1.708   5.588 -0.5585 -0.2709 -0.6463
16093TIP3    H269695   5.770   1.686   5.586 -1.0179 -4.0081 -1.3257
16094TIP3   OH269696   0.501   6.385   2.499  0.5903 -0.1089  0.4207
16094TIP3    H169697   0.562   6.313   2.517 -0.6866 -1.4306 -0.3553
16094TIP3    H269698   0.498   6.435   2.581  1.4615 -0.9444  0.9847
16095TIP3   OH269699   2.878   4.704  16.748  0.2192  0.7127  0.0925
16095TIP3    H169700   2.919   4.652  16.678  0.7618  0.2998  0.7030
16095TIP3    H269701   2.834   4.776  16.702  1.5866  1.1426 -0.6133
16096TIP3   OH269702   0.653   5.705  15.195  0.8151 -0.1986 -0.6954
16096TIP3    H169703   0.704   5.675  15.270  0.8570 -0.8947 -1.0019
16096TIP3    H269704   0.563   5.710  15.226  1.0467  1.0504 -0.1460
16097TIP3   OH269705   0.805   2.513  11.046 -0.5377 -0.3534 -0.1855
16097TIP3    H169706   0.785   2.602  11.076  0.1471 -0.7816  1.6184
16097TIP3    H269707   0.858   2.526  10.967  0.1293  0.8573  0.4365
16098TIP3   OH269708   4.645   1.492  11.698 -0.0749  0.0815 -0.3060
16098TIP3    H169709   4.586   1.426  11.661  0.7627  0.5923 -2.7336
16098TIP3    H269710   4.733   1.463  11.673  0.6057  0.2519  1.7351
16099TIP3   OH269711   3.480   0.179  12.588 -0.0255 -0.5962  0.1387
16099TIP3    H169712   3.534   0.176  12.509 -0.9267 -0.7359 -0.4835
16099TIP3    H269713   3.419   0.106  12.578 -2.4972  1.4330 -0.7791
16100TIP3   OH269714   5.208   1.372   0.014  0.2727 -0.0138  0.2406
16100TIP3    H169715   5.260   1.380   0.094 -0.1915 -0.2752  0.5690
16100TIP3    H269716   5.262   1.415  -0.053  1.2543 -0.9090  0.4151
16101TIP3   OH269717   0.852   4.757   1.478 -0.0936 -0.4567  0.0414
16101TIP3    H169718   0.781   4.785   1.420  0.5443 -0.9193 -1.0017
16101TIP3    H269719   0.846   4.661   1.477 -0.0280 -0.4697  0.6935
16102TIP3   OH269720   2.385   4.092   3.231 -0.2895  0.2609 -0.4571
16102TIP3    H169721   2.334   4.036   3.174 -0.9222  0.0957  0.2484
16102TIP3    H269722   2.344   4.178   3.223 -0.2619  0.2794 -0.4019
16103TIP3   OH269723   3.504   4.714   3.044  0.1450  0.0864  0.4060
16103TIP3    H169724   3.434   4.648   3.040 -0.5618  0.7009  1.7517
16103TIP3    H269725   3.547   4.697   3.128 -0.3324  1.5916  0.9755
16104TIP3   OH269726   4.766   1.065  16.274  0.1764 -0.5736 -0.6422
16104TIP3    H169727   4.818   1.036  16.200 -1.1288  1.2387 -2.3846
16104TIP3    H269728   4.827   1.115  16.329  0.8703 -0.8257 -1.1797
16105TIP3   OH269729   0.586   1.484   3.750  0.5783  0.4434 -0.1116
16105TIP3    H169730   0.658   1.529   3.705 -0.1559 -0.2418 -2.0833
16105TIP3    H269731   0.542   1.434   3.681 -0.8714 -0.3682  1.3267
16106TIP3   OH269732   6.327   4.387   2.165 -0.9611  0.6579  0.3301
16106TIP3    H169733   6.353   4.446   2.236 -0.6394  1.2529 -0.2684
16106TIP3    H269734   6.238   4.415   2.141 -0.1070  2.1865 -1.2285
16107TIP3   OH269735   5.886   5.398   4.756 -0.4677 -0.4267 -0.5438
16107TIP3    H169736   5.946   5.361   4.820 -0.4334 -2.1752 -1.5437
16107TIP3    H269737   5.805   5.349   4.767 -1.0010  0.3890 -0.7239
16108TIP3   OH269738   5.560   1.054  13.778  0.7368  0.0551  0.2116
16108TIP3    H169739   5.599   1.076  13.862  2.4697 -1.5134 -0.1382
16108TIP3    H269740   5.475   1.015  13.801  1.0709 -0.1181  1.1985
16109TIP3   OH269741   3.110   3.576  15.999 -0.4915  0.2196  0.2148
16109TIP3    H169742   3.079   3.663  16.027 -0.7157  0.3679 -0.4876
16109TIP3    H269743   3.149   3.591  15.913  0.3432 -0.2077  0.5116
16110TIP3   OH269744   0.936   6.444   4.719  0.2814 -0.1451  0.3787
16110TIP3    H169745   0.969   6.354   4.720 -1.5829 -0.8812 -0.1775
16110TIP3    H269746   0.909   6.460   4.810  0.0280 -0.3729  0.3436
16111TIP3   OH269747   6.152   4.183   2.727 -0.0733 -0.0006  0.4112
16111TIP3    H169748   6.136   4.173   2.820 -1.3252  0.6984  0.2903
16111TIP3    H269749   6.123   4.100   2.688  0.8658 -0.4623  0.6800
16112TIP3   OH269750   3.592   4.564  11.393  0.1058  0.1320  0.5974
16112TIP3    H169751   3.668   4.622  11.388  0.3479 -0.2851 -1.3898
16112TIP3    H269752   3.626   4.486  11.437  0.4283  0.5247  1.0633
16113TIP3   OH269753   1.914   0.177   4.534 -0.2513  0.0135 -0.2844
16113TIP3    H169754   1.902   0.126   4.615  0.3677 -1.9833 -1.3686
16113TIP3    H269755   1.838   0.236   4.532 -1.0476 -0.8876  1.0393
16114TIP3   OH269756   5.072   4.139   2.839 -0.1290  0.3161 -0.2495
16114TIP3    H169757   5.131   4.214   2.845  0.0264  0.1386  0.4973
16114TIP3    H269758   5.116   4.069   2.887  0.1433 -0.5488 -1.6993
16115TIP3   OH269759   6.283   2.515   3.345 -0.1329 -0.2137 -0.4415
16115TIP3    H169760   6.243   2.587   3.296 -0.1902 -0.5779 -0.9293
16115TIP3    H269761   6.313   2.453   3.278  2.1282  0.4727 -0.1666
16116TIP3   OH269762   2.234   4.010   0.696  0.3155 -0.2467  0.0777
16116TIP3    H169763   2.313   4.022   0.644  0.9600 -1.1480  0.8126
16116TIP3    H269764   2.194   3.930   0.661 -0.0970  0.0176 -0.0644
16117TIP3   OH269765   1.948   5.346  15.263 -0.0556  0.0261 -0.4127
16117TIP3    H169766   1.983   5.395  15.189  0.8096  0.0976  0.0397
16117TIP3    H269767   1.873   5.298  15.226 -0.1297  0.6861 -1.1415
16118TIP3   OH269768   6.060   3.500  11.877  0.0120 -0.2773  0.3215
16118TIP3    H169769   6.023   3.588  11.871  0.8550  0.1548  1.1217
16118TIP3    H269770   5.985   3.443  11.894 -0.2315  0.6873  2.8690
16119TIP3   OH269771   5.647   6.249   4.765  0.0033  0.0630  0.5613
16119TIP3    H169772   5.738   6.264   4.740 -0.3087 -1.9596 -2.2438
16119TIP3    H269773   5.606   6.336   4.760  1.2898  0.6504 -0.4374
16120TIP3   OH269774   0.468   5.454   1.921 -0.1188  0.2920 -0.2062
16120TIP3    H169775   0.518   5.388   1.969  0.5575  1.3280  0.5796
16120TIP3    H269776   0.462   5.421   1.832 -0.6846 -1.2955  0.3894
16121TIP3   OH269777   0.244   2.398  16.300  0.0248  0.3164 -0.1147
16121TIP3    H169778   0.257   2.327  16.363 -1.7254 -0.8935 -1.0433
16121TIP3    H269779   0.197   2.465  16.349 -0.7632 -0.3478  0.0668
16122TIP3   OH269780   1.635   3.131  13.182 -0.0601 -0.6809  0.1919
16122TIP3    H169781   1.623   3.114  13.275  0.3566 -1.5246  0.0958
16122TIP3    H269782   1.596   3.056  13.138 -0.4861 -0.1682 -0.3328
16123TIP3   OH269783   3.905   6.116   4.107 -0.2819  0.3068  0.0540
16123TIP3    H169784   3.914   6.110   4.012  0.4387 -0.6656  0.1687
16123TIP3    H269785   3.985   6.160   4.136 -0.3445  0.2979  0.2391
16124TIP3   OH269786   1.117   1.620   2.844  0.6345 -0.2290  0.6559
16124TIP3    H169787   1.191   1.603   2.786 -0.6337 -2.4227 -0.4362
16124TIP3    H269788   1.117   1.715   2.855  0.8159  0.3765 -3.1729
16125TIP3   OH269789   6.248   1.775   4.040 -0.3283 -0.0274 -0.3549
16125TIP3    H169790   6.233   1.813   3.954 -0.3879 -0.3486 -0.4887
16125TIP3    H269791   6.329   1.816   4.070 -0.3321  0.1213 -0.5453
16126TIP3   OH269792   2.763   1.131  11.844 -0.5494 -0.5394 -0.3988
16126TIP3    H169793   2.828   1.068  11.876 -1.0086 -0.1143  1.4397
16126TIP3    H269794   2.679   1.093  11.868 -0.8621  0.3592 -0.0567
16127TIP3   OH269795   1.039   4.590  15.242  0.5011  0.1776  0.4431
16127TIP3    H169796   1.056   4.558  15.330  0.3658  0.8126  0.7104
16127TIP3    H269797   0.947   4.618  15.244  0.6217  0.6058  0.2444
16128TIP3   OH269798   0.819   6.580   5.307  0.4100 -0.4820  0.3139
16128TIP3    H169799   0.881   6.582   5.234 -0.1279  0.6529 -0.1366
16128TIP3    H269800   0.748   6.523   5.276  0.5856 -0.7000  0.3042
16129TIP3   OH269801   3.641   1.454   4.247 -0.0941 -0.3073 -0.4399
16129TIP3    H169802   3.554   1.486   4.273 -0.3315 -0.1858 -1.3573
16129TIP3    H269803   3.634   1.359   4.255  0.4108 -0.2149  1.6683
16130TIP3   OH269804   2.263   0.331   2.389 -0.0005  0.1765 -0.1062
16130TIP3    H169805   2.330   0.303   2.327 -0.0745  0.6334 -0.4020
16130TIP3    H269806   2.295   0.304   2.475  1.3973  1.9336 -0.0333
16131TIP3   OH269807   0.649   2.841   0.148 -0.1920  0.0020  0.1567
16131TIP3    H169808   0.660   2.797   0.232  1.1532  0.2640  0.1456
16131TIP3    H269809   0.678   2.931   0.164 -1.4514  0.4976 -0.2059
16132TIP3   OH269810   1.170   6.283   3.818 -0.1678  0.1846  0.1985
16132TIP3    H169811   1.166   6.194   3.853 -1.7983  0.1820  0.0889
16132TIP3    H269812   1.210   6.335   3.888 -0.1683 -0.4411  0.6673
16133TIP3   OH269813   4.590   1.994  13.924 -0.0511 -0.5361  0.1974
16133TIP3    H169814   4.497   1.976  13.938  0.1223 -0.5253  1.5113
16133TIP3    H269815   4.634   1.944  13.993  0.7553  1.2828  1.0640
16134TIP3   OH269816   3.745   6.338   5.396  0.4671  0.1685 -0.4457
16134TIP3    H169817   3.755   6.333   5.301  1.1994 -0.0813 -0.3599
16134TIP3    H269818   3.680   6.271   5.417 -2.7097  2.7749 -1.1800
16135TIP3   OH269819   1.031   3.504  13.182 -0.1848 -0.3994  0.2934
16135TIP3    H169820   1.066   3.454  13.256  1.1835  1.0141  0.6576
16135TIP3    H269821   1.000   3.586  13.221 -0.8531 -0.2520 -0.5126
16136TIP3   OH269822   5.265   1.795   1.818  0.4179  0.5220 -0.3146
16136TIP3    H169823   5.269   1.723   1.881  1.2051 -1.7880 -2.8027
16136TIP3    H269824   5.172   1.806   1.800  0.1180  1.6991  1.6504
16137TIP3   OH269825   4.555   3.391  11.756  0.3829  0.1511 -0.3613
16137TIP3    H169826   4.575   3.425  11.843  4.3226  0.1487 -1.0496
16137TIP3    H269827   4.465   3.360  11.761  0.8742 -1.1984  4.1615
16138TIP3   OH269828   2.242   1.614  12.102 -0.5104 -0.0085  0.2344
16138TIP3    H169829   2.220   1.671  12.177 -2.9215 -1.1808  0.5217
16138TIP3    H269830   2.217   1.665  12.025  1.4169  0.9655  0.2052
16139TIP3   OH269831   5.386   5.965  17.188 -0.4484  0.0046  0.2359
16139TIP3    H169832   5.475   5.942  17.163  0.2391  0.7686  1.7934
16139TIP3    H269833   5.353   6.018  17.116  0.2349 -0.5429 -0.4982
16140TIP3   OH269834   1.958   3.435  15.745 -0.3028  0.2021 -0.1782
16140TIP3    H169835   2.054   3.429  15.750 -0.3721 -0.5596  0.3727
16140TIP3    H269836   1.937   3.513  15.797  0.1211  1.4282 -1.7494
16141TIP3   OH269837   0.138   5.526  16.273 -0.6177  0.6276  0.2419
16141TIP3    H169838   0.083   5.588  16.225  1.4484  1.9938 -0.4855
16141TIP3    H269839   0.213   5.578  16.302  0.6846 -1.3164  0.5316
16142TIP3   OH269840   2.281   4.318   5.375 -0.0205 -0.0721  0.5307
16142TIP3    H169841   2.292   4.402   5.418 -0.8733  0.0890  0.4480
16142TIP3    H269842   2.328   4.327   5.292  0.7079 -0.0181  0.9375
16143TIP3   OH269843   0.750   3.086  12.482 -0.3652 -0.6013  0.2727
16143TIP3    H169844   0.742   3.010  12.424  0.4565 -1.3057  1.0581
16143TIP3    H269845   0.844   3.098  12.493 -0.4731  0.7863 -0.1365
16144TIP3   OH269846   2.802   5.757   2.017  0.0307 -0.1453 -0.2726
16144TIP3    H169847   2.879   5.720   2.059 -0.4189 -0.6931  0.0768
16144TIP3    H269848   2.787   5.701   1.941  0.7673  0.7678 -1.1248
16145TIP3   OH269849   1.063   1.412   4.983  0.3701 -0.2007  0.3306
16145TIP3    H169850   0.976   1.412   5.022 -0.7506 -0.2898 -1.9974
16145TIP3    H269851   1.120   1.374   5.050 -1.5272 -0.9655  1.5728
16146TIP3   OH269852   3.578   0.293   0.923  0.5226  0.4468  0.3016
16146TIP3    H169853   3.562   0.382   0.892 -0.9805  0.4773  1.0565
16146TIP3    H269854   3.672   0.279   0.911  0.5395  1.6120 -1.1405
16147TIP3   OH269855   3.662   0.477   3.792  0.4666 -0.4670 -0.2123
16147TIP3    H169856   3.698   0.389   3.783  0.3919 -0.4730 -0.4421
16147TIP3    H269857   3.685   0.522   3.711  2.1302  0.3195  0.6608
16148TIP3   OH269858   4.796   2.034   5.796 -0.1550  0.2121 -0.4646
16148TIP3    H169859   4.863   2.087   5.839 -2.6824  3.1184  0.2769
16148TIP3    H269860   4.782   1.960   5.856 -0.5886  1.9144  1.6909
16149TIP3   OH269861   1.078   2.641  15.826  0.1072  0.1125 -0.0364
16149TIP3    H169862   1.000   2.691  15.847  0.4958  0.4908  0.5320
16149TIP3    H269863   1.061   2.553  15.860 -1.6361 -0.9588 -3.2516
16150TIP3   OH269864   4.208   1.393  14.532  0.3217  0.0416 -0.3399
16150TIP3    H169865   4.238   1.424  14.617  1.4249  1.6902 -1.2836
16150TIP3    H269866   4.233   1.300  14.530  1.8670  0.4120  0.4665
16151TIP3   OH269867   4.482   4.167   2.802  0.0989  0.1343 -0.0567
16151TIP3    H169868   4.519   4.114   2.872 -1.4998 -0.6686  0.2421
16151TIP3    H269869   4.516   4.129   2.721 -1.5547 -1.8860  0.1094
16152TIP3   OH269870   5.308   3.296  16.562 -0.1625  0.1078  1.0753
16152TIP3    H169871   5.360   3.225  16.600  1.8050  1.8211  1.7808
16152TIP3    H269872   5.227   3.296  16.613  0.6926 -0.3085  2.5105
16153TIP3   OH269873   4.800   3.805   2.442 -0.1060 -0.2250 -0.1156
16153TIP3    H169874   4.721   3.760   2.470 -0.2954  0.2284  0.0894
16153TIP3    H269875   4.770   3.893   2.417  0.1389 -0.4394 -1.2134
16154TIP3   OH269876   5.432   0.956   4.965 -0.0237 -0.1338 -0.0627
16154TIP3    H169877   5.346   0.918   4.984 -0.8247  2.0915  1.0233
16154TIP3    H269878   5.480   0.946   5.047  1.1234 -2.0869 -0.8922
16155TIP3   OH269879   3.590   4.473   0.439 -0.5243 -0.0705  0.7916
16155TIP3    H169880   3.620   4.495   0.528 -1.1965 -1.0776  1.2846
16155TIP3    H269881   3.506   4.517   0.431 -1.0820 -1.0577  1.1532
16156TIP3   OH269882   6.270   1.336   1.573 -0.6527  0.2321  0.1462
16156TIP3    H169883   6.233   1.352   1.486  0.3873  2.7352  0.0642
16156TIP3    H269884   6.351   1.388   1.574  0.0859 -0.8512  2.1361
16157TIP3   OH269885   4.685   6.325   3.413  0.1741  0.2312  0.0907
16157TIP3    H169886   4.759   6.288   3.365 -0.0200 -0.1654  0.0966
16157TIP3    H269887   4.634   6.372   3.347  0.5560  0.7093  0.1289
16158TIP3   OH269888   2.643   2.430  13.622  0.2495 -0.1873  0.4294
16158TIP3    H169889   2.738   2.436  13.632  0.5275 -0.0826 -1.7716
16158TIP3    H269890   2.619   2.513  13.581 -0.4785 -1.0575 -0.9550
16159TIP3   OH269891   4.144   0.167  12.823 -0.3745  0.1447  0.0285
16159TIP3    H169892   4.204   0.225  12.776  1.8572 -1.5128  0.6254
16159TIP3    H269893   4.114   0.106  12.756  2.9583 -2.3406  0.5233
16160TIP3   OH269894   4.826   4.169  15.814 -0.1634 -0.5138 -0.3071
16160TIP3    H169895   4.863   4.104  15.755  1.2580 -0.6459  0.6909
16160TIP3    H269896   4.898   4.194  15.871 -0.7456  1.6946 -0.4346
16161TIP3   OH269897   2.522   0.456   4.881  0.3177 -0.0892  0.3468
16161TIP3    H169898   2.520   0.476   4.787  1.4548 -0.8385  0.1306
16161TIP3    H269899   2.547   0.363   4.885 -0.7600 -0.3601  1.3780
16162TIP3   OH269900   2.131   5.267  15.031  0.3106  0.0094 -0.0262
16162TIP3    H169901   2.198   5.280  14.964  1.0476 -0.2874  0.6247
16162TIP3    H269902   2.170   5.303  15.111 -0.0075 -0.8232  0.5219
16163TIP3   OH269903   6.490   2.896  11.535 -0.5216  0.1839 -0.1778
16163TIP3    H169904   6.493   2.976  11.481  0.1637  0.4426  0.2429
16163TIP3    H269905   6.511   2.926  11.623 -0.7213 -0.3943  0.0675
16164TIP3   OH269906   3.123   0.350  15.255 -0.0517  0.4524  0.3264
16164TIP3    H169907   3.065   0.291  15.207 -2.3807  1.0507  2.1938
16164TIP3    H269908   3.182   0.386  15.189  0.7694 -3.0585 -1.0697
16165TIP3   OH269909   3.638   6.134  15.401  0.3659 -0.0688 -0.0821
16165TIP3    H169910   3.578   6.190  15.451  0.5894 -0.5069  0.6903
16165TIP3    H269911   3.586   6.058  15.376  0.4250 -0.1515  0.0441
16166TIP3   OH269912   0.225   2.639  17.051 -0.5922 -0.2569  0.0133
16166TIP3    H169913   0.286   2.674  16.985  2.2258 -2.3297  1.3060
16166TIP3    H269914   0.171   2.577  17.003  0.1574 -0.3646 -0.7134
16167TIP3   OH269915   1.821   2.906   6.430 -0.2060  0.6058  0.0322
16167TIP3    H169916   1.846   2.972   6.365 -0.9026 -0.2914 -1.2112
16167TIP3    H269917   1.902   2.858   6.449  0.4175  2.1253  1.3582
16168TIP3   OH269918   1.802   1.681  13.743  0.1536 -0.0694 -0.6529
16168TIP3    H169919   1.802   1.638  13.828 -0.6537 -2.3852 -1.7309
16168TIP3    H269920   1.894   1.698  13.725  0.4312 -0.6024  0.2078
16169TIP3   OH269921   5.433   5.466  11.356 -0.1064  0.9184 -0.0712
16169TIP3    H169922   5.477   5.383  11.341 -0.2387  0.8556 -0.1137
16169TIP3    H269923   5.382   5.481  11.277 -0.7824  0.5992  0.2989
16170TIP3   OH269924   2.557   3.749  11.556  0.2147 -0.1918  0.2370
16170TIP3    H169925   2.639   3.713  11.590  0.9334  1.5775  0.4450
16170TIP3    H269926   2.579   3.837  11.526 -1.3321 -0.1412 -0.9284
16171TIP3   OH269927   5.559   3.290   3.060  0.0756 -0.0424  0.2981
16171TIP3    H169928   5.561   3.358   2.993  0.3558 -1.9323 -1.7393
16171TIP3    H269929   5.628   3.229   3.034  0.1315 -0.9061  2.2864
16172TIP3   OH269930   5.139   2.961   6.324  0.5123 -0.2215 -0.4622
16172TIP3    H169931   5.051   2.950   6.287  0.2191  2.4561 -0.8289
16172TIP3    H269932   5.192   2.896   6.279 -0.9738 -0.8354 -1.4294
16173TIP3   OH269933   2.546   6.266   2.301 -0.2793 -0.9587 -0.1167
16173TIP3    H169934   2.529   6.343   2.246  1.6219 -0.9588 -0.7863
16173TIP3    H269935   2.561   6.195   2.239 -0.4389 -1.5140  0.4683
16174TIP3   OH269936   0.588   6.362  11.066  0.0683  0.0403 -0.0289
16174TIP3    H169937   0.644   6.334  11.139 -0.0163 -0.8581 -0.2986
16174TIP3    H269938   0.595   6.291  11.003  0.6874  1.1081 -1.2084
16175TIP3   OH269939   3.963   0.965   2.160  0.2110 -0.3745 -0.0339
16175TIP3    H169940   3.868   0.961   2.171  0.2939 -1.1115  0.5796
16175TIP3    H269941   3.998   0.936   2.245  0.9826  0.0684 -0.1890
16176TIP3   OH269942   0.011   0.959  11.911 -0.1826 -0.6023 -0.4041
16176TIP3    H169943  -0.005   0.985  11.820 -1.5800 -2.2634 -0.6946
16176TIP3    H269944   0.069   0.883  11.904  1.2361  0.3780  0.2383
16177TIP3   OH269945   0.337   6.746   1.503  0.1121 -0.1545  0.0043
16177TIP3    H169946   0.292   6.814   1.452 -1.2039  0.4711  1.8718
16177TIP3    H269947   0.266   6.697   1.544  1.1073 -0.0750  1.9149
16178TIP3   OH269948   5.611   3.734   5.620  0.6930 -0.2632  0.5653
16178TIP3    H169949   5.590   3.775   5.536  2.0986 -1.9301 -0.6779
16178TIP3    H269950   5.535   3.681   5.641  0.3236  0.1804  0.3555
16179TIP3   OH269951   1.775   2.133   0.353 -0.1279 -0.0085  0.6719
16179TIP3    H169952   1.757   2.126   0.259 -0.8924 -0.1916  0.8280
16179TIP3    H269953   1.805   2.046   0.379 -0.2862 -0.0628  0.6733
16180TIP3   OH269954   5.923   2.762   5.626 -0.2859 -0.4925 -0.4022
16180TIP3    H169955   6.011   2.739   5.656  0.0325  1.5213  0.4178
16180TIP3    H269956   5.936   2.839   5.570 -1.4997 -0.2502 -0.3793
16181TIP3   OH269957   5.906   4.229   4.730 -0.0730 -0.3566 -0.0946
16181TIP3    H169958   5.918   4.304   4.788  1.7783 -0.4773 -0.2629
16181TIP3    H269959   5.991   4.218   4.687 -0.6806 -1.7784 -1.0107
16182TIP3   OH269960   5.172   5.645  16.508  0.2921  0.2680  0.2643
16182TIP3    H169961   5.104   5.701  16.470 -1.1787  0.1714  2.5093
16182TIP3    H269962   5.173   5.568  16.451 -3.3913 -0.8697  1.4050
16183TIP3   OH269963   3.404   0.618   0.660  0.1491  0.1817 -0.0365
16183TIP3    H169964   3.319   0.642   0.696 -0.7021 -1.9961 -0.3818
16183TIP3    H269965   3.387   0.602   0.567  0.9366 -0.2208 -0.1261
16184TIP3   OH269966   2.907   5.674  13.734  0.2550 -0.4218  0.2907
16184TIP3    H169967   2.939   5.698  13.647 -2.4693 -0.5790 -0.8718
16184TIP3    H269968   2.952   5.593  13.755  0.3332 -0.8621 -1.4039
16185TIP3   OH269969   1.737   6.410   0.115  0.5855  0.4838 -0.4074
16185TIP3    H169970   1.825   6.441   0.137  0.5053  0.3028  0.1788
16185TIP3    H269971   1.738   6.400   0.020  0.3922  3.0423 -0.7490
16186TIP3   OH269972   4.674   1.251   4.845 -0.4382 -0.2160 -0.5071
16186TIP3    H169973   4.709   1.169   4.810 -2.0729 -1.0014 -0.4010
16186TIP3    H269974   4.697   1.249   4.938 -0.6048 -0.6333 -0.4709
16187TIP3   OH269975   0.731   3.066  12.908  0.1166  0.4977 -0.2723
16187TIP3    H169976   0.726   2.974  12.882 -0.8878  0.5066 -0.1817
16187TIP3    H269977   0.755   3.113  12.828 -2.6655  0.4948 -1.2307
16188TIP3   OH269978   2.871   2.983   5.828  0.3909  0.0551 -0.0286
16188TIP3    H169979   2.886   3.057   5.769  0.2735 -0.2562 -0.4574
16188TIP3    H269980   2.946   2.983   5.887 -0.2237  1.2728  0.7828
16189TIP3   OH269981   4.167   5.344  11.456 -0.4874  0.2855  0.2032
16189TIP3    H169982   4.115   5.415  11.418  0.1381  0.1135 -1.0108
16189TIP3    H269983   4.251   5.385  11.476 -0.6462  0.2513  0.9854
16190TIP3   OH269984   1.911   2.274   2.136 -0.4282 -0.2343 -0.4145
16190TIP3    H169985   1.953   2.223   2.067 -2.4269  0.8192 -2.5587
16190TIP3    H269986   1.823   2.238   2.142 -0.2118 -0.4901  1.8695
16191TIP3   OH269987   5.895   4.842   5.378 -0.2891  0.0794 -0.4141
16191TIP3    H169988   5.811   4.878   5.405 -0.2172  1.0793 -1.4350
16191TIP3    H269989   5.916   4.777   5.445 -1.6130  0.1897  0.1395
16192TIP3   OH269990   3.283   3.450   1.116  0.7154 -0.1327  0.2785
16192TIP3    H169991   3.303   3.478   1.206  0.8715  0.8214 -0.0493
16192TIP3    H269992   3.268   3.355   1.124 -2.9809  0.3944  1.9835
16193TIP3   OH269993   2.297   0.127  15.598 -0.1312  0.0955 -0.8787
16193TIP3    H169994   2.292   0.040  15.558  0.7664 -0.5787  0.4200
16193TIP3    H269995   2.371   0.170  15.555  0.5429 -0.4564 -0.2882
16194TIP3   OH269996   5.894   1.989   6.128  0.2386  0.1980 -0.3790
16194TIP3    H169997   5.892   2.012   6.035 -0.2547 -0.1316 -0.4495
16194TIP3    H269998   5.891   2.073   6.174  3.5115  0.6082 -0.6433
16195TIP3   OH269999   0.901   0.814  11.093  0.1956 -0.4492  0.1676
16195TIP3    H170000   0.915   0.908  11.103  0.5804 -0.6208  1.3877
16195TIP3    H270001   0.810   0.807  11.062 -0.5329  0.2631  1.9974
16196TIP3   OH270002   0.432   2.021  14.512  0.9160 -0.4739 -0.3141
16196TIP3    H170003   0.388   1.998  14.594 -0.2045 -1.7853 -1.2514
16196TIP3    H270004   0.466   2.109  14.527  2.3372 -1.3403  2.1962
16197TIP3   OH270005   4.892   3.992   6.705 -0.0986  0.5704  0.0275
16197TIP3    H170006   4.815   3.938   6.717 -0.2195  0.9710  1.1759
16197TIP3    H270007   4.965   3.930   6.701 -0.4083  0.2332 -0.3890
16198TIP3   OH270008   4.833   0.423   3.004  0.3247 -0.6075  0.8542
16198TIP3    H170009   4.816   0.418   2.910  1.0975  0.3277  0.6407
16198TIP3    H270010   4.883   0.504   3.015  2.7567 -2.0976  1.6679
16199TIP3   OH270011   2.866   3.807   0.799 -0.2036  0.4479 -0.0879
16199TIP3    H170012   2.962   3.805   0.803 -0.1150 -1.3962 -1.5084
16199TIP3    H270013   2.847   3.826   0.707 -1.3087  3.6787  0.6722
16200TIP3   OH270014   5.620   4.837  16.195 -0.0713 -0.0110  0.0803
16200TIP3    H170015   5.598   4.899  16.125 -1.6789  0.5105  0.9945
16200TIP3    H270016   5.710   4.811  16.176 -0.3841  0.2693 -2.0519
16201TIP3   OH270017   0.576   4.469   0.972  0.6478  0.3477  1.0906
16201TIP3    H170018   0.526   4.389   0.988 -0.4909  1.0191  0.9360
16201TIP3    H270019   0.668   4.442   0.982  0.3342 -1.1812  0.1407
16202TIP3   OH270020   1.098   2.890  11.466  0.1657 -0.0005 -0.2812
16202TIP3    H170021   1.113   2.803  11.428 -0.1436 -0.3382  0.3520
16202TIP3    H270022   1.186   2.926  11.477  0.2975 -0.2345 -0.5442
16203TIP3   OH270023   4.631   2.842  12.028  0.4325  0.9171 -0.0684
16203TIP3    H170024   4.692   2.870  11.960 -0.8467  1.7611 -0.9023
16203TIP3    H270025   4.568   2.787  11.983  0.5618  0.0337  0.7915
16204TIP3   OH270026   6.190   4.457  15.731 -1.2440 -0.0582 -0.6283
16204TIP3    H170027   6.257   4.502  15.782 -0.6932 -1.0023 -0.4967
16204TIP3    H270028   6.162   4.521  15.665  0.2520  0.1369 -1.1015
16205TIP3   OH270029   3.956   3.688   2.971 -0.2316 -0.4508 -0.3117
16205TIP3    H170030   3.962   3.657   3.061  0.0961  0.5741  0.0372
16205TIP3    H270031   3.885   3.753   2.973  0.7206  0.6371 -0.4449
16206TIP3   OH270032   3.828   3.405   5.050 -0.0723 -0.0470  0.2538
16206TIP3    H170033   3.916   3.393   5.086  0.8751  2.9605 -0.7194
16206TIP3    H270034   3.787   3.469   5.107 -0.1646  1.4599 -1.4205
16207TIP3   OH270035   5.863   3.125   1.279 -0.1709  0.3866  0.2997
16207TIP3    H170036   5.804   3.200   1.285 -0.4387  0.0842  2.1864
16207TIP3    H270037   5.811   3.051   1.310  0.1150 -0.6097 -1.4495
16208TIP3   OH270038   1.670   2.072   3.853  0.7055 -0.4641 -0.0854
16208TIP3    H170039   1.676   2.015   3.776  1.0750  0.7868 -1.0237
16208TIP3    H270040   1.614   2.145   3.824 -0.2364 -0.6131  1.2668
16209TIP3   OH270041   6.635   4.048   4.140 -0.2869 -0.5898  0.4488
16209TIP3    H170042   6.578   4.070   4.213  0.6650 -1.3813  1.4611
16209TIP3    H270043   6.718   4.023   4.180  0.2077 -1.2112 -0.8896
16210TIP3   OH270044   2.191   4.988  14.816 -0.4270  0.3564  0.9451
16210TIP3    H170045   2.216   5.080  14.815 -1.7392  0.7539  1.7818
16210TIP3    H270046   2.215   4.955  14.730 -0.3684  1.6030  0.4685
16211TIP3   OH270047   5.484   3.456  14.418 -0.3253 -0.4131 -0.3410
16211TIP3    H170048   5.553   3.409  14.465  0.6347  1.4630  0.2329
16211TIP3    H270049   5.504   3.549  14.432 -1.0170  0.2392 -2.9850
16212TIP3   OH270050   1.391   0.571  12.869 -0.0657 -0.0703  0.0909
16212TIP3    H170051   1.361   0.487  12.836  0.7391 -0.7850  1.1132
16212TIP3    H270052   1.425   0.552  12.956  1.8553  0.9741 -0.3842
16213TIP3   OH270053   2.503   5.529  14.237 -0.0653  0.0645 -0.0726
16213TIP3    H170054   2.528   5.448  14.194  1.1083 -0.5242  1.6241
16213TIP3    H270055   2.448   5.502  14.310  0.7152  0.7248  0.7893
16214TIP3   OH270056   3.410   2.480   5.818 -0.1022  0.4559  0.5623
16214TIP3    H170057   3.387   2.492   5.725 -1.8467  1.8424  1.1234
16214TIP3    H270058   3.474   2.549   5.836 -0.0399  0.4197  0.4812
16215TIP3   OH270059   2.980   6.578   3.197 -0.4689  0.3384 -0.4000
16215TIP3    H170060   2.961   6.589   3.104  2.7574  0.9890 -1.0989
16215TIP3    H270061   3.048   6.511   3.200 -0.3203  0.5123  1.4759
16216TIP3   OH270062   6.132   4.664  15.979  0.0075  0.2231  0.7699
16216TIP3    H170063   6.144   4.604  16.053 -0.4446 -1.2891 -0.3398
16216TIP3    H270064   6.215   4.661  15.932 -0.3405 -0.3144  0.1729
16217TIP3   OH270065   3.352   5.443   1.036 -0.2774  0.0347 -0.1698
16217TIP3    H170066   3.397   5.435   1.120 -0.1756 -2.4835 -0.3720
16217TIP3    H270067   3.263   5.469   1.059  0.2867  1.4883  0.5107
16218TIP3   OH270068   5.240   2.273   1.941 -0.8947 -0.2258 -0.5878
16218TIP3    H170069   5.150   2.246   1.958 -1.0027  0.4270 -0.0714
16218TIP3    H270070   5.263   2.231   1.858 -1.2678 -1.3597 -0.1333
16219TIP3   OH270071   0.561   5.716   1.993 -0.6548 -0.2238  0.7190
16219TIP3    H170072   0.535   5.772   1.919 -3.9141  0.5859  2.2647
16219TIP3    H270073   0.527   5.629   1.971  1.1760 -0.8049 -0.0399
16220TIP3   OH270074   6.245   5.754  14.787 -0.4835 -0.1423 -0.4600
16220TIP3    H170075   6.276   5.725  14.701  0.6336 -1.1870  0.2597
16220TIP3    H270076   6.314   5.728  14.847 -0.7217  1.5917  0.6288
16221TIP3   OH270077   2.194   3.485   5.291 -0.2807 -0.0154 -0.9364
16221TIP3    H170078   2.178   3.545   5.363  0.5038 -0.8453 -0.0394
16221TIP3    H270079   2.247   3.536   5.229 -1.1814  0.7822 -1.0763
16222TIP3   OH270080   2.682   0.579  12.762  0.2464 -0.2308  0.2277
16222TIP3    H170081   2.620   0.626  12.705 -0.2602 -0.0372  0.9339
16222TIP3    H270082   2.768   0.600  12.725 -0.1045 -0.6668 -0.8830
16223TIP3   OH270083   2.662   2.927   1.522 -0.4887 -0.0200 -0.4993
16223TIP3    H170084   2.567   2.937   1.525 -0.3600  1.2734  1.7794
16223TIP3    H270085   2.678   2.837   1.551 -1.0254 -0.6131 -1.9813
16224TIP3   OH270086   2.813   2.167  15.308 -0.7684 -0.2398  0.2400
16224TIP3    H170087   2.809   2.187  15.214  1.1726 -0.5420  0.0559
16224TIP3    H270088   2.722   2.171  15.337 -1.2388  1.5919 -1.2899
16225TIP3   OH270089   0.723   0.957  11.563  0.2910  0.1442 -0.3513
16225TIP3    H170090   0.775   0.877  11.568  1.3523  0.7288 -1.3657
16225TIP3    H270091   0.636   0.929  11.536  0.7558 -0.6469 -1.0818
16226TIP3   OH270092   6.036   1.101  14.490  0.3014 -0.1238  0.0352
16226TIP3    H170093   6.119   1.056  14.471  0.8257  0.2334  1.3766
16226TIP3    H270094   6.053   1.150  14.570 -1.0157  0.5085 -0.0472
16227TIP3   OH270095   1.716   0.359   4.527 -0.1155  0.9115  0.1455
16227TIP3    H170096   1.638   0.376   4.580 -0.1682  2.6603 -0.4527
16227TIP3    H270097   1.781   0.422   4.558  0.6006  0.4456 -0.3598
16228TIP3   OH270098   4.107   4.146  16.606 -0.1350  0.5373 -0.3010
16228TIP3    H170099   4.087   4.053  16.620  0.0362  0.4552 -0.5932
16228TIP3    H270100   4.200   4.153  16.625 -0.2414  0.7338  0.1374
16229TIP3   OH270101   6.483   0.150   4.609  0.2541  0.2030 -0.1422
16229TIP3    H170102   6.481   0.175   4.517 -0.0148  1.1769  0.1223
16229TIP3    H270103   6.452   0.227   4.656 -2.0367 -1.0767  0.5981
16230TIP3   OH270104   2.123   5.496  11.512  0.5271 -0.5066 -0.2514
16230TIP3    H170105   2.128   5.591  11.514  1.0467 -0.5319  0.1541
16230TIP3    H270106   2.032   5.475  11.532  0.3692 -0.0935 -0.5354
16231TIP3   OH270107   3.190   3.835   3.485 -0.4231  0.6017 -0.4679
16231TIP3    H170108   3.137   3.783   3.425  0.0250  0.2586 -0.5722
16231TIP3    H270109   3.244   3.891   3.428  0.9874 -0.6850 -0.4528
16232TIP3   OH270110   6.773   6.611   2.563  0.3187  0.2835 -0.0911
16232TIP3    H170111   6.798   6.703   2.553  0.1326  0.1793 -1.7631
16232TIP3    H270112   6.746   6.584   2.475  2.9930 -2.1504 -0.3022
16233TIP3   OH270113   5.097   5.627   4.259 -0.0088  0.0481 -0.0184
16233TIP3    H170114   5.002   5.640   4.260 -0.0199 -0.0489  0.4732
16233TIP3    H270115   5.113   5.561   4.326  0.5196  0.8581  0.6741
16234TIP3   OH270116   3.880   6.708  16.720  0.1421 -0.0817  0.1878
16234TIP3    H170117   3.928   6.634  16.681 -0.1903  0.5549 -1.4942
16234TIP3    H270118   3.897   6.700  16.814  1.9559 -0.9975 -0.1713
16235TIP3   OH270119   2.945   5.777   5.190  0.0028  0.1405  0.2379
16235TIP3    H170120   2.984   5.862   5.211  0.2226  0.0562  0.1740
16235TIP3    H270121   2.947   5.773   5.095  1.0308 -0.4139  0.2720
16236TIP3   OH270122   1.941   0.975  10.516 -0.0155 -0.2869  0.0453
16236TIP3    H170123   1.912   0.918  10.445 -1.1484  0.9131 -0.4920
16236TIP3    H270124   1.986   1.047  10.472 -1.1533  0.7200  0.4726
16237TIP3   OH270125   0.820   1.530   0.687 -0.8126 -0.4411 -0.6284
16237TIP3    H170126   0.848   1.443   0.714 -1.8835 -0.3480  0.9694
16237TIP3    H270127   0.730   1.518   0.656 -1.0653  0.1042 -0.1454
16238TIP3   OH270128   2.423   4.411  15.694 -0.4257  0.1606 -0.9532
16238TIP3    H170129   2.432   4.389  15.787 -2.8076  0.3389 -0.6203
16238TIP3    H270130   2.414   4.327  15.650 -0.0644  0.1084 -0.9283
16239TIP3   OH270131   6.651   1.428   5.666  0.0728  0.3091 -0.3520
16239TIP3    H170132   6.736   1.388   5.684  0.3690  0.2860 -1.6836
16239TIP3    H270133   6.670   1.497   5.602 -0.9900 -0.1762 -1.2189
16240TIP3   OH270134   1.671   5.472   0.053 -0.5715 -0.6560  0.3259
16240TIP3    H170135   1.748   5.510   0.094 -0.0768 -0.4367 -0.7643
16240TIP3    H270136   1.706   5.411  -0.012 -1.3180 -0.7400 -0.0121
16241TIP3   OH270137   0.855   5.392  16.540  0.5791 -0.1531  0.0163
16241TIP3    H170138   0.836   5.396  16.634  4.4798  0.3724  0.9909
16241TIP3    H270139   0.850   5.483  16.511 -0.1425 -0.2527 -0.1826
16242TIP3   OH270140   1.514   3.765   3.163 -0.0873  0.2068 -0.3512
16242TIP3    H170141   1.531   3.772   3.257 -0.8901 -0.3957 -0.1438
16242TIP3    H270142   1.419   3.770   3.156 -0.0047  0.6789 -1.1787
16243TIP3   OH270143   4.160   2.926  13.668 -0.0448 -0.0722  0.0259
16243TIP3    H170144   4.125   2.946  13.581  0.0797  0.6468  0.1401
16243TIP3    H270145   4.208   3.004  13.693  1.0067 -0.7540  0.1967
16244TIP3   OH270146   2.425   4.023   1.728  1.0621  0.3731  0.2960
16244TIP3    H170147   2.490   4.075   1.775  1.6968  0.6104 -0.8120
16244TIP3    H270148   2.468   4.000   1.646  0.5938 -1.4454  0.5154
16245TIP3   OH270149   3.494   2.852  12.199  0.1034  0.4927 -0.1541
16245TIP3    H170150   3.506   2.812  12.113  1.4711 -0.6230  0.5221
16245TIP3    H270151   3.412   2.814  12.232  0.7925 -0.9137 -0.0036
16246TIP3   OH270152   6.380   1.332   4.960 -0.2413  0.1848  0.2539
16246TIP3    H170153   6.346   1.323   5.049 -1.3978 -0.4801 -0.2413
16246TIP3    H270154   6.345   1.257   4.913 -0.8367  1.2890 -1.1442
16247TIP3   OH270155   5.938   2.201  15.476  0.4385 -0.4272  0.1539
16247TIP3    H170156   5.909   2.246  15.556  0.2100  0.3620 -0.3673
16247TIP3    H270157   5.987   2.268  15.428 -3.6077  0.7595 -2.7835
16248TIP3   OH270158   0.587   2.241   4.104  0.6893  0.3159 -0.1663
16248TIP3    H170159   0.648   2.248   4.178 -0.2278  1.4166  0.5071
16248TIP3    H270160   0.644   2.233   4.027  1.6887  1.0116  0.4790
16249TIP3   OH270161   0.645   1.747  12.919 -0.1636  0.0686 -0.7349
16249TIP3    H170162   0.549   1.752  12.921 -0.0780  2.2497  0.0870
16249TIP3    H270163   0.672   1.825  12.872  1.2542  1.7116  2.4834
16250TIP3   OH270164   0.729   5.025  15.961  0.1070 -0.1623 -0.6668
16250TIP3    H170165   0.818   5.054  15.978  0.0887 -0.3417 -0.2368
16250TIP3    H270166   0.726   5.008  15.867  0.8751 -1.3159 -0.5021
16251TIP3   OH270167   6.635   6.335   4.711 -0.1012  0.3726  0.2004
16251TIP3    H170168   6.572   6.391   4.665  0.3947  1.5068  0.8838
16251TIP3    H270169   6.587   6.253   4.726 -0.1075 -0.3132 -2.8390
16252TIP3   OH270170   2.384   1.889   2.640  0.0963 -0.3654 -0.0300
16252TIP3    H170171   2.465   1.869   2.687 -0.2073  0.0670  0.7073
16252TIP3    H270172   2.379   1.824   2.571  0.5152 -1.1001  0.6133
16253TIP3   OH270173   6.567   2.906   2.236 -0.6942  0.0095  0.2938
16253TIP3    H170174   6.512   2.851   2.290 -0.6504 -1.9011 -1.4837
16253TIP3    H270175   6.644   2.924   2.289 -0.6740 -1.7520  0.9030
16254TIP3   OH270176   2.855   3.383  14.371 -0.7360 -0.3801 -0.2336
16254TIP3    H170177   2.795   3.430  14.429 -0.9248 -0.9860  0.0722
16254TIP3    H270178   2.921   3.448  14.347  0.1667 -0.4734  1.8048
16255TIP3   OH270179   1.332   1.508   1.933 -0.0931 -0.2156  0.8961
16255TIP3    H170180   1.315   1.416   1.914  0.1292 -0.1732  0.4806
16255TIP3    H270181   1.351   1.547   1.847  0.2101  0.1324  1.1183
16256TIP3   OH270182   3.902   5.976  16.164  0.0021  0.2899 -0.3103
16256TIP3    H170183   3.857   5.940  16.088 -1.5704  0.3601  0.5379
16256TIP3    H270184   3.870   6.066  16.171 -0.5550  0.0330  0.8894
16257TIP3   OH270185   0.493   4.622  10.955  0.0771  0.1050 -0.0437
16257TIP3    H170186   0.424   4.611  10.889 -0.3045 -1.2114  0.5342
16257TIP3    H270187   0.447   4.623  11.039  0.7271 -0.5474  0.3361
16258TIP3   OH270188   1.900   0.972   2.348 -0.0284  0.7874 -0.3593
16258TIP3    H170189   1.911   0.977   2.253 -3.3337 -0.1429 -0.9348
16258TIP3    H270190   1.944   0.890   2.373  0.7478  0.9723 -1.0776
16259TIP3   OH270191   5.020   0.805  11.987 -0.0776  0.0930  0.4348
16259TIP3    H170192   5.002   0.721  11.946 -0.7083  1.3663 -2.1427
16259TIP3    H270193   4.964   0.807  12.064 -1.2697 -1.2249 -0.3571
16260TIP3   OH270194   3.141   3.381  16.187  0.5992  0.2264 -0.2120
16260TIP3    H170195   3.146   3.448  16.118 -1.1829  0.7594  0.1335
16260TIP3    H270196   3.146   3.431  16.268  3.3267 -0.4449  0.1553
16261TIP3   OH270197   3.827   2.603  15.940 -0.3383  0.1897  0.1886
16261TIP3    H170198   3.888   2.623  15.869  0.1684 -1.2251  0.1866
16261TIP3    H270199   3.874   2.540  15.995 -1.2904  0.1117  0.9380
16262TIP3   OH270200   5.981   2.767   2.734  0.6199 -0.4454 -0.2125
16262TIP3    H170201   6.072   2.789   2.717  0.8307 -0.8110  0.4230
16262TIP3    H270202   5.961   2.696   2.672  0.8616 -0.5875 -0.1267
16263TIP3   OH270203   2.125   4.236   5.937  0.4753 -0.3609  0.4980
16263TIP3    H170204   2.077   4.170   5.987 -0.4393 -0.2899 -0.2620
16263TIP3    H270205   2.166   4.291   6.003  0.4865 -1.1393  1.1485
16264TIP3   OH270206   5.069   3.131   2.555  0.1262  0.6595  0.4757
16264TIP3    H170207   5.090   3.157   2.645  2.0153  0.8586  0.0099
16264TIP3    H270208   5.029   3.209   2.516  1.1880  1.2669  0.5603
16265TIP3   OH270209   3.178   1.507  16.595  0.6253  0.5902 -0.0771
16265TIP3    H170210   3.123   1.460  16.532 -1.2271  1.7616  0.6093
16265TIP3    H270211   3.176   1.598  16.566  0.0592  1.0836  1.4283
16266TIP3   OH270212   5.184   1.492  16.895 -0.5620  0.3868 -0.1531
16266TIP3    H170213   5.156   1.516  16.983 -1.6156  1.6743 -0.7961
16266TIP3    H270214   5.156   1.401  16.885 -0.6874  0.3146  0.7355
16267TIP3   OH270215   0.828   2.893  14.130  0.5830 -0.3540 -0.0819
16267TIP3    H170216   0.900   2.956  14.135 -2.7961  3.9698 -0.1152
16267TIP3    H270217   0.806   2.874  14.221 -0.3453  1.1676  0.0463
16268TIP3   OH270218   4.048   6.287  16.929 -0.4030 -0.0274  0.3999
16268TIP3    H170219   4.000   6.367  16.951 -1.9827 -0.5834 -0.8281
16268TIP3    H270220   4.121   6.317  16.875  1.0996  0.9057  2.7977
16269TIP3   OH270221   1.548   1.365   5.128  0.2202 -0.5479 -0.4519
16269TIP3    H170222   1.492   1.441   5.142  1.0516  0.3232 -1.6014
16269TIP3    H270223   1.610   1.393   5.061  2.1458 -1.4014  0.8843
16270TIP3   OH270224   2.475   5.981  16.062  0.4185  0.0589 -0.3022
16270TIP3    H170225   2.502   5.967  16.153  2.7781  0.0692 -0.9304
16270TIP3    H270226   2.509   6.068  16.040 -4.3723  2.3776  0.1555
16271TIP3   OH270227   5.009   2.318  13.842 -0.0479 -0.0398 -0.0553
16271TIP3    H170228   4.976   2.310  13.931 -0.4789 -2.0125 -0.3465
16271TIP3    H270229   5.029   2.228  13.815  0.9058  0.5983 -1.6427
16272TIP3   OH270230   6.350   6.314  14.332  0.0193  0.0822  0.6626
16272TIP3    H170231   6.273   6.260  14.350  0.6523 -0.0561  3.3707
16272TIP3    H270232   6.318   6.383  14.274 -2.0937 -0.1309  1.4910
16273TIP3   OH270233   2.514   2.655   0.113 -0.9197 -0.0631  1.2541
16273TIP3    H170234   2.530   2.569   0.073  1.1532  1.4936 -1.5676
16273TIP3    H270235   2.432   2.685   0.073 -0.5594  0.1241  0.6503
16274TIP3   OH270236   2.918   3.119  15.220  0.6354 -0.5581  0.3656
16274TIP3    H170237   2.849   3.053  15.209 -1.2113  1.6169 -2.1324
16274TIP3    H270238   2.921   3.135  15.315 -1.3358 -1.6695  0.6598
16275TIP3   OH270239   0.289   3.334  13.209 -0.1714  0.2429 -0.6622
16275TIP3    H170240   0.274   3.271  13.138  1.0256  1.0637 -1.6745
16275TIP3    H270241   0.376   3.311  13.243 -0.8613 -0.3532  0.7986
16276TIP3   OH270242   4.227   4.249  11.470 -0.2490  0.5348  0.0106
16276TIP3    H170243   4.132   4.251  11.454 -0.2567 -0.9243 -0.3153
16276TIP3    H270244   4.241   4.314  11.539 -1.7878 -0.4856  1.3742
16277TIP3   OH270245   5.487   1.434   0.101  0.2607 -0.0358  0.2554
16277TIP3    H170246   5.424   1.434   0.174  0.5043 -3.0523  0.6005
16277TIP3    H270247   5.541   1.357   0.117  0.9507 -0.2537 -2.6320
16278TIP3   OH270248   2.804   3.052  10.589  0.7670 -0.3929  0.2794
16278TIP3    H170249   2.721   3.099  10.590  0.3330 -1.1251  1.7801
16278TIP3    H270250   2.852   3.085  10.665  1.2354 -0.9995  0.2597
16279TIP3   OH270251   2.616   4.227   1.863 -0.5587  0.3958 -0.0940
16279TIP3    H170252   2.629   4.253   1.772 -1.1179  1.5774  0.1384
16279TIP3    H270253   2.646   4.303   1.914  0.6856 -0.6344  0.7519
16280TIP3   OH270254   0.066   2.877   1.536 -0.5261  0.1266 -0.6449
16280TIP3    H170255   0.007   2.918   1.599 -1.9235 -1.8562 -0.5683
16280TIP3    H270256   0.028   2.897   1.451 -0.8613 -0.4719 -0.6389
16281TIP3   OH270257   6.390   5.169   0.633  0.6541 -0.6886  0.3623
16281TIP3    H170258   6.354   5.183   0.720  0.6054  0.6607  0.1457
16281TIP3    H270259   6.315   5.170   0.575  0.9197  1.8166 -0.0521
16282TIP3   OH270260   5.400   5.325  15.782  0.4875 -1.0864 -0.0722
16282TIP3    H170261   5.366   5.236  15.772  0.9029 -1.0738 -1.8790
16282TIP3    H270262   5.494   5.316  15.768  0.4602 -0.2868 -0.8330
16283TIP3   OH270263   5.042   0.939  12.589 -0.3067 -0.0671  0.0934
16283TIP3    H170264   4.961   0.891  12.605 -0.7971 -0.7099 -3.5492
16283TIP3    H270265   5.019   1.031  12.601 -0.6387 -0.3810  2.2664
16284TIP3   OH270266   3.843   0.975   1.833 -0.2732  0.2344 -0.7685
16284TIP3    H170267   3.927   0.937   1.860  0.0131  1.0390 -0.4785
16284TIP3    H270268   3.842   0.964   1.738 -0.6642 -1.3846 -0.5915
16285TIP3   OH270269   3.045   4.183   1.681 -0.0790  0.1026  0.4922
16285TIP3    H170270   2.967   4.128   1.668  0.9402 -0.8995 -1.8719
16285TIP3    H270271   3.020   4.268   1.644  0.2372 -0.5152 -1.2263
16286TIP3   OH270272   6.522   3.875  16.832 -0.1639  0.3905 -0.2617
16286TIP3    H170273   6.530   3.962  16.871 -3.0227 -0.0355  1.6364
16286TIP3    H270274   6.467   3.888  16.755 -1.1268  0.2503  0.3770
16287TIP3   OH270275   2.219   5.975   0.105 -0.4514  0.8185 -0.1149
16287TIP3    H170276   2.147   5.930   0.061  1.0166 -0.4106 -1.3706
16287TIP3    H270277   2.249   5.914   0.172 -1.4152  1.8917  1.3652
16288TIP3   OH270278   5.337   3.640   3.365  0.2358  0.2136  0.3266
16288TIP3    H170279   5.352   3.634   3.271  1.1537 -2.3877  0.5677
16288TIP3    H270280   5.337   3.734   3.383 -1.9012  0.9064 -2.5139
16289TIP3   OH270281   0.844   3.730   1.482 -0.0850  0.0640  0.1234
16289TIP3    H170282   0.856   3.808   1.428  1.0145  2.0494  2.9493
16289TIP3    H270283   0.905   3.666   1.446  1.2077  1.5860 -0.5169
16290TIP3   OH270284   3.477   5.975   3.142 -1.0711 -0.0525 -0.3137
16290TIP3    H170285   3.444   5.928   3.066  0.9055 -2.6017  0.2415
16290TIP3    H270286   3.422   5.945   3.214 -0.2526 -1.0343 -0.0762
16291TIP3   OH270287   1.947   6.514  12.629  0.1951 -0.4293 -0.0501
16291TIP3    H170288   1.928   6.603  12.658  1.2492  0.2172 -1.2515
16291TIP3    H270289   2.037   6.498  12.656  0.4840 -0.5980 -1.0642
16292TIP3   OH270290   0.873   2.093   1.388 -0.9660 -0.2337 -0.5416
16292TIP3    H170291   0.857   2.068   1.479 -0.4259  0.4932 -0.2342
16292TIP3    H270292   0.964   2.123   1.387 -1.0128 -0.0888 -1.2893
16293TIP3   OH270293   6.463   1.125   5.318 -0.1776 -0.2335 -0.1001
16293TIP3    H170294   6.544   1.118   5.266 -0.4485 -0.2803 -0.5248
16293TIP3    H270295   6.481   1.193   5.382  1.1648 -2.0684  1.5928
16294TIP3   OH270296   5.290   3.834   5.810 -0.0635 -0.4277 -0.4391
16294TIP3    H170297   5.382   3.857   5.827  0.1031 -1.5175  0.2617
16294TIP3    H270298   5.260   3.794   5.892 -0.8009 -1.1633 -1.0556
16295TIP3   OH270299   6.431   1.472   4.129 -0.3193  0.1372 -0.2443
16295TIP3    H170300   6.343   1.435   4.127 -0.0119 -0.6105 -0.7496
16295TIP3    H270301   6.435   1.529   4.052 -0.3148  0.0491 -0.3097
16296TIP3   OH270302   1.996   0.906  15.549  0.2944  0.3638 -0.7093
16296TIP3    H170303   1.947   0.965  15.606 -0.2532 -0.3452 -0.4272
16296TIP3    H270304   1.966   0.928  15.461  0.4490  0.8248 -0.6526
16297TIP3   OH270305   0.338   3.394  12.053  0.4103 -0.8829  0.3280
16297TIP3    H170306   0.343   3.308  12.011  1.0000 -0.7695  0.1587
16297TIP3    H270307   0.251   3.426  12.031  0.3996 -1.1902 -0.0888
16298TIP3   OH270308   5.708   4.356  17.127 -0.1108  0.8040  0.2565
16298TIP3    H170309   5.748   4.289  17.183 -1.6444 -0.0751  0.3524
16298TIP3    H270310   5.769   4.430  17.131  1.7244 -0.6351 -0.0085
16299TIP3   OH270311   2.329   6.665  11.959 -0.3966 -0.4569 -0.3179
16299TIP3    H170312   2.291   6.604  11.895 -0.2764 -1.6898  0.7501
16299TIP3    H270313   2.254   6.713  11.994 -0.6703 -0.9867 -0.1656
16300TIP3   OH270314   5.009   4.756  13.841 -0.3419 -0.2061  0.5850
16300TIP3    H170315   5.072   4.723  13.776 -0.2285  1.7337 -0.3541
16300TIP3    H270316   5.062   4.770  13.920  0.6656  2.1093 -0.4076
16301TIP3   OH270317   1.689   2.084   1.216  0.1948  0.4485 -0.1409
16301TIP3    H170318   1.717   2.115   1.302  0.1037 -0.6790  0.3132
16301TIP3    H270319   1.755   2.117   1.156  0.4440  0.9630  0.4078
16302TIP3   OH270320   1.366   4.498  15.678  0.2433 -0.0649 -0.0021
16302TIP3    H170321   1.318   4.419  15.655 -2.6707  0.6456  2.7971
16302TIP3    H270322   1.329   4.566  15.622  0.5364 -0.1674 -0.3152
16303TIP3   OH270323   6.496   4.225  10.870 -0.1951 -0.2485 -0.6843
16303TIP3    H170324   6.411   4.194  10.839 -0.9249  0.1271  0.8715
16303TIP3    H270325   6.475   4.290  10.938  1.3330 -0.2357 -0.1903
16304TIP3   OH270326   3.846   2.100  15.524 -0.7242 -0.5100 -0.3902
16304TIP3    H170327   3.860   2.195  15.530 -2.0903 -0.3133  0.0061
16304TIP3    H270328   3.902   2.073  15.452  1.8619  0.1187  1.2248
16305TIP3   OH270329   6.383   2.102  15.571 -0.1380 -0.2956  0.4196
16305TIP3    H170330   6.302   2.068  15.534 -1.1626  2.3649 -0.0156
16305TIP3    H270331   6.365   2.110  15.665  0.6451 -2.2496  0.7754
16306TIP3   OH270332   6.216   4.420   0.551  0.4316  0.3041 -0.3381
16306TIP3    H170333   6.302   4.409   0.592  0.8597  1.9501 -0.7281
16306TIP3    H270334   6.184   4.504   0.585 -0.7012  0.0588 -0.7662
16307TIP3   OH270335   0.628   0.318   2.869  0.1811  0.2845 -0.2676
16307TIP3    H170336   0.676   0.252   2.819 -1.0630 -1.2762  0.5052
16307TIP3    H270337   0.566   0.355   2.806  0.7219  0.5548 -0.6466
16308TIP3   OH270338   0.126   1.277  13.707 -0.4788 -0.2725 -0.0302
16308TIP3    H170339   0.114   1.368  13.683 -0.4143 -0.4788 -0.8561
16308TIP3    H270340   0.038   1.246  13.728 -0.6320 -0.2701 -0.6540
16309TIP3   OH270341   3.011   1.254  11.811 -0.1150  0.0817  0.3833
16309TIP3    H170342   3.051   1.168  11.829 -0.2361 -0.3039 -1.0145
16309TIP3    H270343   2.917   1.237  11.811 -0.1240 -0.5522 -2.9446
16310TIP3   OH270344   3.034   3.915  14.722  0.4243  0.4069  0.0489
16310TIP3    H170345   3.073   3.842  14.674  0.1774 -0.1730  0.7085
16310TIP3    H270346   3.107   3.975  14.738  0.8054 -0.0952  0.2253
16311TIP3   OH270347   0.808   5.946  15.106  0.7343  0.2728 -0.2195
16311TIP3    H170348   0.788   5.981  15.193 -0.6650 -0.3766 -0.2522
16311TIP3    H270349   0.775   5.856  15.109  1.9883 -0.2269 -0.9550
16312TIP3   OH270350   5.619   3.686  15.489  0.5747 -0.1598 -0.2819
16312TIP3    H170351   5.624   3.726  15.402  1.1215 -1.6162 -0.9633
16312TIP3    H270352   5.705   3.702  15.528  1.2030 -1.5487 -1.0033
16313TIP3   OH270353   2.280   1.130  15.257 -0.3820 -0.7431 -0.1715
16313TIP3    H170354   2.369   1.163  15.249  0.0170 -1.1972  1.8491
16313TIP3    H270355   2.290   1.035  15.259 -0.5489 -0.8050  2.5291
16314TIP3   OH270356   1.502   6.296  12.353  0.5030 -0.3331  0.2368
16314TIP3    H170357   1.475   6.365  12.293 -0.9030 -0.5965  0.5471
16314TIP3    H270358   1.485   6.215  12.306  0.7755 -0.5064  0.4342
16315TIP3   OH270359   2.789   5.697   4.505  0.8647  0.2133 -0.1613
16315TIP3    H170360   2.865   5.733   4.551  0.5914 -0.7352  1.0912
16315TIP3    H270361   2.811   5.605   4.490  0.0179 -0.0584  0.1612
16316TIP3   OH270362   3.813   6.561  16.039  0.2540 -0.6224  0.5375
16316TIP3    H170363   3.850   6.642  16.005  0.1118  0.2030  2.2521
16316TIP3    H270364   3.726   6.557  16.000  0.8602 -0.8343 -0.8554
16317TIP3   OH270365   1.024   3.346   0.124  0.3646  0.0358 -0.2956
16317TIP3    H170366   1.016   3.411   0.193 -0.1726 -2.6047  2.3136
16317TIP3    H270367   1.116   3.349   0.098  0.6310  0.9064  0.6936
16318TIP3   OH270368   5.230   3.863  16.385 -0.4488  0.3604 -0.2123
16318TIP3    H170369   5.295   3.810  16.339 -1.4759 -0.1050 -1.1686
16318TIP3    H270370   5.221   3.942  16.331 -0.5586  0.5022  0.0108
16319TIP3   OH270371   3.837   0.314   0.420 -0.4703 -0.1518 -0.3063
16319TIP3    H170372   3.742   0.323   0.416 -0.4213  0.0764 -1.1053
16319TIP3    H270373   3.871   0.399   0.390 -0.0144 -0.2095  0.0259
16320TIP3   OH270374   6.369   3.713   5.732 -0.6351 -0.0298  0.6473
16320TIP3    H170375   6.396   3.804   5.741  2.1810 -0.4945 -1.7378
16320TIP3    H270376   6.280   3.718   5.696 -0.3270  1.7893  0.0527
16321TIP3   OH270377   4.696   3.549   1.447 -0.5611  0.1143 -0.4337
16321TIP3    H170378   4.683   3.497   1.367 -1.3635 -1.1129  0.4569
16321TIP3    H270379   4.612   3.545   1.492  0.1257  0.0516  0.8873
16322TIP3   OH270380   6.156   4.487   6.018  0.1240 -0.9270 -0.5867
16322TIP3    H170381   6.196   4.497   5.932 -0.4021 -0.5317 -0.7904
16322TIP3    H270382   6.190   4.561   6.069 -0.0748 -0.7839 -0.6586
16323TIP3   OH270383   4.704   5.174  16.562  0.7975 -0.8198  0.0095
16323TIP3    H170384   4.760   5.202  16.634  1.5923  0.9044 -1.2084
16323TIP3    H270385   4.743   5.092  16.532  0.6315 -1.4029  1.3027
16324TIP3   OH270386   3.853   3.925  16.589  0.2981  1.0694  0.4603
16324TIP3    H170387   3.808   3.952  16.668 -0.3667  1.6279 -0.0938
16324TIP3    H270388   3.846   4.000  16.530  0.9038  0.7194 -0.0740
16325TIP3   OH270389   0.842   2.801  12.769  0.2014 -0.3238  0.4569
16325TIP3    H170390   0.881   2.754  12.696  1.7817  1.1499  0.3015
16325TIP3    H270391   0.803   2.732  12.824  0.8380 -1.6208 -0.6712
16326TIP3   OH270392   5.789   2.055  11.692  0.1415 -0.3561 -0.5211
16326TIP3    H170393   5.771   2.139  11.735  1.0923 -1.5743  2.5618
16326TIP3    H270394   5.858   2.075  11.629  0.2175  1.2101  0.0096
16327TIP3   OH270395   5.433   5.575  10.982 -0.2959  0.6751  0.0783
16327TIP3    H170396   5.368   5.505  10.990  0.5456 -0.2448 -0.7354
16327TIP3    H270397   5.433   5.596  10.888  0.8428  0.4006  0.0136
16328TIP3   OH270398   6.063   3.105   2.610  0.2665  0.6520 -0.4942
16328TIP3    H170399   6.127   3.044   2.647 -2.0227 -0.0922  2.6761
16328TIP3    H270400   6.025   3.059   2.536  0.1744 -0.8637  0.4547
16329TIP3   OH270401   1.589   5.150  12.980 -0.2693 -0.0381  0.1304
16329TIP3    H170402   1.576   5.149  13.074  1.3725 -0.4094  0.3774
16329TIP3    H270403   1.678   5.117  12.967  0.1969  1.6145 -1.4256
16330TIP3   OH270404   6.057   3.303   3.065 -0.5184 -0.0111 -0.1875
16330TIP3    H170405   6.083   3.226   3.116  0.8580  0.0295 -0.7742
16330TIP3    H270406   6.108   3.375   3.101  2.2274 -0.3833 -2.9293
16331TIP3   OH270407   3.765   1.428   2.934 -0.1823 -0.4152  0.2563
16331TIP3    H170408   3.793   1.513   2.900 -0.4697 -0.0097  1.0170
16331TIP3    H270409   3.680   1.445   2.974  0.5203 -0.6790  1.9390
16332TIP3   OH270410   1.991   5.214   5.239  0.2204 -0.5992  0.1171
16332TIP3    H170411   2.057   5.235   5.172  0.8376  0.4821  1.0128
16332TIP3    H270412   1.972   5.299   5.280 -0.6431 -1.1401  0.8560
16333TIP3   OH270413   2.703   4.528   1.141  0.0279 -0.1423 -0.4088
16333TIP3    H170414   2.689   4.618   1.112 -1.6536  0.3336  1.6125
16333TIP3    H270415   2.662   4.524   1.227  2.3569 -2.1491  0.7504
16334TIP3   OH270416   2.083   3.640  12.060  0.1574  0.7104 -1.2814
16334TIP3    H170417   2.042   3.620  11.976 -1.8520  1.8263 -0.6416
16334TIP3    H270418   2.149   3.572  12.071  1.3976  1.2601 -4.3278
16335TIP3   OH270419   3.145   6.707  16.269  0.3207  0.1370  0.8464
16335TIP3    H170420   3.201   6.638  16.303  1.7517  1.0101  0.3320
16335TIP3    H270421   3.204   6.764  16.219 -1.3853 -0.3056 -1.9227
16336TIP3   OH270422   3.156   5.045  12.450 -0.1155  0.2756 -0.5667
16336TIP3    H170423   3.102   5.052  12.371 -0.4831 -0.8582 -0.4317
16336TIP3    H270424   3.105   4.990  12.509  0.2309  0.9819  0.4158
16337TIP3   OH270425   5.153   1.254   1.192  0.3311 -0.1405 -0.0492
16337TIP3    H170426   5.166   1.204   1.112  1.0910 -0.0738  0.0296
16337TIP3    H270427   5.168   1.192   1.262  2.1422  0.3610  0.0637
16338TIP3   OH270428   3.707   0.325   3.506 -0.0988 -0.2895 -0.0713
16338TIP3    H170429   3.697   0.420   3.500 -1.3891 -0.1818  2.4102
16338TIP3    H270430   3.782   0.305   3.451  0.3048  2.1775 -0.5360
16339TIP3   OH270431   5.721   0.850  10.282 -0.1556  0.1478  0.3954
16339TIP3    H170432   5.784   0.781  10.305 -1.7105 -1.2140  0.7673
16339TIP3    H270433   5.662   0.854  10.358 -0.7326  1.1364 -0.0935
16340TIP3   OH270434   1.711   6.675  13.896 -0.0182  0.4638  0.3920
16340TIP3    H170435   1.633   6.714  13.934  1.0652  2.1605  0.9647
16340TIP3    H270436   1.774   6.747  13.891  2.1458 -1.2212  1.6476
16341TIP3   OH270437   2.948   1.620   3.751 -0.2133 -0.2399  0.3868
16341TIP3    H170438   3.019   1.568   3.788  0.6587  1.3812  1.0889
16341TIP3    H270439   2.882   1.623   3.821  0.2656  0.5844  0.8144
16342TIP3   OH270440   3.795   6.413  12.625 -0.5435 -0.6053 -1.2070
16342TIP3    H170441   3.726   6.459  12.672 -1.6104 -2.7807 -0.4762
16342TIP3    H270442   3.799   6.456  12.540 -2.2373  0.1321 -0.9547
16343TIP3   OH270443   2.497   3.588  13.680 -0.1127 -0.8136  0.6012
16343TIP3    H170444   2.545   3.519  13.727 -1.5245 -1.0824  1.7144
16343TIP3    H270445   2.425   3.611  13.739 -0.8455  0.1868 -0.6507
16344TIP3   OH270446   0.730   3.840  14.197  0.3790  0.2781  0.0436
16344TIP3    H170447   0.677   3.807  14.124 -1.2524  1.6583  0.5365
16344TIP3    H270448   0.799   3.891  14.155  1.7612 -1.9795 -0.6355
16345TIP3   OH270449   6.029   1.627   0.255  0.2017  0.8838  0.5997
16345TIP3    H170450   6.123   1.612   0.259  0.4736  2.5489  2.0292
16345TIP3    H270451   6.000   1.620   0.346 -1.0788  0.2686  0.1574
16346TIP3   OH270452   2.647   6.443  15.078 -0.0727  0.0276 -0.1380
16346TIP3    H170453   2.710   6.505  15.115 -0.0013 -0.7972  1.1947
16346TIP3    H270454   2.682   6.357  15.101 -1.6189 -0.4463  0.5432
16347TIP3   OH270455   3.061   3.044   3.451  0.2029  0.2890 -0.2329
16347TIP3    H170456   3.044   3.085   3.536 -1.9646 -0.6773 -0.1463
16347TIP3    H270457   3.025   2.956   3.459  1.2021 -0.2982 -1.7305
16348TIP3   OH270458   3.426   6.266   6.282  0.1536  0.1805  0.1350
16348TIP3    H170459   3.347   6.216   6.263  0.5621 -0.0693 -1.0362
16348TIP3    H270460   3.401   6.328   6.350 -0.6055 -1.0074  0.9732
16349TIP3   OH270461   6.038   4.882   0.187  0.7006  0.1737  0.1994
16349TIP3    H170462   5.974   4.943   0.225  0.5206 -0.3741  0.7760
16349TIP3    H270463   6.082   4.934   0.119 -0.9194  0.3347 -0.7915
16350TIP3   OH270464   0.124   5.169  13.544 -0.4402  0.3551 -0.0087
16350TIP3    H170465   0.087   5.166  13.632  0.7120  0.1165  0.4924
16350TIP3    H270466   0.099   5.085  13.504  3.3202 -2.0267  1.9783
16351TIP3   OH270467   4.052   3.441   5.225 -0.5670 -0.0132  0.3102
16351TIP3    H170468   4.073   3.509   5.289  0.4952 -0.5093  0.5229
16351TIP3    H270469   4.135   3.394   5.212 -0.3531  0.9414 -2.4932
16352TIP3   OH270470   3.890   6.409  14.680  0.5316 -0.9704  0.0185
16352TIP3    H170471   3.824   6.367  14.733 -1.6407  0.9374 -0.9841
16352TIP3    H270472   3.845   6.484  14.640  2.6421 -0.9463 -2.6290
16353TIP3   OH270473   2.379   3.642   2.586  0.0710 -0.7193 -0.4663
16353TIP3    H170474   2.315   3.583   2.624  0.9253 -0.8273  0.8957
16353TIP3    H270475   2.382   3.619   2.493 -2.7506  0.1516 -0.8456
16354TIP3   OH270476   4.093   2.387  12.471 -0.2656  0.2454  0.1029
16354TIP3    H170477   4.158   2.447  12.507 -1.4066  1.8421 -0.3629
16354TIP3    H270478   4.140   2.305  12.459  1.6798  1.3562 -0.3074
16355TIP3   OH270479   4.974   1.615   4.832  0.4319  0.0861 -0.4677
16355TIP3    H170480   4.882   1.612   4.807 -0.1701 -2.7504  1.5702
16355TIP3    H270481   5.019   1.563   4.764  0.7803  2.2706 -2.0015
16356TIP3   OH270482   5.477   2.202   5.042 -0.0547  0.0014 -0.1554
16356TIP3    H170483   5.438   2.230   4.959 -0.1890 -0.2581 -0.1798
16356TIP3    H270484   5.571   2.203   5.026 -0.1307 -3.0141 -1.2911
16357TIP3   OH270485   2.130   4.053   0.307  0.1149 -0.0578  0.0047
16357TIP3    H170486   2.093   3.969   0.332  1.5174 -0.1500  1.9701
16357TIP3    H270487   2.201   4.031   0.247  0.1447 -0.2305  0.1037
16358TIP3   OH270488   1.224   1.526  13.780 -0.3975 -0.0344  0.2813
16358TIP3    H170489   1.233   1.433  13.800  0.0553  0.1391  0.9260
16358TIP3    H270490   1.286   1.541  13.709 -1.2260 -0.4344 -0.5359
16359TIP3   OH270491   6.243   4.645  15.484 -0.3912  0.1312  0.4855
16359TIP3    H170492   6.231   4.553  15.505 -0.1901 -0.1564 -0.5883
16359TIP3    H270493   6.177   4.663  15.417 -2.5409  1.6078  2.8257
16360TIP3   OH270494   3.109   2.774   3.105 -0.4984 -0.7005  0.3141
16360TIP3    H170495   3.138   2.697   3.056  0.0553 -2.3621  3.0203
16360TIP3    H270496   3.169   2.778   3.180 -0.4028  2.5289  0.1769
16361TIP3   OH270497   5.696   4.968  11.309 -0.3604 -0.2087  0.5962
16361TIP3    H170498   5.766   4.916  11.268 -0.9880 -1.0566  0.5880
16361TIP3    H270499   5.654   5.013  11.236  0.1912  0.3467  0.6056
16362TIP3   OH270500   6.251   3.575  13.889 -0.2045  0.2255  0.0615
16362TIP3    H170501   6.231   3.662  13.922  1.0883  0.6196 -0.1089
16362TIP3    H270502   6.344   3.579  13.867  0.3014 -1.6695  1.5397
16363TIP3   OH270503   0.912   1.952  15.823  0.7259 -0.2379  0.2792
16363TIP3    H170504   0.849   2.019  15.850  0.0639 -0.4570 -0.6856
16363TIP3    H270505   0.891   1.934  15.731  2.4514 -0.0230 -0.2061
16364TIP3   OH270506   3.132   5.937  16.221  0.5191  0.3212 -0.7490
16364TIP3    H170507   3.198   5.973  16.281 -0.6007  0.2667  0.5620
16364TIP3    H270508   3.173   5.858  16.186  1.6390  0.9619 -0.9622
16365TIP3   OH270509   2.353   2.450  15.314  0.5672 -0.2319  0.5201
16365TIP3    H170510   2.270   2.402  15.307  1.5780 -1.8492 -1.2681
16365TIP3    H270511   2.344   2.501  15.394 -2.6608  0.6488 -0.2558
16366TIP3   OH270512   2.407   4.262   2.384 -0.4384 -0.5401 -0.3142
16366TIP3    H170513   2.317   4.250   2.353  0.0787 -0.4694 -1.9456
16366TIP3    H270514   2.453   4.182   2.358  0.4116  0.2319 -1.2987
16367TIP3   OH270515   2.607   4.653   3.597 -0.7626  0.3387 -0.2796
16367TIP3    H170516   2.531   4.705   3.570 -0.8708  0.4748  0.2743
16367TIP3    H270517   2.570   4.580   3.645 -0.5424  0.4187  0.0154
16368TIP3   OH270518   4.095   5.075   0.749  0.7056  0.0102  0.0349
16368TIP3    H170519   4.139   5.100   0.668  0.1266 -2.0770 -1.0144
16368TIP3    H270520   4.002   5.076   0.726  0.5368 -0.5570  0.6603
16369TIP3   OH270521   3.929   2.447   2.025 -0.3475 -0.1830  0.0909
16369TIP3    H170522   3.991   2.447   1.951 -0.1312  2.0395  0.2012
16369TIP3    H270523   3.859   2.506   1.997 -0.9353 -0.3661  1.1439
16370TIP3   OH270524   1.156   2.962   2.993 -0.1165 -0.3535  0.4867
16370TIP3    H170525   1.076   3.003   2.959  0.7514  0.3366 -0.8153
16370TIP3    H270526   1.174   3.010   3.074 -0.6475 -0.0506  0.4339
16371TIP3   OH270527   0.063   3.504  16.784 -0.0334 -0.2044 -0.2380
16371TIP3    H170528   0.070   3.413  16.814  2.8446 -0.2612 -0.7721
16371TIP3    H270529  -0.005   3.542  16.839 -2.1359 -2.9132 -0.7449
16372TIP3   OH270530   0.090   1.482   5.025 -0.1644  0.3614  0.0577
16372TIP3    H170531   0.131   1.395   5.032 -2.0482 -0.4958  1.2326
16372TIP3    H270532  -0.004   1.464   5.028 -0.7037  2.2460 -2.5219
16373TIP3   OH270533   6.628   3.677   1.445  0.5181 -0.2880 -0.7225
16373TIP3    H170534   6.629   3.673   1.349  0.7315 -1.9010 -0.6816
16373TIP3    H270535   6.662   3.764   1.466  0.6959 -0.0026 -2.1022
16374TIP3   OH270536   3.684   6.107  11.837  0.6152  0.2303  0.3459
16374TIP3    H170537   3.670   6.199  11.859  1.2717  0.4311 -0.0653
16374TIP3    H270538   3.596   6.072  11.826  0.3520  0.7554  0.7031
16375TIP3   OH270539   5.104   0.812  17.048 -0.0292  0.0243  0.3212
16375TIP3    H170540   5.139   0.831  16.961  0.7748 -0.5848  0.4986
16375TIP3    H270541   5.174   0.764  17.092 -0.1821  0.8721  1.5291
16376TIP3   OH270542   6.606   2.064  11.363 -0.6512  0.0200 -0.1753
16376TIP3    H170543   6.655   2.120  11.303 -1.9945  0.6788 -0.7034
16376TIP3    H270544   6.562   2.125  11.423 -0.0235 -0.5944  0.9420
16377TIP3   OH270545   1.170   3.284  16.021  0.0917 -0.1917  0.8166
16377TIP3    H170546   1.253   3.309  15.982 -0.3311 -0.6800 -0.4599
16377TIP3    H270547   1.172   3.322  16.109  1.7433 -0.3892  0.8973
16378TIP3   OH270548   2.560   6.725  13.833  0.0627  0.0104 -0.4167
16378TIP3    H170549   2.597   6.697  13.750  2.1743 -0.5042  0.6248
16378TIP3    H270550   2.476   6.765  13.810  1.4282  1.6750 -3.0182
16379TIP3   OH270551   2.016   4.314  15.036 -0.1269  0.2002  0.5101
16379TIP3    H170552   2.026   4.227  14.997  0.9153 -0.7894  2.7924
16379TIP3    H270553   1.922   4.331  15.031 -0.5289 -1.6200  1.0733
16380TIP3   OH270554   1.904   4.105  14.015 -0.2200 -0.1560  0.0934
16380TIP3    H170555   1.942   4.136  14.097  0.0563  0.7063 -0.3461
16380TIP3    H270556   1.842   4.174  13.990  0.5127  0.1323 -0.9839
16381TIP3   OH270557   4.387   5.867   1.720  0.2123 -0.3039 -0.1815
16381TIP3    H170558   4.327   5.914   1.662  1.3957  1.2959 -0.1627
16381TIP3    H270559   4.425   5.799   1.665  0.9917  0.9091 -1.2001
16382TIP3   OH270560   2.729   3.724  14.887 -0.7214 -0.0319 -0.4767
16382TIP3    H170561   2.702   3.697  14.974 -0.2192 -0.6789 -0.5114
16382TIP3    H270562   2.769   3.810  14.900  1.0438 -0.9097  0.2520
16383TIP3   OH270563   4.936   6.352  11.176  0.1551 -0.4799 -0.0428
16383TIP3    H170564   4.988   6.360  11.256 -1.2884  1.3710  0.7956
16383TIP3    H270565   4.864   6.414  11.189 -1.3780 -1.7924 -1.8106
16384TIP3   OH270566   6.670   5.375   1.387  0.0383  0.1796 -0.1285
16384TIP3    H170567   6.699   5.444   1.328  0.3064  0.8991  0.8096
16384TIP3    H270568   6.634   5.422   1.463 -0.7058 -0.7135  0.0883
16385TIP3   OH270569   5.415   3.793   2.163 -0.3350 -0.0516  0.5580
16385TIP3    H170570   5.490   3.807   2.221  0.1351 -0.6882  0.1215
16385TIP3    H270571   5.355   3.864   2.183  0.8057  1.0335  0.2593
16386TIP3   OH270572   5.398   6.673   0.241 -0.1923  0.1603 -0.1578
16386TIP3    H170573   5.350   6.614   0.183 -0.6500  0.3547  0.0135
16386TIP3    H270574   5.481   6.628   0.258  0.2897  0.4706 -1.5971
16387TIP3   OH270575   1.765   4.399   0.109  0.0870  0.2599  0.1878
16387TIP3    H170576   1.803   4.402   0.197 -0.2445 -0.9202  0.3847
16387TIP3    H270577   1.736   4.309   0.098  0.9321  0.1495 -1.4947
16388TIP3   OH270578   4.102   4.936  16.874  0.1088  0.1606  0.5104
16388TIP3    H170579   4.052   4.891  16.942 -0.3735 -1.9018 -1.0881
16388TIP3    H270580   4.039   4.995  16.834 -1.2760 -2.4687 -1.5314
16389TIP3   OH270581   5.698   2.339   2.682 -0.2860  0.4199  0.2545
16389TIP3    H170582   5.609   2.372   2.692 -0.6492  0.2539 -1.9258
16389TIP3    H270583   5.746   2.411   2.642  0.2677  0.1377  0.4088
16390TIP3   OH270584   3.674   5.579   4.789  0.4042 -0.3656 -0.2157
16390TIP3    H170585   3.588   5.546   4.762  0.8602 -0.9304 -1.0499
16390TIP3    H270586   3.711   5.507   4.841 -0.1025  0.3590  1.1827
16391TIP3   OH270587   2.945   2.031   1.108  0.6061 -0.1667  0.1039
16391TIP3    H170588   2.945   1.965   1.038  0.4725 -1.1152  0.9779
16391TIP3    H270589   2.862   2.018   1.154  0.1455  1.2457 -0.2694
16392TIP3   OH270590   1.284   1.260  16.211  0.2361 -0.1096 -0.2473
16392TIP3    H170591   1.331   1.343  16.204  2.3405 -1.2357 -0.4069
16392TIP3    H270592   1.343   1.204  16.262 -0.2035 -2.0989 -1.7861
16393TIP3   OH270593   6.501   2.541  11.344  0.2418 -0.1481 -0.3406
16393TIP3    H170594   6.527   2.542  11.436 -3.0933  3.1881  0.8017
16393TIP3    H270595   6.436   2.471  11.339  0.8465 -0.7252 -0.3728
16394TIP3   OH270596   6.212   6.061  10.255 -0.1630  0.8908  0.0001
16394TIP3    H170597   6.255   6.119  10.191 -0.6426  1.7929  0.4763
16394TIP3    H270598   6.211   5.975  10.213  1.5843  0.9547 -0.2728
16395TIP3   OH270599   0.226   1.963  13.418  0.0565 -0.0733  0.5424
16395TIP3    H170600   0.235   2.059  13.418 -0.0796 -0.0281 -1.2487
16395TIP3    H270601   0.308   1.931  13.381  0.4663 -0.7322  1.9454
16396TIP3   OH270602   3.717   5.614   4.471  0.1593 -0.1573  0.0207
16396TIP3    H170603   3.655   5.686   4.463 -0.2509 -0.3785  1.0388
16396TIP3    H270604   3.665   5.542   4.505  0.6439 -0.8418 -0.6568
16397TIP3   OH270605   1.378   2.116   1.885  0.1099 -0.0365 -0.4626
16397TIP3    H170606   1.340   2.139   1.970 -0.4544  1.4062 -1.0873
16397TIP3    H270607   1.396   2.199   1.843  2.5058 -0.6803 -0.8822
16398TIP3   OH270608   6.251   4.041   0.443 -0.0781 -0.2167  0.2586
16398TIP3    H170609   6.300   3.975   0.393 -0.9406  0.1370 -1.0975
16398TIP3    H270610   6.266   4.123   0.396  0.4121  0.4481  1.5339
16399TIP3   OH270611   5.424   6.717  16.206 -0.1448  0.9184 -0.1551
16399TIP3    H170612   5.391   6.650  16.266  2.1016  0.1039  0.2721
16399TIP3    H270613   5.420   6.798  16.255 -1.7482  0.9247 -0.2457
16400TIP3   OH270614   0.436   0.968  15.304  0.1137  0.1484 -0.5407
16400TIP3    H170615   0.377   0.904  15.263 -2.0368  1.2830  0.6130
16400TIP3    H270616   0.408   1.052  15.269  1.7673  0.6545 -0.7265
16401TIP3   OH270617   3.763   3.147   0.810  0.3702  0.1887 -0.4121
16401TIP3    H170618   3.735   3.225   0.761  0.6763 -0.5372 -1.7919
16401TIP3    H270619   3.690   3.128   0.868 -0.6170  0.2873 -1.5748
16402TIP3   OH270620   3.859   4.909   1.295 -0.1944  0.1023 -0.0704
16402TIP3    H170621   3.924   4.905   1.224 -0.6629  1.0342 -0.5732
16402TIP3    H270622   3.788   4.852   1.265  0.2654 -0.7171  0.3642
16403TIP3   OH270623   3.085   6.339  17.160 -0.3124  0.1899  0.4502
16403TIP3    H170624   2.994   6.346  17.130 -1.7874 -3.3352  3.2795
16403TIP3    H270625   3.137   6.341  17.080 -2.8005  2.3414 -1.2881
16404TIP3   OH270626   2.903   4.649   1.899 -0.2624  0.4979  0.0666
16404TIP3    H170627   2.975   4.612   1.847  0.4641  2.4918 -0.4594
16404TIP3    H270628   2.897   4.592   1.976  0.3123 -1.0605 -1.0018
16405TIP3   OH270629   3.486   3.988  14.614  0.9543  0.3551  0.1953
16405TIP3    H170630   3.527   3.944  14.688  1.4741  0.2806 -0.1316
16405TIP3    H270631   3.526   4.075  14.612  0.2430  0.7110  0.5771
16406TIP3   OH270632   5.746   3.891  11.744 -0.1491 -0.3043  0.4311
16406TIP3    H170633   5.802   3.912  11.669  0.9692  0.1378  1.3617
16406TIP3    H270634   5.659   3.880  11.706  0.5011 -0.7524 -1.0293
16407TIP3   OH270635   3.405   3.168   2.001  0.2767  0.3618 -0.3290
16407TIP3    H170636   3.321   3.126   2.019  0.6292 -0.8727 -1.3766
16407TIP3    H270637   3.401   3.190   1.908  0.5562  1.6727 -0.0602
16408TIP3   OH270638   0.636   1.181  16.992 -0.0750 -0.2579 -0.0094
16408TIP3    H170639   0.688   1.214  16.919 -0.4834 -0.2629 -0.3050
16408TIP3    H270640   0.588   1.258  17.024 -1.1891 -0.5888 -0.8334
16409TIP3   OH270641   5.235   1.087   2.672  0.1852 -0.1955  0.2224
16409TIP3    H170642   5.280   1.049   2.597  0.0528 -1.1032  0.5968
16409TIP3    H270643   5.240   1.020   2.740 -2.9997 -1.0202 -0.1831
16410TIP3   OH270644   5.906   1.474   2.958 -0.2844  0.5147 -0.1378
16410TIP3    H170645   5.868   1.463   3.045 -1.1891 -0.8275 -0.6832
16410TIP3    H270646   5.999   1.454   2.970 -0.1123  1.7974  0.7957
16411TIP3   OH270647   3.406   4.104  16.240  0.5200  0.8086 -0.5217
16411TIP3    H170648   3.318   4.084  16.271  0.0580 -0.8225 -2.7137
16411TIP3    H270649   3.411   4.200  16.245 -0.8409  0.8551  0.9011
16412TIP3   OH270650   4.488   0.411   1.584 -0.0231  0.0895 -0.0277
16412TIP3    H170651   4.514   0.395   1.493 -0.5013 -2.4641  0.2283
16412TIP3    H270652   4.394   0.432   1.578 -0.1222 -0.3620 -0.1164
16413TIP3   OH270653   1.088   0.523   5.201  0.0596  0.0063  0.4681
16413TIP3    H170654   1.050   0.437   5.220 -0.6254  0.0727 -0.5314
16413TIP3    H270655   1.182   0.512   5.214  0.1374 -1.2654 -0.9499
16414TIP3   OH270656   4.500   4.099  14.032  0.4808  0.2447  0.3396
16414TIP3    H170657   4.450   4.169  13.990  1.5046  0.2731 -0.8568
16414TIP3    H270658   4.553   4.143  14.098  0.4208  0.4726  0.2347
16415TIP3   OH270659   1.037   4.876   6.538  0.0881 -0.2707 -0.0422
16415TIP3    H170660   1.030   4.954   6.483  0.0796 -1.1611 -1.3567
16415TIP3    H270661   1.123   4.839   6.516  0.2151 -0.4828  0.7833
16416TIP3   OH270662   6.171   3.512  14.135  0.7806  0.4277  0.4995
16416TIP3    H170663   6.080   3.523  14.107  0.5310  0.5403  1.3217
16416TIP3    H270664   6.223   3.537  14.059  0.1442  1.5120  0.3952
16417TIP3   OH270665   2.687   4.419   2.040  0.3773  0.3000  0.3806
16417TIP3    H170666   2.772   4.391   2.074  1.2377  2.6404  0.3935
16417TIP3    H270667   2.629   4.414   2.116  0.8969  0.1809  0.7824
16418TIP3   OH270668   1.118   3.573  15.796 -0.2806  0.0873  0.1965
16418TIP3    H170669   1.075   3.613  15.720 -0.9414  0.7455  0.8913
16418TIP3    H270670   1.164   3.497  15.761 -0.1034  0.6999 -0.9519
16419TIP3   OH270671   5.418   6.115  15.080 -0.1269 -0.3205  0.0472
16419TIP3    H170672   5.331   6.147  15.102  0.1605  1.7210 -1.4143
16419TIP3    H270673   5.460   6.096  15.164 -1.4922  0.0061  0.8239
16420TIP3   OH270674   6.377   1.857   5.955 -0.3228 -0.4177  0.4671
16420TIP3    H170675   6.387   1.919   6.027 -0.7341  1.5711 -1.0869
16420TIP3    H270676   6.463   1.855   5.913 -0.7461  0.4773 -0.4953
16421TIP3   OH270677   5.649   1.629  13.124  0.1498 -0.4962  0.1163
16421TIP3    H170678   5.685   1.686  13.056 -0.8890  0.0134 -0.0329
16421TIP3    H270679   5.604   1.559  13.076  0.2148 -0.6572  0.2888
16422TIP3   OH270680   4.133   6.176   1.906  0.6134 -0.0305 -0.6804
16422TIP3    H170681   4.106   6.101   1.959  1.3112  0.1701 -0.0231
16422TIP3    H270682   4.143   6.248   1.968  1.4449  0.2092 -1.0702
16423TIP3   OH270683   0.811   0.298  15.220 -0.6665  0.7434 -0.0169
16423TIP3    H170684   0.813   0.219  15.166 -0.6664 -1.2849  2.7315
16423TIP3    H270685   0.903   0.315  15.242 -0.7403  0.9610  0.1295
16424TIP3   OH270686   5.677   6.543   0.759  0.1276  0.1742 -0.1454
16424TIP3    H170687   5.695   6.591   0.841 -2.3718  0.6557  0.2109
16424TIP3    H270688   5.699   6.452   0.779  1.6961  0.6166  0.2927
16425TIP3   OH270689   3.952   1.454  14.805  0.0039 -0.7225  0.6534
16425TIP3    H170690   4.013   1.507  14.753 -0.5147 -1.1045 -0.3676
16425TIP3    H270691   3.866   1.477  14.772 -0.2318 -2.1924  0.2001
16426TIP3   OH270692   0.462   3.632   2.327  0.5369  0.3897 -0.3529
16426TIP3    H170693   0.419   3.705   2.372  1.6220  0.1767  1.1343
16426TIP3    H270694   0.555   3.653   2.332  0.7844 -0.5188 -0.9631
16427TIP3   OH270695   6.017   5.997  11.270 -0.3000 -0.3522 -0.2735
16427TIP3    H170696   6.044   5.926  11.328 -2.9153 -0.7954  0.5474
16427TIP3    H270697   5.968   5.953  11.200 -1.1524  0.5437 -0.2560
16428TIP3   OH270698   4.093   2.742   3.745  0.5528 -0.3500  0.1837
16428TIP3    H170699   4.179   2.707   3.765  1.2765  1.3005  0.1179
16428TIP3    H270700   4.090   2.827   3.789 -1.2574 -0.6025  0.6517
16429TIP3   OH270701   6.282   5.449  11.944 -0.1315 -0.7433 -0.3068
16429TIP3    H170702   6.351   5.402  11.990 -1.1078 -2.2668 -0.3095
16429TIP3    H270703   6.316   5.461  11.855  0.1099 -1.5540 -0.3307
16430TIP3   OH270704   4.299   5.297  16.663 -0.4902 -0.0683 -0.1470
16430TIP3    H170705   4.339   5.322  16.747 -0.4705  1.0501 -0.4722
16430TIP3    H270706   4.205   5.306  16.677 -0.6844 -2.5671  0.5747
16431TIP3   OH270707   0.064   5.632  15.594 -0.0986 -0.2305  0.0707
16431TIP3    H170708   0.138   5.679  15.633 -1.9850  3.1571 -0.0313
16431TIP3    H270709   0.099   5.591  15.515  1.3747  2.7337 -0.9278
16432TIP3   OH270710   6.742   0.367   3.375  0.8669 -0.7186 -0.6951
16432TIP3    H170711   6.759   0.448   3.327 -0.4154  1.8421  2.7144
16432TIP3    H270712   6.647   0.365   3.385  1.0873 -0.2177  2.8037
16433TIP3   OH270713   3.160   2.656   2.025  0.3006 -0.5151  0.4278
16433TIP3    H170714   3.195   2.570   1.999  1.5332  0.6819 -2.2056
16433TIP3    H270715   3.237   2.713   2.031 -0.5126  0.4881  2.0133
16434TIP3   OH270716   2.618   5.265   5.212 -0.4021  0.2104  0.2171
16434TIP3    H170717   2.630   5.222   5.297  1.8701  0.1202 -0.1005
16434TIP3    H270718   2.581   5.198   5.156 -1.3217  0.0855  0.9421
16435TIP3   OH270719   6.680   0.936   5.681  1.0875 -0.4116 -0.5758
16435TIP3    H170720   6.620   0.942   5.756  1.9970 -0.2505  0.1560
16435TIP3    H270721   6.766   0.957   5.717  1.4692  0.1713 -1.7789
16436TIP3   OH270722   1.750   3.500  11.157 -0.6418 -0.4262  0.1111
16436TIP3    H170723   1.760   3.576  11.214 -1.5048 -0.8541  0.8642
16436TIP3    H270724   1.689   3.528  11.089  0.1944  0.0063 -0.4803
16437TIP3   OH270725   0.843   1.062   3.672  0.0578 -0.4348  0.3521
16437TIP3    H170726   0.911   0.995   3.672 -1.2651 -1.8468 -1.0082
16437TIP3    H270727   0.876   1.129   3.611 -0.1428 -1.5429 -1.0146
16438TIP3   OH270728   3.287   4.675   5.016  0.0677 -0.1032 -0.6846
16438TIP3    H170729   3.309   4.727   5.093 -0.6955  0.3469 -0.7559
16438TIP3    H270730   3.348   4.601   5.018 -0.9618 -0.9683  1.2108
16439TIP3   OH270731   6.303   6.355  17.084  0.2077  0.1017  0.4491
16439TIP3    H170732   6.391   6.328  17.107  0.4552  0.4845 -0.0314
16439TIP3    H270733   6.285   6.312  17.001  0.3649  0.8910 -0.0030
16440TIP3   OH270734   4.683   3.478   6.012  0.2266 -0.5060 -0.5588
16440TIP3    H170735   4.657   3.529   6.088 -1.3068  2.2122 -2.7535
16440TIP3    H270736   4.681   3.539   5.939 -0.4017 -3.4112 -3.2034
16441TIP3   OH270737   0.260   2.697   0.845 -0.2787 -0.2310  0.0726
16441TIP3    H170738   0.293   2.786   0.835 -1.1698  0.1450  0.3957
16441TIP3    H270739   0.260   2.682   0.940  0.6825 -0.9040 -0.0135
16442TIP3   OH270740   0.322   6.684  11.455  0.4254  0.2905 -0.1679
16442TIP3    H170741   0.237   6.640  11.456  0.5469 -0.0568  2.8517
16442TIP3    H270742   0.367   6.647  11.378 -2.2915  0.9530 -2.2180
16443TIP3   OH270743   3.890   5.896  14.707 -0.0114  0.4655  0.4687
16443TIP3    H170744   3.871   5.849  14.625  1.4451 -1.7902  1.3136
16443TIP3    H270745   3.966   5.950  14.686  0.4319 -0.1951  0.3188
16444TIP3   OH270746   3.725   4.038  13.302  0.3264 -0.2202 -0.0922
16444TIP3    H170747   3.661   4.006  13.238  1.1182 -1.2843 -0.3856
16444TIP3    H270748   3.686   4.118  13.337 -0.5158 -0.0941 -1.2704
16445TIP3   OH270749   5.658   6.732  12.377  0.3508 -0.4785 -0.5918
16445TIP3    H170750   5.692   6.787  12.447 -0.7883  0.9540 -1.1155
16445TIP3    H270751   5.716   6.750  12.302  0.2836 -0.3685 -0.6176
16446TIP3   OH270752   2.066   5.596   1.349  0.0491 -0.1162 -0.8313
16446TIP3    H170753   2.162   5.596   1.355  0.1043 -0.0224 -1.6286
16446TIP3    H270754   2.039   5.675   1.395  0.1536 -1.5476  1.9626
16447TIP3   OH270755   0.252   0.085   1.185  0.0286 -0.2965  0.2689
16447TIP3    H170756   0.231   0.137   1.262  2.7931 -1.3953  1.9064
16447TIP3    H270757   0.215  -0.002   1.203  1.0892 -0.6899  0.6295
16448TIP3   OH270758   1.341   5.512  12.779 -0.2414 -0.2569  1.1133
16448TIP3    H170759   1.257   5.478  12.809 -0.8672  0.8032  0.6200
16448TIP3    H270760   1.339   5.501  12.683 -0.1438  0.4778  1.0241
16449TIP3   OH270761   0.511   2.834  13.577  0.1829 -0.6636  0.3123
16449TIP3    H170762   0.494   2.756  13.525 -2.0854  0.6918 -1.1744
16449TIP3    H270763   0.448   2.828  13.649 -0.5302  0.1009 -0.2261
16450TIP3   OH270764   5.951   0.955  11.294 -0.6641 -0.0362 -0.6969
16450TIP3    H170765   6.044   0.956  11.319 -0.8089 -1.7613  0.0177
16450TIP3    H270766   5.914   1.029  11.342  0.2384  0.3630 -0.5770
16451TIP3   OH270767   3.547   3.060   1.607 -0.2234 -0.5788 -0.4588
16451TIP3    H170768   3.509   3.144   1.634  0.4832 -0.1120 -0.8925
16451TIP3    H270769   3.640   3.068   1.626  0.0964 -0.7046 -1.8348
16452TIP3   OH270770   6.732   6.003  11.020 -0.1575 -0.0480  0.5768
16452TIP3    H170771   6.640   5.984  11.040  0.1702 -0.1778  2.0994
16452TIP3    H270772   6.776   5.920  11.034  0.0698 -0.2618 -1.1991
16453TIP3   OH270773   2.868   3.706   5.251 -0.3402 -0.5798 -0.6058
16453TIP3    H170774   2.802   3.650   5.209 -1.6598  2.3663 -2.8300
16453TIP3    H270775   2.935   3.718   5.183  1.1638 -1.3290  0.6933
16454TIP3   OH270776   6.248   1.512   4.766  0.6322 -0.0282 -0.0492
16454TIP3    H170777   6.304   1.453   4.815 -1.6009 -0.7523  1.8388
16454TIP3    H270778   6.255   1.596   4.812  0.6255  0.0524 -0.1931
16455TIP3   OH270779   1.889   6.077   0.376 -0.5412 -0.2942  0.1998
16455TIP3    H170780   1.862   5.989   0.404 -1.3104 -0.1479 -0.0698
16455TIP3    H270781   1.933   6.114   0.452 -2.7179  0.1527  1.3229
16456TIP3   OH270782   3.784   0.333   4.266  0.1549 -0.6088  0.3025
16456TIP3    H170783   3.730   0.256   4.250 -0.6118  0.0879 -0.4998
16456TIP3    H270784   3.759   0.362   4.354  0.5461 -1.3418  0.6647
16457TIP3   OH270785   3.321   5.874  14.235 -0.1257  0.2040 -0.1941
16457TIP3    H170786   3.353   5.873  14.145  1.9823 -0.2235  0.5205
16457TIP3    H270787   3.228   5.896  14.227 -0.2241 -0.7960 -2.5317
16458TIP3   OH270788   0.541   1.887   3.946 -0.3487 -0.6093  0.0178
16458TIP3    H170789   0.597   1.949   3.899 -0.1786 -0.9297 -0.2107
16458TIP3    H270790   0.602   1.834   3.997 -0.1514 -2.6063 -2.1204
16459TIP3   OH270791   1.222   2.334  13.997 -0.1875  0.5392 -0.0795
16459TIP3    H170792   1.211   2.290  13.912  1.8822  0.2617 -0.2652
16459TIP3    H270793   1.242   2.263  14.058  1.6624  1.0177 -0.0723
16460TIP3   OH270794   4.353   5.628  14.360 -0.1445 -0.3611 -0.0098
16460TIP3    H170795   4.442   5.598  14.380 -0.4930 -0.1790  1.9836
16460TIP3    H270796   4.298   5.552  14.375 -0.5793  0.1577  1.1277
16461TIP3   OH270797   2.247   0.825   2.127  0.0897 -0.6995 -0.0571
16461TIP3    H170798   2.243   0.802   2.035  1.3569 -0.9376 -0.0755
16461TIP3    H270799   2.228   0.744   2.173  0.2523 -0.7680 -0.1113
16462TIP3   OH270800   2.582   0.393  15.133  0.6424  0.0249 -0.2488
16462TIP3    H170801   2.604   0.446  15.209  3.2231 -2.4127  0.8656
16462TIP3    H270802   2.650   0.413  15.069 -0.5059  0.7215 -1.3228
16463TIP3   OH270803   6.261   2.154   2.430 -0.0707 -0.0582  0.7791
16463TIP3    H170804   6.289   2.098   2.358 -0.9272 -0.5564  0.8159
16463TIP3    H270805   6.194   2.103   2.476  0.8942  0.0044  2.3117
16464TIP3   OH270806   3.364   4.815   6.304  0.4791 -0.1812 -0.4078
16464TIP3    H170807   3.328   4.761   6.374 -0.7699 -0.8821 -1.5279
16464TIP3    H270808   3.456   4.791   6.300  0.3427 -0.8681  0.3273
16465TIP3   OH270809   4.439   4.782  13.191  0.2126 -0.3843  0.2685
16465TIP3    H170810   4.353   4.824  13.201  0.7756  0.7046  0.6567
16465TIP3    H270811   4.424   4.691  13.218 -0.9685 -0.3982 -0.3255
16466TIP3   OH270812   6.354   3.259   3.444  0.6161  0.0213 -0.1183
16466TIP3    H170813   6.431   3.310   3.470  0.8576  0.5368 -1.7009
16466TIP3    H270814   6.319   3.306   3.368 -0.7117 -0.7404 -0.0173
16467TIP3   OH270815   1.385   3.140  12.592  0.1267  0.5119  0.2492
16467TIP3    H170816   1.320   3.084  12.550 -0.7686  0.6344  1.4208
16467TIP3    H270817   1.334   3.212  12.630  1.0730  1.2202  0.2170
16468TIP3   OH270818   2.976   2.713   3.725  0.2602  0.4587 -0.2369
16468TIP3    H170819   3.038   2.708   3.798  2.3285  2.0119 -1.7771
16468TIP3    H270820   2.977   2.625   3.687  2.0235  0.6018 -0.5940
16469TIP3   OH270821   0.356   4.612  16.766 -0.1333 -0.2007  0.1388
16469TIP3    H170822   0.282   4.626  16.825  1.9410 -0.0841  2.9261
16469TIP3    H270823   0.390   4.700  16.748 -0.3219 -0.2867 -0.6876
16470TIP3   OH270824   2.428   5.983  14.279  0.4224  0.5423 -0.1131
16470TIP3    H170825   2.428   6.074  14.310  1.4621  0.6956 -0.5327
16470TIP3    H270826   2.498   5.980  14.214 -0.0815 -0.3891 -0.6319
16471TIP3   OH270827   0.430   6.305  15.476  0.5215  0.1013  0.1602
16471TIP3    H170828   0.480   6.328  15.554  0.5563  1.0676 -0.1368
16471TIP3    H270829   0.491   6.318  15.404  0.5590 -1.0032 -0.0257
16472TIP3   OH270830   0.762   2.178  15.761 -0.2200 -0.4271 -0.0394
16472TIP3    H170831   0.703   2.251  15.742 -0.8145 -1.1111 -0.9181
16472TIP3    H270832   0.848   2.210  15.735 -0.4404  0.0538 -0.1874
16473TIP3   OH270833   0.367   3.831  17.063 -0.2903 -0.6745 -0.1189
16473TIP3    H170834   0.373   3.914  17.111  0.3512 -0.9145  0.2337
16473TIP3    H270835   0.331   3.769  17.127  0.2044 -0.9055 -0.0590
16474TIP3   OH270836   0.210   0.614   2.397  0.0947  0.7940  0.1798
16474TIP3    H170837   0.145   0.555   2.358  0.1477  0.3287  0.7950
16474TIP3    H270838   0.169   0.645   2.478  0.8666  0.0305  0.8806
16475TIP3   OH270839   6.306   1.131  12.278 -0.0468  0.2344 -0.2554
16475TIP3    H170840   6.260   1.085  12.207  0.8037 -0.4588 -0.3793
16475TIP3    H270841   6.245   1.199  12.306  0.5463  2.2636 -3.3787
16476TIP3   OH270842   4.885   0.288   6.059  0.5683  0.3745  0.1891
16476TIP3    H170843   4.795   0.318   6.053  0.2637 -0.7950 -1.7210
16476TIP3    H270844   4.936   0.368   6.071 -0.6652  1.0724  1.0699
16477TIP3   OH270845   5.745   2.323  11.702  0.6351  0.3631 -0.2101
16477TIP3    H170846   5.792   2.334  11.619  2.4758  0.8849  0.8701
16477TIP3    H270847   5.714   2.412  11.723  1.0780  0.4218  0.1889
16478TIP3   OH270848   0.961   6.315  16.652 -0.4177 -0.2552 -0.6364
16478TIP3    H170849   0.883   6.260  16.659 -2.2444  2.2726  0.0185
16478TIP3    H270850   0.997   6.317  16.741 -2.3472  2.2589  0.1736
16479TIP3   OH270851   1.791   3.728  13.758  0.9703  0.5320  0.9024
16479TIP3    H170852   1.768   3.642  13.791  1.6397  0.2639  0.6882
16479TIP3    H270853   1.747   3.734  13.673  1.0824  0.3219  0.8303
16480TIP3   OH270854   3.117   6.031   5.214  0.0490 -0.5924 -0.1967
16480TIP3    H170855   3.195   6.085   5.205 -0.5198  0.5979  1.5854
16480TIP3    H270856   3.134   5.974   5.289  0.1939 -2.2004 -1.3741
16481TIP3   OH270857   4.450   6.542  16.715  0.6942  0.1407  0.4471
16481TIP3    H170858   4.523   6.537  16.776  0.5938  2.2373  0.8430
16481TIP3    H270859   4.490   6.561  16.631  0.7194 -0.8012  0.2424
16482TIP3   OH270860   0.902   1.841   5.001 -0.4499 -0.0548 -0.6049
16482TIP3    H170861   0.929   1.912   5.059 -1.0537 -0.2521 -0.0725
16482TIP3    H270862   0.981   1.787   4.991 -0.2731  0.1178 -0.1670
16483TIP3   OH270863   0.143   5.028   3.719 -0.8590  0.4378 -0.2010
16483TIP3    H170864   0.219   5.076   3.752 -1.8622  1.2514  1.0387
16483TIP3    H270865   0.155   5.027   3.624  0.3892  1.0717 -0.0723
16484TIP3   OH270866   2.923   3.298  12.783 -0.5525  0.3795  0.3299
16484TIP3    H170867   2.852   3.334  12.836 -0.3309  0.9948  0.2136
16484TIP3    H270868   2.998   3.297  12.842 -0.5687  0.0647  0.3441
16485TIP3   OH270869   6.377   3.382  16.300 -0.5422 -0.5301  0.6208
16485TIP3    H170870   6.433   3.334  16.239 -1.9324 -1.3875 -0.0289
16485TIP3    H270871   6.437   3.413  16.368  1.0483  0.3662 -1.0976
16486TIP3   OH270872   2.992   5.554  15.090 -0.3266 -0.6053  0.2075
16486TIP3    H170873   3.083   5.525  15.094 -0.4327 -0.9137  0.4070
16486TIP3    H270874   2.996   5.640  15.048  0.2022  0.0405  1.5198
16487TIP3   OH270875   5.057   1.044   2.327 -0.7489 -0.2880 -0.1745
16487TIP3    H170876   5.110   0.968   2.301  0.1637  0.8731 -1.9023
16487TIP3    H270877   4.977   1.036   2.276 -1.5010 -1.0542  1.0647
16488TIP3   OH270878   1.584   3.070  15.224  0.4495  0.0146 -0.3159
16488TIP3    H170879   1.509   3.126  15.201  1.1934  1.1297 -0.0868
16488TIP3    H270880   1.654   3.131  15.244  0.7525 -0.9645  1.8439
16489TIP3   OH270881   2.843   0.926  12.034  0.2838 -0.2140  0.2121
16489TIP3    H170882   2.759   0.883  12.047 -0.1400 -0.0694 -1.7978
16489TIP3    H270883   2.847   0.991  12.104 -1.7138  0.3979 -0.1798
16490TIP3   OH270884   1.441   4.966   6.483  0.7690 -0.2218 -0.2892
16490TIP3    H170885   1.415   5.033   6.419  0.9883  0.7522  0.6235
16490TIP3    H270886   1.375   4.897   6.473 -0.1102  0.6215 -0.4825
16491TIP3   OH270887   4.001   2.714   2.190 -0.3305 -0.4958  0.2987
16491TIP3    H170888   3.979   2.627   2.156 -0.7309 -0.3637  0.2091
16491TIP3    H270889   3.917   2.760   2.193 -0.5506 -0.9636  2.8542
16492TIP3   OH270890   2.067   1.808   2.386 -0.2084  0.1301  0.1296
16492TIP3    H170891   2.135   1.846   2.330 -0.1630 -0.3169 -0.1201
16492TIP3    H270892   2.001   1.774   2.326 -0.7822  0.7802  0.3760
16493TIP3   OH270893   6.101   2.323   3.148 -0.0100  0.2184 -0.5030
16493TIP3    H170894   6.162   2.279   3.206 -0.6725  0.0758  0.0939
16493TIP3    H270895   6.069   2.255   3.088  1.1571  0.4934 -1.4752
16494TIP3   OH270896   6.626   1.551  11.300  0.2112 -0.0494  0.0402
16494TIP3    H170897   6.587   1.629  11.340  0.4118  0.2411 -0.3231
16494TIP3    H270898   6.559   1.483  11.308  0.3496 -0.0686  1.0975
16495TIP3   OH270899   1.974   4.689  16.859 -0.2691 -0.0926 -0.6594
16495TIP3    H170900   1.887   4.699  16.820  0.1305 -0.0671 -1.5551
16495TIP3    H270901   1.959   4.700  16.953 -1.0076  1.4734 -0.9253
16496TIP3   OH270902   1.741   3.067  16.891  0.3494  0.0369  0.6508
16496TIP3    H170903   1.743   3.095  16.799 -2.7943 -2.3897 -0.3632
16496TIP3    H270904   1.667   3.114  16.929  0.0230 -0.8623  1.1572
16497TIP3   OH270905   2.453   5.717  14.940  0.8443  0.3774  0.5466
16497TIP3    H170906   2.373   5.680  14.904  0.6306  1.9828 -0.7539
16497TIP3    H270907   2.434   5.726  15.034 -0.0936 -0.2378  0.4341
16498TIP3   OH270908   4.091   3.643   2.254 -0.5961  0.0567 -0.4103
16498TIP3    H170909   4.178   3.640   2.213 -0.5712 -0.9034 -0.3029
16498TIP3    H270910   4.032   3.609   2.188 -0.8561  0.4476 -0.3813
16499TIP3   OH270911   3.287   6.126  13.099 -0.1691  0.0848 -0.4633
16499TIP3    H170912   3.234   6.061  13.144 -0.3933  0.4170 -0.2469
16499TIP3    H270913   3.307   6.087  13.014 -1.6489  0.3885 -0.9748
16500TIP3   OH270914   5.456   3.561  15.662  0.3305 -0.4536  0.3304
16500TIP3    H170915   5.526   3.592  15.604  0.9201 -1.5685  0.4277
16500TIP3    H270916   5.502   3.515  15.732 -0.4583 -0.3306  0.9440
16501TIP3   OH270917   0.274   1.327   3.763  0.2662 -0.0418 -0.4496
16501TIP3    H170918   0.333   1.252   3.753 -0.1214 -0.3607 -0.3963
16501TIP3    H270919   0.234   1.314   3.849  0.9031  0.7419 -0.0239
16502TIP3   OH270920   6.340   0.407  13.066 -0.5452 -0.0269  0.4791
16502TIP3    H170921   6.303   0.342  13.007 -1.8173 -0.5200  1.7614
16502TIP3    H270922   6.265   0.458  13.096  0.4524  2.2398 -0.6808
16503TIP3   OH270923   0.529   1.515   0.711  0.6795  0.1612  0.0789
16503TIP3    H170924   0.564   1.439   0.757 -0.0095 -0.1474  0.1025
16503TIP3    H270925   0.435   1.501   0.710  0.5979  0.7203 -0.4473
16504TIP3   OH270926   2.203   0.054   5.209 -0.4945  0.2388 -0.2929
16504TIP3    H170927   2.129   0.012   5.163 -1.3522  0.1906  1.0697
16504TIP3    H270928   2.210   0.006   5.291 -0.3622  1.6607  0.5471
16505TIP3   OH270929   2.655   1.879   3.329  0.2242 -0.3244  0.7467
16505TIP3    H170930   2.602   1.950   3.293 -0.6610 -1.3585 -0.0435
16505TIP3    H270931   2.745   1.912   3.324 -0.0018  0.1274 -1.1164
16506TIP3   OH270932   0.166   4.688   1.525  0.0412  0.8952  0.1876
16506TIP3    H170933   0.235   4.648   1.472 -1.1241 -0.9633 -0.0483
16506TIP3    H270934   0.088   4.686   1.469 -0.4025  2.2049  0.7236
16507TIP3   OH270935   0.127   6.782  14.862 -0.1755  0.1158 -0.2279
16507TIP3    H170936   0.097   6.856  14.808  1.4642 -0.1655 -1.6084
16507TIP3    H270937   0.186   6.821  14.926  0.5756  0.0494 -0.8636
16508TIP3   OH270938   0.771   3.889   5.255  0.3657 -0.2781 -0.7003
16508TIP3    H170939   0.803   3.917   5.169  0.3911 -1.3204 -1.0538
16508TIP3    H270940   0.692   3.838   5.235  1.7546 -2.6846 -0.3498
16509TIP3   OH270941   1.271   3.656   3.071 -0.4016  0.0196 -0.8861
16509TIP3    H170942   1.218   3.721   3.118 -0.2180 -0.0549 -0.5772
16509TIP3    H270943   1.280   3.692   2.982 -0.0050  0.5901 -0.6215
16510TIP3   OH270944   0.617   5.088  10.658  0.2236 -1.2175 -0.0737
16510TIP3    H170945   0.705   5.112  10.686 -0.0817  0.4738 -0.4434
16510TIP3    H270946   0.569   5.171  10.658 -0.4032 -1.4472 -3.3942
16511TIP3   OH270947   3.910   2.360  15.745 -0.3068  0.4370 -0.1428
16511TIP3    H170948   3.828   2.356  15.794 -0.2460  0.0752 -0.0636
16511TIP3    H270949   3.978   2.350  15.811 -0.1825  1.1091 -0.1642
16512TIP3   OH270950   4.196   0.215   0.664  0.2360 -0.2241  0.1186
16512TIP3    H170951   4.266   0.173   0.613  0.3887 -0.4606  0.5143
16512TIP3    H270952   4.147   0.142   0.701  0.8268 -0.0721  1.2538
16513TIP3   OH270953   0.769   6.618   3.425  0.3986  0.6859 -0.4429
16513TIP3    H170954   0.695   6.678   3.423  0.3447  0.6865  0.7977
16513TIP3    H270955   0.737   6.539   3.381 -0.3281  0.7099  0.0289
16514TIP3   OH270956   5.643   6.501  14.436  0.1250 -0.4383 -0.0915
16514TIP3    H170957   5.604   6.580  14.399  0.9542  0.5172  0.9883
16514TIP3    H270958   5.692   6.462  14.364 -1.1238 -0.5426 -0.9083
16515TIP3   OH270959   4.145   3.788   5.222  0.3314 -0.2566  0.5155
16515TIP3    H170960   4.160   3.750   5.308 -1.5363  1.5159  1.6923
16515TIP3    H270961   4.136   3.882   5.237 -0.3263  0.0766 -1.5741
16516TIP3   OH270962   4.120   3.202   4.879  0.0438  0.0446 -0.4094
16516TIP3    H170963   4.201   3.172   4.838  1.7726 -2.3980  3.9923
16516TIP3    H270964   4.063   3.126   4.879 -0.6234  0.5324  0.0211
16517TIP3   OH270965   5.925   0.767  14.754 -0.1402  0.1482 -0.2324
16517TIP3    H170966   5.998   0.753  14.694 -0.0914 -0.1236 -0.1094
16517TIP3    H270967   5.925   0.690  14.811  0.1239  0.6365  0.4453
16518TIP3   OH270968   3.932   1.579  13.003  0.3015  0.2114 -0.4314
16518TIP3    H170969   3.939   1.571  12.908 -1.3445  0.6288 -0.6112
16518TIP3    H270970   3.839   1.570  13.022  0.7269 -1.1802  1.2918
16519TIP3   OH270971   1.487   2.743   0.799 -0.2332  0.3507  0.8977
16519TIP3    H170972   1.457   2.788   0.878  0.9899  0.6951  1.1914
16519TIP3    H270973   1.565   2.694   0.828  1.2208  1.7932 -0.4158
16520TIP3   OH270974   6.386   2.143  15.834  0.4619 -0.1929  0.0030
16520TIP3    H170975   6.377   2.182  15.921  0.0863  1.3777 -0.7043
16520TIP3    H270976   6.459   2.190  15.794  1.3272 -1.6341 -0.1772
16521TIP3   OH270977   1.291   2.087   4.847 -0.3769  0.0943 -0.5813
16521TIP3    H170978   1.325   2.015   4.794  2.2681  1.0405 -0.3345
16521TIP3    H270979   1.342   2.164   4.819 -1.7567  1.4742  0.5039
16522TIP3   OH270980   2.267   5.914  12.936 -0.6424  0.2062 -0.2700
16522TIP3    H170981   2.317   5.863  13.000 -1.2439  0.9496  0.8220
16522TIP3    H270982   2.319   5.909  12.856  0.6382  0.0719  0.5387
16523TIP3   OH270983   6.698   2.766  16.578 -0.3310  0.3140 -0.2107
16523TIP3    H170984   6.646   2.809  16.510 -0.5297  0.3858 -0.0136
16523TIP3    H270985   6.634   2.721  16.633 -0.3440  1.6554  0.9391
16524TIP3   OH270986   6.735   1.040   3.003  0.2171  0.3516 -0.4126
16524TIP3    H170987   6.828   1.062   2.990  0.3147 -0.5440 -1.3953
16524TIP3    H270988   6.710   0.995   2.922 -1.1130  0.6705 -0.1993
16525TIP3   OH270989   3.239   6.630  15.873  0.1221 -0.1111  0.6384
16525TIP3    H170990   3.253   6.567  15.943 -0.3762 -0.3110  0.5642
16525TIP3    H270991   3.144   6.629  15.859  0.2309 -0.1589 -0.1136
16526TIP3   OH270992   3.032   4.967  12.203 -0.1895  0.2702 -0.2365
16526TIP3    H170993   3.023   4.913  12.124 -0.8284  1.9263 -1.3472
16526TIP3    H270994   3.104   5.027  12.183  1.1292 -0.6901  1.3399
16527TIP3   OH270995   1.074   3.812  14.079 -0.2731  0.2381  0.2184
16527TIP3    H170996   1.107   3.741  14.134  1.0003  0.7375  0.1330
16527TIP3    H270997   1.078   3.889  14.135  0.1233  0.5762 -0.2658
16528TIP3   OH270998   3.644   2.649   1.194  0.4307 -0.1032 -0.6903
16528TIP3    H170999   3.623   2.684   1.281 -2.1702 -0.3152 -1.1545
16528TIP3    H271000   3.562   2.658   1.144  1.6706 -0.5636 -2.9362
16529TIP3   OH271001   4.949   1.079  10.913  0.4078  0.1708 -0.2741
16529TIP3    H171002   4.864   1.060  10.874 -0.3589 -0.1614  1.4798
16529TIP3    H271003   4.970   1.168  10.883 -0.4554  0.1785 -0.8714
16530TIP3   OH271004   3.511   6.137  16.198  0.1209 -0.0264  0.2409
16530TIP3    H171005   3.568   6.181  16.135 -0.0431  0.5154  0.4661
16530TIP3    H271006   3.529   6.044  16.186 -0.4910  0.0144 -1.1699
16531TIP3   OH271007   4.977   1.214   4.959  0.0649 -0.1675 -0.5314
16531TIP3    H171008   4.908   1.228   5.024  0.0116 -0.0290 -0.6160
16531TIP3    H271009   4.956   1.130   4.919 -0.0922 -0.0940 -0.6027
16532TIP3   OH271010   2.120   1.410  16.684  0.5623 -0.0005  0.2589
16532TIP3    H171011   2.179   1.377  16.752  1.6042  1.5492  0.1672
16532TIP3    H271012   2.174   1.470  16.632 -0.8861  0.8729 -0.3163
16533TIP3   OH271013   1.077   0.050   0.443  0.3660 -0.9015 -0.4851
16533TIP3    H171014   1.049   0.024   0.531  1.4153 -1.6241 -0.3409
16533TIP3    H271015   1.003   0.027   0.386  0.0856 -1.3987  0.0741
16534TIP3   OH271016   5.023   0.563   4.319 -0.2505  0.3449  0.4263
16534TIP3    H171017   4.937   0.531   4.346 -0.7550  0.0350 -1.3650
16534TIP3    H271018   5.067   0.587   4.400 -1.3166 -1.2592  1.5368
16535TIP3   OH271019   4.897   4.459  13.467  0.3407  0.3256 -0.3282
16535TIP3    H171020   4.862   4.430  13.551  0.3931 -0.3121 -0.5177
16535TIP3    H271021   4.981   4.413  13.459 -0.2400 -0.6229 -1.2883
16536TIP3   OH271022   4.397   2.002  13.127  0.2512 -0.0157  0.2104
16536TIP3    H171023   4.480   1.999  13.175 -0.0056 -1.1525  0.6250
16536TIP3    H271024   4.422   1.999  13.035  0.6709 -1.4088  0.3407
16537TIP3   OH271025   3.962   0.366   0.055 -0.5319 -0.0569 -0.5822
16537TIP3    H171026   3.924   0.284   0.085  1.6923 -0.3599  1.7963
16537TIP3    H271027   4.021   0.341  -0.017 -0.5046 -0.4231 -0.4334
16538TIP3   OH271028   3.280   6.242   5.224  0.1371  0.2660  0.2438
16538TIP3    H171029   3.338   6.250   5.148 -1.0617  0.4190 -0.6721
16538TIP3    H271030   3.221   6.316   5.218  1.1261  1.3007  2.3432
16539TIP3   OH271031   0.772   5.025  13.263  0.3746  0.2617 -0.2391
16539TIP3    H171032   0.841   5.080  13.225 -0.3808  2.4503  1.3163
16539TIP3    H271033   0.761   5.059  13.352 -0.2145 -2.4458  0.8064
16540TIP3   OH271034   2.679   0.158   5.394 -0.6947  0.1535 -0.2631
16540TIP3    H171035   2.660   0.250   5.412 -2.0492  0.1007 -1.2378
16540TIP3    H271036   2.755   0.160   5.337 -2.6485  0.9414 -3.0674
16541TIP3   OH271037   5.827   3.516  12.844  0.6814  0.1334  0.7943
16541TIP3    H171038   5.904   3.536  12.896  2.6461  1.2683 -2.3182
16541TIP3    H271039   5.858   3.511  12.754 -2.7181 -0.3741 -0.5268
16542TIP3   OH271040   1.197   0.841   3.276 -0.0475  0.5297  0.4680
16542TIP3    H171041   1.123   0.818   3.220  1.3792 -1.9639 -0.6304
16542TIP3    H271042   1.220   0.930   3.251 -0.1137 -0.1286 -2.2917
16543TIP3   OH271043   5.571   1.556  10.579  0.7516  0.5540 -0.2102
16543TIP3    H171044   5.584   1.461  10.567 -1.4068  0.0979  0.6827
16543TIP3    H271045   5.491   1.563  10.631 -0.8660  2.9512 -2.7500
16544TIP3   OH271046   3.526   2.277   3.703 -0.5640 -0.1747  0.1709
16544TIP3    H171047   3.440   2.312   3.724 -1.2657 -2.0307  0.5511
16544TIP3    H271048   3.524   2.186   3.733  1.3987 -0.3831 -0.1502
16545TIP3   OH271049   5.260   4.309  15.740 -0.1608  0.2355 -0.2220
16545TIP3    H171050   5.355   4.298  15.733 -0.0857  1.1372 -0.7485
16545TIP3    H271051   5.248   4.366  15.816 -0.2807  0.0379 -0.0943
16546TIP3   OH271052   1.720   5.755   0.059 -0.1661  0.6961  0.8551
16546TIP3    H171053   1.791   5.718   0.111  0.7044  1.1343  0.0100
16546TIP3    H271054   1.643   5.703   0.084  1.1605 -2.5159 -1.1037
16547TIP3   OH271055   2.381   2.955   4.822  0.4720 -0.1681  0.2267
16547TIP3    H171056   2.396   2.988   4.911  1.8012 -0.2884  0.0755
16547TIP3    H271057   2.299   2.907   4.828  0.3549  0.1261  1.3095
16548TIP3   OH271058   3.726   2.970  14.919  0.1984  0.5479 -0.2049
16548TIP3    H171059   3.790   2.977  14.990  1.5048  0.3331 -1.3338
16548TIP3    H271060   3.697   2.879  14.920  1.2187  0.2059 -0.7764
16549TIP3   OH271061   2.751   0.269  11.404 -0.1351  0.0077  0.0679
16549TIP3    H171062   2.795   0.190  11.436  1.2076  0.9728  0.7204
16549TIP3    H271063   2.663   0.240  11.379  0.4525 -1.7445 -0.0534
16550TIP3   OH271064   6.332   5.262  12.502 -0.9489  0.6183  0.7672
16550TIP3    H171065   6.376   5.219  12.430  1.8661 -0.7017  3.0818
16550TIP3    H271066   6.253   5.210  12.517  0.3622 -1.4148  0.9594
16551TIP3   OH271067   6.186   2.028   2.796 -0.6249  0.6661 -0.8735
16551TIP3    H171068   6.140   1.983   2.726 -0.4301  1.0475 -1.2512
16551TIP3    H271069   6.260   1.971   2.817 -0.9473  0.3243 -0.6497
16552TIP3   OH271070   0.695   6.127   5.664 -0.3248 -0.3995 -0.1171
16552TIP3    H171071   0.747   6.047   5.672 -2.1141 -1.7124 -0.8866
16552TIP3    H271072   0.605   6.098   5.679 -0.8381  1.8841  1.7490
16553TIP3   OH271073   4.346   3.544   1.828  0.3783 -0.0642  0.0499
16553TIP3    H171074   4.270   3.532   1.770 -0.6856 -0.2727  1.4397
16553TIP3    H271075   4.311   3.530   1.916  1.6539  1.5831  0.8637
16554TIP3   OH271076   0.054   4.290   0.058  0.0665  0.2969  0.3369
16554TIP3    H171077   0.091   4.204   0.078  1.6094  0.7189 -0.5144
16554TIP3    H271078   0.040   4.290  -0.036  0.5419  1.1298  0.2508
16555TIP3   OH271079   3.821   3.117  10.888 -0.4834  0.0693 -0.1735
16555TIP3    H171080   3.876   3.179  10.935 -0.6128 -0.2119  0.3532
16555TIP3    H271081   3.882   3.051  10.855 -0.6717 -1.4130  2.2060
16556TIP3   OH271082   5.174   1.210  11.804  0.4655 -0.1064  0.2024
16556TIP3    H171083   5.196   1.159  11.726 -0.5534 -0.9730  0.4535
16556TIP3    H271084   5.180   1.301  11.776  1.6337 -0.3654 -0.4526
16557TIP3   OH271085   0.664   5.155   5.922 -0.3807  0.4892 -0.0844
16557TIP3    H171086   0.727   5.187   5.986  0.0083 -0.2717 -0.0681
16557TIP3    H271087   0.619   5.233   5.891 -0.6154  0.8606  1.1550
16558TIP3   OH271088   0.299   4.637  14.539 -0.1347 -0.3752  0.1162
16558TIP3    H171089   0.261   4.714  14.580  1.0435  0.3135 -0.0433
16558TIP3    H271090   0.295   4.655  14.445  1.6467  0.2712  0.1245
16559TIP3   OH271091   4.597   6.008   4.182  0.4639 -0.2904 -0.0873
16559TIP3    H171092   4.505   6.000   4.208  0.4569 -1.1998 -0.3730
16559TIP3    H271093   4.610   5.941   4.115  1.5257 -0.6879  0.4846
16560TIP3   OH271094   5.913   1.890  10.993 -0.5222 -0.3872  0.7266
16560TIP3    H171095   5.962   1.972  10.992  0.8227 -1.1647  0.0205
16560TIP3    H271096   5.976   1.824  10.965 -1.2890 -1.8266  2.2151
16561TIP3   OH271097   6.667   3.595  12.325  0.2467  1.3316 -0.1042
16561TIP3    H171098   6.601   3.587  12.394  0.0257  1.4859 -0.2945
16561TIP3    H271099   6.734   3.652  12.362  0.2659  1.1885  0.0834
16562TIP3   OH271100   3.315   1.597  12.712 -0.4227  0.3589  0.1721
16562TIP3    H171101   3.291   1.509  12.740  0.4846  0.7047  2.2063
16562TIP3    H271102   3.368   1.584  12.634 -1.2510 -0.8020 -0.2349
16563TIP3   OH271103   1.013   3.100  14.091  0.3455 -0.6480 -0.3589
16563TIP3    H171104   0.965   3.173  14.130  0.5775 -0.4541 -0.4375
16563TIP3    H271105   1.023   3.124  13.999 -1.4153 -1.7261 -0.8775
16564TIP3   OH271106   3.134   0.612   5.592 -0.0051 -0.1073 -0.2635
16564TIP3    H171107   3.047   0.572   5.596 -0.0758  0.1527  2.4915
16564TIP3    H271108   3.119   0.705   5.608  0.7223  0.0229 -0.2817
16565TIP3   OH271109   4.951   2.556   0.803 -0.5352 -0.5709  0.2601
16565TIP3    H171110   4.971   2.582   0.713 -2.4423 -0.5666 -0.1995
16565TIP3    H271111   5.030   2.577   0.852  0.2479  0.1851 -1.2633
16566TIP3   OH271112   4.774   0.639  14.408  0.3868 -0.0903 -0.6666
16566TIP3    H171113   4.821   0.663  14.328 -1.1615  2.2945 -0.9537
16566TIP3    H271114   4.788   0.713  14.467 -0.8833 -0.4931  0.1814
16567TIP3   OH271115   2.173   5.159   3.555  0.4560 -0.0862 -0.2686
16567TIP3    H171116   2.211   5.190   3.637  0.3417 -1.3864  0.2986
16567TIP3    H271117   2.246   5.159   3.493  1.3290 -2.0686  0.6735
16568TIP3   OH271118   4.249   3.565  13.710 -0.1550 -0.0364 -0.3518
16568TIP3    H171119   4.246   3.543  13.617 -0.2386 -0.7461 -0.1805
16568TIP3    H271120   4.330   3.616  13.720  0.1380 -0.4229 -0.7159
16569TIP3   OH271121   4.265   3.433  13.482 -0.3698  0.1674  0.1051
16569TIP3    H171122   4.315   3.375  13.425  1.3512  0.4312  1.2918
16569TIP3    H271123   4.226   3.374  13.546  3.0258  0.3272  2.5568
16570TIP3   OH271124   5.684   5.348  15.288  0.4400 -0.0294  0.1907
16570TIP3    H171125   5.590   5.330  15.286  0.7312 -1.5293 -1.1654
16570TIP3    H271126   5.691   5.440  15.263 -0.7215  0.5342  1.7369
16571TIP3   OH271127   4.988   0.441   0.608 -0.1318  0.1309  0.4111
16571TIP3    H171128   4.963   0.493   0.684  0.5022 -1.2332  1.5731
16571TIP3    H271129   4.972   0.351   0.634  0.7840 -0.4081 -0.8148
16572TIP3   OH271130   6.527   0.800  15.656 -0.2359 -0.1923 -0.4178
16572TIP3    H171131   6.436   0.768  15.655 -1.1274  1.5992  3.3490
16572TIP3    H271132   6.560   0.773  15.742  2.5600 -0.0311 -1.3599
16573TIP3   OH271133   3.289   5.440  15.782  0.5643  0.5257 -0.2508
16573TIP3    H171134   3.266   5.411  15.870 -0.3873  1.1518 -0.2812
16573TIP3    H271135   3.295   5.359  15.731 -1.1072  0.2583 -0.1066
16574TIP3   OH271136   0.896   3.238   4.397 -0.2048 -0.2704 -0.2866
16574TIP3    H171137   0.826   3.290   4.357  0.4518  0.5688 -0.3630
16574TIP3    H271138   0.926   3.290   4.471  0.6622 -0.3862 -0.5402
16575TIP3   OH271139   3.965   4.754   5.530  0.4462  0.0017  0.0097
16575TIP3    H171140   3.923   4.698   5.596  1.1884 -0.2458  0.2956
16575TIP3    H271141   4.021   4.812   5.582  1.0847 -0.2374 -0.4025
16576TIP3   OH271142   0.063   4.641  13.394 -0.1874 -0.1620  0.7037
16576TIP3    H171143   0.113   4.639  13.312  0.5619 -0.6358  1.1596
16576TIP3    H271144   0.004   4.565  13.389  0.6439 -0.8481  1.0733
16577TIP3   OH271145   5.360   2.678   0.680  0.0903  0.8463 -0.4184
16577TIP3    H171146   5.269   2.692   0.652  0.1504 -0.0871 -1.1512
16577TIP3    H271147   5.359   2.593   0.724  0.6267  0.7608 -0.5586
16578TIP3   OH271148   1.918   5.061  12.022  0.0123 -0.3765 -0.2304
16578TIP3    H171149   1.888   5.129  11.961  0.7924  0.2345  0.0563
16578TIP3    H271150   1.972   5.107  12.085  0.3605 -1.2303  0.1116
16579TIP3   OH271151   3.614   3.540   1.655  0.1891  0.2737 -0.2350
16579TIP3    H171152   3.682   3.598   1.619  0.3788  0.4700  0.4338
16579TIP3    H271153   3.622   3.549   1.750 -0.5433  0.0225 -0.1443
16580TIP3   OH271154   4.574   2.439   1.905 -0.2165  0.3301 -0.0606
16580TIP3    H171155   4.601   2.382   1.833 -1.0442  1.5009 -1.3525
16580TIP3    H271156   4.649   2.498   1.919 -0.2571  0.4483 -0.3381
16581TIP3   OH271157   2.581   0.536  10.905 -0.2086 -0.1604 -0.8997
16581TIP3    H171158   2.538   0.460  10.866  0.2557 -0.6649 -0.4542
16581TIP3    H271159   2.660   0.500  10.946 -0.2438  0.4905 -0.2480
16582TIP3   OH271160   5.641   0.278   3.812 -0.1650  0.2655 -0.3747
16582TIP3    H171161   5.665   0.200   3.761 -0.3543  0.0043 -0.0723
16582TIP3    H271162   5.643   0.248   3.903 -1.0773  0.3822 -0.3073
16583TIP3   OH271163   2.288   3.800   5.279 -0.1906  0.0221  0.5403
16583TIP3    H171164   2.369   3.851   5.280 -0.5481  0.5933  0.4101
16583TIP3    H271165   2.282   3.763   5.367  0.2553 -0.0938  0.5260
16584TIP3   OH271166   5.515   1.431  15.008 -0.3740  0.2409  0.1697
16584TIP3    H171167   5.601   1.456  15.041 -0.3654  0.1962  0.1823
16584TIP3    H271168   5.519   1.448  14.914 -0.0004 -0.7581  0.0005
16585TIP3   OH271169   3.402   4.380  17.231  0.1637 -0.5071  0.3391
16585TIP3    H171170   3.456   4.320  17.180  2.0327  0.8938  0.5649
16585TIP3    H271171   3.437   4.374  17.320 -1.0304 -0.6313  0.8189
16586TIP3   OH271172   0.159   0.248  11.598  0.3970 -0.1597 -0.2558
16586TIP3    H171173   0.183   0.310  11.667 -0.9493 -0.5313  0.5879
16586TIP3    H271174   0.236   0.193  11.586  2.1404  2.3865 -1.9101
16587TIP3   OH271175   6.734   1.646   0.486 -0.0997 -0.2166 -0.0867
16587TIP3    H171176   6.778   1.676   0.566  0.0766 -0.7916  0.0349
16587TIP3    H271177   6.763   1.707   0.418 -0.4079  0.4018  0.3178
16588TIP3   OH271178   2.929   6.301   0.438  0.1827 -0.3478 -0.3730
16588TIP3    H171179   2.938   6.395   0.455  2.1321 -0.7812  1.5067
16588TIP3    H271180   2.835   6.287   0.425 -0.3086  1.6615  0.6617
16589TIP3   OH271181   1.987   4.747  13.132 -0.1119 -0.5232  0.3245
16589TIP3    H171182   2.038   4.684  13.184  0.7519  0.6921  1.0112
16589TIP3    H271183   1.896   4.721  13.146  0.1758 -1.1059  1.2759
16590TIP3   OH271184   1.471   6.734  14.030  0.3367  0.4019  0.2586
16590TIP3    H171185   1.528   6.697  14.098  1.2450 -1.7947 -1.5856
16590TIP3    H271186   1.387   6.746  14.074  1.5372  1.5413  2.4253
16591TIP3   OH271187   3.464   6.087   3.602 -0.7683  0.3772 -0.3062
16591TIP3    H171188   3.481   5.995   3.621 -0.5120  0.0665 -1.9042
16591TIP3    H271189   3.381   6.087   3.553 -0.1193  0.8403 -1.4435
16592TIP3   OH271190   0.372   5.414  13.207 -0.0583 -0.5010  0.1794
16592TIP3    H171191   0.392   5.325  13.177 -0.7664 -0.5186 -0.2667
16592TIP3    H271192   0.303   5.402  13.272  0.1979 -0.3134  0.4883
16593TIP3   OH271193   2.095   3.941  16.593 -0.0751 -0.2036 -0.0370
16593TIP3    H171194   2.176   3.889  16.588 -0.1204 -0.4399  1.3415
16593TIP3    H271195   2.105   3.992  16.673 -0.4758  1.2051 -0.8618
16594TIP3   OH271196   5.414   2.947   2.752  0.3395  0.6496 -0.1111
16594TIP3    H171197   5.391   2.995   2.832 -0.2492 -0.7903  0.6144
16594TIP3    H271198   5.508   2.932   2.760  0.9793  3.4319 -1.3583
16595TIP3   OH271199   0.460   0.501   2.419  0.1337  0.4156  0.0576
16595TIP3    H171200   0.368   0.524   2.433  0.3131  0.5976  0.9772
16595TIP3    H271201   0.489   0.563   2.351 -0.5187  0.0913 -0.5348
16596TIP3   OH271202   2.177   1.864  10.658  0.4673 -0.0126  0.7120
16596TIP3    H171203   2.168   1.786  10.713 -1.9846  0.5429  1.2481
16596TIP3    H271204   2.153   1.834  10.570  0.7974 -0.1419  0.6673
16597TIP3   OH271205   4.343   1.289  15.987 -0.4699  0.1868 -0.1092
16597TIP3    H171206   4.281   1.246  16.046 -0.7590 -2.1894 -1.9723
16597TIP3    H271207   4.289   1.342  15.929 -0.9144 -1.9340 -1.7747
16598TIP3   OH271208   3.090   4.805  15.388  0.9665  0.8715  0.0645
16598TIP3    H171209   3.063   4.806  15.296  0.0877 -1.5728  0.1945
16598TIP3    H271210   3.185   4.791  15.386  0.6058 -2.3794 -0.6264
16599TIP3   OH271211   6.151   6.530  15.100 -0.4192 -0.1884  0.1451
16599TIP3    H171212   6.198   6.594  15.045 -0.9444  0.3546  0.3117
16599TIP3    H271213   6.111   6.470  15.037  0.4951 -0.6642  0.0019
16600TIP3   OH271214   3.335   5.656   4.633 -0.4745  0.2269 -0.0363
16600TIP3    H171215   3.387   5.578   4.650  0.0790 -0.2354 -3.2316
16600TIP3    H271216   3.389   5.708   4.573 -2.1861  1.4760 -0.5876
16601TIP3   OH271217   4.554   0.185  12.003 -0.3788 -0.0329  0.0835
16601TIP3    H171218   4.618   0.200  12.072 -0.2563 -0.4385  0.0612
16601TIP3    H271219   4.524   0.272  11.978  0.8930  0.2204 -0.6035
16602TIP3   OH271220   6.721   6.744   4.909 -0.2016 -0.8442 -0.3008
16602TIP3    H171221   6.779   6.820   4.915  0.4808 -1.2452 -1.5000
16602TIP3    H271222   6.667   6.749   4.988  1.1462 -0.1990  0.6248
16603TIP3   OH271223   6.031   4.800   3.017  0.1539 -0.4756  0.3505
16603TIP3    H171224   6.105   4.738   3.012  0.0938 -0.6390  1.2403
16603TIP3    H271225   6.002   4.810   2.927  0.7326 -1.0689  0.0862
16604TIP3   OH271226   0.559   2.486   1.363 -0.4929  0.0458  0.1072
16604TIP3    H171227   0.579   2.576   1.335  2.3618 -0.3381  0.6051
16604TIP3    H271228   0.467   2.474   1.339 -0.1745  2.0860 -2.7294
16605TIP3   OH271229   4.807   0.337  13.562 -0.0407 -0.4560  0.0895
16605TIP3    H171230   4.774   0.375  13.481  0.5992 -0.3154 -0.1143
16605TIP3    H271231   4.797   0.243  13.550 -2.6592 -0.3525  1.0426
16606TIP3   OH271232   5.983   0.051  13.637 -0.5295  0.3955 -0.1589
16606TIP3    H171233   6.017  -0.030  13.598 -3.1158  0.0064 -1.8853
16606TIP3    H271234   5.970   0.030  13.729  0.0038 -0.7491 -0.3277
16607TIP3   OH271235   0.091   5.947  14.527  0.1260 -0.0959  0.0295
16607TIP3    H171236   0.142   5.869  14.548  0.0374 -0.0956  0.2426
16607TIP3    H271237   0.054   5.975  14.610  0.2358  0.2308 -0.0303
16608TIP3   OH271238   2.692   1.020  14.575  0.7430  0.5318  0.5354
16608TIP3    H171239   2.684   0.935  14.531  0.4610  0.8570 -0.0417
16608TIP3    H271240   2.606   1.060  14.567  0.8010  0.7682  1.0371
16609TIP3   OH271241   5.131   4.378   4.969  0.4785  0.1884  0.4942
16609TIP3    H171242   5.148   4.335   5.052  0.8197  0.4052  0.5387
16609TIP3    H271243   5.139   4.472   4.988 -3.7395  0.5919  1.2626
16610TIP3   OH271244   1.928   2.075  12.783  0.0978 -0.5896 -0.1883
16610TIP3    H171245   1.843   2.114  12.806  0.9018  1.7901 -0.9875
16610TIP3    H271246   1.990   2.147  12.789  1.9316 -2.0613 -0.5589
16611TIP3   OH271247   4.156   4.427   0.133  0.6450 -0.2891  0.0979
16611TIP3    H171248   4.214   4.370   0.182  0.3584 -0.3698  0.3527
16611TIP3    H271249   4.090   4.455   0.197 -0.0656 -0.8435 -0.3739
16612TIP3   OH271250   4.719   5.041   3.003 -0.6318 -0.3842  0.5582
16612TIP3    H171251   4.656   4.986   3.051  0.4429 -1.2220  1.0494
16612TIP3    H271252   4.722   5.122   3.054 -0.6851 -0.6614  1.0126
16613TIP3   OH271253   2.442   4.450   3.697  0.0565 -0.4437 -0.6337
16613TIP3    H171254   2.415   4.385   3.632 -0.9787 -0.8932  0.2119
16613TIP3    H271255   2.360   4.481   3.735  0.5695  0.9304 -0.6013
16614TIP3   OH271256   6.099   1.907   6.336 -0.1955  0.3380 -0.2448
16614TIP3    H171257   6.019   1.908   6.284 -1.2119  0.3307  1.2706
16614TIP3    H271258   6.080   1.847   6.408  1.0746  0.5641  0.3069
16615TIP3   OH271259   4.993   6.211  17.098 -0.1316  1.1238  0.1856
16615TIP3    H171260   4.997   6.152  17.173 -0.9997 -1.3550 -1.5772
16615TIP3    H271261   5.056   6.175  17.036 -1.3211  1.4964 -1.2857
16616TIP3   OH271262   6.234   4.611   3.002  0.6039 -0.4382 -0.1868
16616TIP3    H171263   6.306   4.577   3.055 -0.9632 -3.2294  0.3369
16616TIP3    H271264   6.245   4.569   2.916 -0.8982 -1.7215  0.2026
16617TIP3   OH271265   3.825   5.212  11.265 -0.5338 -0.4173 -0.0903
16617TIP3    H171266   3.797   5.300  11.243 -0.4575 -0.4926 -0.4955
16617TIP3    H271267   3.865   5.220  11.352 -0.3188 -0.0141 -0.2258
16618TIP3   OH271268   3.068   2.894  15.028 -1.1215 -0.0771  0.0126
16618TIP3    H171269   3.102   2.965  15.083 -2.4251  0.3120  0.3612
16618TIP3    H271270   3.146   2.848  14.997 -0.3005 -0.7833  2.8000
16619TIP3   OH271271   4.598   3.808   3.530  0.4477  0.3913  0.0014
16619TIP3    H171272   4.575   3.796   3.622 -0.7859 -0.1152 -0.3579
16619TIP3    H271273   4.671   3.870   3.532  1.3972 -0.7071  1.4030
16620TIP3   OH271274   5.241   0.194  13.596  0.2313  0.5061  0.2651
16620TIP3    H171275   5.316   0.253  13.602  0.6080  0.0763 -0.0802
16620TIP3    H271276   5.273   0.121  13.542 -0.2498  0.0410  0.5983
16621TIP3   OH271277   4.106   4.945  12.118  0.4947  0.9169 -0.4237
16621TIP3    H171278   4.036   4.940  12.053  1.1775  0.3732 -1.1362
16621TIP3    H271279   4.160   5.019  12.088 -1.4232  3.4545  1.8449
16622TIP3   OH271280   5.791   1.915   0.992  0.4068 -0.3693  0.0177
16622TIP3    H171281   5.776   1.998   0.948  1.8646  0.3594  0.8123
16622TIP3    H271282   5.872   1.929   1.042  1.2680 -2.5861 -0.6386
16623TIP3   OH271283   0.443   3.725  14.226  0.1809  0.0646 -0.1309
16623TIP3    H171284   0.468   3.686  14.310  0.1888 -0.2146 -0.2604
16623TIP3    H271285   0.494   3.806  14.222  0.1512  0.0990  0.1511
16624TIP3   OH271286   5.114   4.802   5.330  0.4841  0.1238 -0.2997
16624TIP3    H171287   5.073   4.731   5.281 -0.4105  0.5229 -0.1457
16624TIP3    H271288   5.090   4.785   5.421 -0.2026  0.9159 -0.3209
16625TIP3   OH271289   6.151   4.190   3.003 -0.6323 -0.3979  0.3998
16625TIP3    H171290   6.229   4.179   3.057 -0.4062 -2.1105 -0.2229
16625TIP3    H271291   6.107   4.266   3.041  1.2359  0.5280  0.8609
16626TIP3   OH271292   2.947   0.477   0.045 -0.3690  0.4226 -0.1784
16626TIP3    H171293   2.894   0.504  -0.029 -2.3147 -0.0935  0.9495
16626TIP3    H271294   3.002   0.406   0.011  0.6194  1.8676 -1.7041
16627TIP3   OH271295   6.113   1.482  14.313  0.2427  0.3213  0.1614
16627TIP3    H171296   6.025   1.466  14.278  0.9038  0.2132 -1.5779
16627TIP3    H271297   6.168   1.418  14.269  0.8412 -1.4992  3.2869
16628TIP3   OH271298   0.139   2.082  12.100  0.1565  0.4284 -0.3595
16628TIP3    H171299   0.101   2.115  12.182  0.0961 -0.4067 -0.0434
16628TIP3    H271300   0.116   2.148  12.035 -1.2170  0.3164 -0.0260
16629TIP3   OH271301   3.665   2.193   3.222 -0.1423  0.0228 -0.7233
16629TIP3    H171302   3.636   2.236   3.302 -1.5343 -0.5196 -0.9095
16629TIP3    H271303   3.745   2.238   3.198  0.1598  0.3643  0.8315
16630TIP3   OH271304   2.175   1.211   5.429  0.0172  0.4996 -0.0558
16630TIP3    H171305   2.241   1.142   5.431  0.0562  0.5505  0.8066
16630TIP3    H271306   2.221   1.287   5.392  0.2259  0.3231 -0.1597
16631TIP3   OH271307   1.459   5.365  12.255 -0.2986 -0.5747 -0.5418
16631TIP3    H171308   1.462   5.426  12.329 -0.2302  0.6931 -1.5499
16631TIP3    H271309   1.449   5.279  12.295 -1.4895  0.1908  0.9004
16632TIP3   OH271310   3.022   3.198   0.651 -0.2732 -0.3770  0.0734
16632TIP3    H171311   3.002   3.105   0.657  0.7163 -0.6739 -0.8245
16632TIP3    H271312   3.077   3.205   0.573  0.8834  0.7462  0.9499
16633TIP3   OH271313   3.294   4.489   0.436 -0.3490 -0.4143  0.2309
16633TIP3    H171314   3.287   4.529   0.349 -0.1591  1.9304  1.2131
16633TIP3    H271315   3.210   4.508   0.477  0.5844  1.1579  1.5475
16634TIP3   OH271316   0.925   3.855  16.431  0.6375  0.0256  0.0957
16634TIP3    H171317   0.885   3.769  16.443 -0.7332  0.3871 -1.4718
16634TIP3    H271318   0.970   3.850  16.347 -0.4806  1.1425 -0.6212
16635TIP3   OH271319   4.942   3.038   1.369  0.2318 -0.2173 -0.2926
16635TIP3    H171320   4.864   3.080   1.403  1.0477  0.5641  0.6648
16635TIP3    H271321   5.011   3.060   1.432  1.5294  0.2809 -1.8099
16636TIP3   OH271322   4.898   2.454  14.807 -0.0831 -0.2310 -0.0341
16636TIP3    H171323   4.839   2.528  14.789  0.6912  0.6144  0.7839
16636TIP3    H271324   4.866   2.384  14.751 -2.0048  0.1315  0.5281
16637TIP3   OH271325   2.230   2.187  11.477  0.7523  0.5670 -0.2208
16637TIP3    H171326   2.319   2.163  11.452  0.4738 -0.4725 -0.2247
16637TIP3    H271327   2.185   2.104  11.492  0.3620  1.0910  1.8253
16638TIP3   OH271328   1.887   6.155  17.172 -0.7320  0.1107 -0.1107
16638TIP3    H171329   1.940   6.157  17.092  0.1987 -0.4294  0.4792
16638TIP3    H271330   1.905   6.069  17.210  0.8626  1.2901  2.0120
16639TIP3   OH271331   3.928   0.567  11.993  0.0162  0.3351 -0.3846
16639TIP3    H171332   3.966   0.641  11.947 -0.6098  0.6255 -0.4504
16639TIP3    H271333   3.848   0.602  12.033 -0.9974 -0.6069 -1.5148
16640TIP3   OH271334   6.733   3.568   0.181 -0.3248  0.3876 -0.5044
16640TIP3    H171335   6.801   3.573   0.248 -1.2496 -0.6418  0.5583
16640TIP3    H271336   6.764   3.500   0.121 -0.8409 -0.8157  0.5362
16641TIP3   OH271337   5.386   6.762   1.130  0.1572 -0.0966  0.0189
16641TIP3    H171338   5.388   6.857   1.144  1.4672 -0.2015  0.6941
16641TIP3    H271339   5.458   6.729   1.184 -0.3971 -1.4951 -0.0787
16642TIP3   OH271340   1.570   2.000  13.916 -0.0789 -0.7806 -0.3060
16642TIP3    H171341   1.622   1.934  13.960  0.0551 -0.6430 -0.2561
16642TIP3    H271342   1.484   1.994  13.956 -0.1660 -1.1584 -0.5406
16643TIP3   OH271343   6.094   4.475  14.875 -0.1441 -0.0052 -0.3441
16643TIP3    H171344   6.026   4.504  14.935 -0.4403  1.8331 -1.5110
16643TIP3    H271345   6.048   4.438  14.801  0.1579  0.1417 -0.6092
16644TIP3   OH271346   5.792   4.044   2.730 -0.2392  0.1007 -0.0866
16644TIP3    H171347   5.766   3.952   2.729  0.3015 -0.0890 -2.2766
16644TIP3    H271348   5.875   4.046   2.682  0.2640  1.6142  0.7786
16645TIP3   OH271349   0.179   2.812  14.168  0.0532  0.5186 -0.3697
16645TIP3    H171350   0.234   2.787  14.243 -0.2846 -0.6181 -0.4804
16645TIP3    H271351   0.238   2.858  14.109  1.1007 -1.2943 -0.8103
16646TIP3   OH271352   4.234   2.011   0.192 -0.4565 -0.6548 -0.0523
16646TIP3    H171353   4.328   2.005   0.207 -0.5714 -2.6082  0.2303
16646TIP3    H271354   4.224   2.069   0.117  0.9701 -0.5810 -0.2041
16647TIP3   OH271355   1.160   2.480   2.569  0.4149 -0.2332  0.1238
16647TIP3    H171356   1.142   2.399   2.617  0.0105 -0.0914  0.2094
16647TIP3    H271357   1.201   2.538   2.634  0.8708 -0.4288  0.0171
16648TIP3   OH271358   5.209   0.032   3.242 -0.1613 -0.7012 -0.0209
16648TIP3    H171359   5.150   0.067   3.175 -1.0928 -1.7501  0.2263
16648TIP3    H271360   5.290   0.013   3.195 -0.6666 -1.0386 -0.7718
16649TIP3   OH271361   4.674   3.581  15.664 -0.4520 -0.2988  0.2561
16649TIP3    H171362   4.668   3.570  15.759 -0.3914 -0.5040  0.2359
16649TIP3    H271363   4.660   3.675  15.650  0.5200 -0.0982  0.5457
16650TIP3   OH271364   5.375   6.308   3.884  0.2837  0.4050  0.3170
16650TIP3    H171365   5.437   6.307   3.812  0.0596  2.0745  0.0644
16650TIP3    H271366   5.331   6.223   3.879  1.7081 -0.3329 -0.2055
16651TIP3   OH271367   0.764   5.364  14.488  0.4683  0.4634  0.2220
16651TIP3    H171368   0.767   5.438  14.549  0.7125  0.7540 -0.1420
16651TIP3    H271369   0.753   5.287  14.545  0.5040  0.7489  0.6208
16652TIP3   OH271370   2.031   2.597   1.471 -0.6323 -0.1796  0.1451
16652TIP3    H171371   1.950   2.593   1.521 -1.0487  1.9547 -0.2856
16652TIP3    H271372   2.013   2.657   1.399  0.1745 -2.5846 -2.2199
16653TIP3   OH271373   0.175   2.179  13.162  0.3151  0.0967  0.1229
16653TIP3    H171374   0.124   2.098  13.161  0.7912 -0.2084 -1.6145
16653TIP3    H271375   0.261   2.154  13.130  0.9056  1.0391  0.9100
16654TIP3   OH271376   2.278   2.070  15.558 -0.2609 -0.3306  0.9102
16654TIP3    H171377   2.365   2.106  15.577  0.1802 -1.6912  1.6449
16654TIP3    H271378   2.218   2.143  15.571  0.6788  0.3919  1.3361
16655TIP3   OH271379   6.407   2.577   4.360  0.3331 -0.3173 -0.4940
16655TIP3    H171380   6.386   2.488   4.387 -0.9670  0.1995  0.2960
16655TIP3    H271381   6.349   2.632   4.412  0.8958  0.9754 -1.1912
16656TIP3   OH271382   2.418   0.094   2.230 -0.1764 -0.2049 -0.5861
16656TIP3    H171383   2.450   0.033   2.164  0.0409 -1.6633  0.8079
16656TIP3    H271384   2.375   0.039   2.295  2.8204  0.6018  2.3911
16657TIP3   OH271385   0.072   0.060   6.095 -0.1970 -0.0330  0.2169
16657TIP3    H171386   0.065  -0.035   6.104  0.0917 -0.3381 -2.1515
16657TIP3    H271387  -0.018   0.091   6.102 -0.6210 -0.7873 -1.4431
16658TIP3   OH271388   3.810   2.199   0.402 -0.0361  0.1537  0.2049
16658TIP3    H171389   3.781   2.144   0.329  0.5817  0.6818 -0.4669
16658TIP3    H271390   3.898   2.167   0.422  0.3651  0.9245 -0.2498
16659TIP3   OH271391   5.554   3.147   1.788  0.1050 -0.1025 -0.3519
16659TIP3    H171392   5.521   3.121   1.875 -0.2449 -0.0994 -0.4810
16659TIP3    H271393   5.485   3.204   1.753  0.9449  1.1715  0.0010
16660TIP3   OH271394   1.262   5.769   3.273 -0.2335 -0.0567 -0.2932
16660TIP3    H171395   1.351   5.766   3.305  0.4220 -0.4244 -2.0114
16660TIP3    H271396   1.248   5.861   3.248 -0.7701  0.2461  1.0151
16661TIP3   OH271397   4.788   1.366  13.081 -0.2900 -0.3058 -0.2049
16661TIP3    H171398   4.695   1.386  13.080 -0.1667  0.3052  0.1383
16661TIP3    H271399   4.829   1.444  13.118  0.1959 -1.2386  1.2733
16662TIP3   OH271400   6.000   0.074   3.513  0.0619 -0.6714  0.0065
16662TIP3    H171401   5.911   0.047   3.537  0.0929 -0.4015  0.4438
16662TIP3    H271402   5.997   0.087   3.418 -0.5566  0.0029  0.1056
16663TIP3   OH271403   5.059   1.486  13.805  0.6232 -0.1165  0.1125
16663TIP3    H171404   5.033   1.470  13.715 -0.9255 -0.0382  0.5051
16663TIP3    H271405   5.150   1.514  13.800  0.0994  1.5069 -1.6045
16664TIP3   OH271406   6.276   4.998   5.646 -0.3908 -0.4874  0.5364
16664TIP3    H171407   6.282   4.915   5.600 -0.3129  0.5767 -1.4856
16664TIP3    H271408   6.182   5.009   5.664 -0.8184  0.2814 -1.8383
16665TIP3   OH271409   4.389   0.936  13.470 -0.4851 -0.1773  0.7471
16665TIP3    H171410   4.318   0.964  13.527 -2.3649 -1.5618 -0.7922
16665TIP3    H271411   4.453   0.897  13.529 -1.4752  0.1365  2.0757
16666TIP3   OH271412   2.006   5.365   3.425  0.3656 -0.1593  0.1104
16666TIP3    H171413   2.025   5.287   3.477 -0.9662  0.4188  1.5280
16666TIP3    H271414   2.073   5.428   3.451 -0.0766  0.0054  0.8714
16667TIP3   OH271415   0.853   6.776   1.450 -0.3638 -0.2833 -0.5736
16667TIP3    H171416   0.787   6.719   1.411 -0.6412  0.3086 -0.9863
16667TIP3    H271417   0.905   6.807   1.376  0.1275 -0.4269 -0.2933
16668TIP3   OH271418   5.066   1.843  15.476 -0.4983  0.3880  0.4220
16668TIP3    H171419   5.107   1.757  15.489  4.3896  2.4571  1.1925
16668TIP3    H271420   5.060   1.853  15.381 -1.1616 -0.7990  0.3269
16669TIP3   OH271421   5.399   3.875   2.427 -0.1618 -0.1633 -0.4751
16669TIP3    H171422   5.458   3.863   2.502  0.7491  1.3066 -0.9238
16669TIP3    H271423   5.340   3.945   2.453 -2.1380 -1.9423  0.1649
16670TIP3   OH271424   3.705   6.096  13.017  0.1842  0.1510  0.3001
16670TIP3    H171425   3.723   6.017  12.965  0.6628  0.7456 -0.4613
16670TIP3    H271426   3.779   6.154  12.998 -1.3009  1.7277 -1.0303
16671TIP3   OH271427   4.676   0.380  14.089  0.2946  0.7761  0.1329
16671TIP3    H171428   4.740   0.330  14.039  1.4783  2.9183 -0.6520
16671TIP3    H271429   4.693   0.471  14.065 -2.9178  1.4767  0.1046
16672TIP3   OH271430   5.482   6.531   5.061  0.3062 -0.2844  0.0119
16672TIP3    H171431   5.550   6.485   5.112 -0.4991 -1.3135  0.1853
16672TIP3    H271432   5.428   6.461   5.025 -0.9480  0.5284  0.2698
16673TIP3   OH271433   0.554   5.270  10.944  0.1171 -0.8827 -0.4480
16673TIP3    H171434   0.623   5.209  10.970 -0.1749 -0.7082  0.7969
16673TIP3    H271435   0.579   5.354  10.982  0.6968 -0.0858 -2.4447
16674TIP3   OH271436   3.283   2.429   6.296  0.1320  0.3838 -0.4178
16674TIP3    H171437   3.334   2.418   6.216 -1.5788 -3.4166 -1.2026
16674TIP3    H271438   3.292   2.346   6.342 -1.2905  1.4306  1.9339
16675TIP3   OH271439   0.437   4.382   2.491 -0.4887  0.2030  0.4868
16675TIP3    H171440   0.524   4.341   2.496 -0.1546  0.8581  0.2094
16675TIP3    H271441   0.392   4.351   2.569 -0.4694 -1.1675 -0.0015
16676TIP3   OH271442   1.201   6.607   5.366  0.9506 -0.6348  0.5098
16676TIP3    H171443   1.117   6.653   5.361  1.4647  0.2041 -0.9557
16676TIP3    H271444   1.178   6.514   5.365 -0.0363 -0.4494  2.1479
16677TIP3   OH271445   0.830   4.556   3.363 -0.2152 -0.2921 -0.1069
16677TIP3    H171446   0.753   4.580   3.414 -0.4176 -1.9047  0.4090
16677TIP3    H271447   0.892   4.628   3.377 -1.2945  0.6072  0.1698
16678TIP3   OH271448   5.996   5.062   4.444 -0.2708  0.5744  0.0627
16678TIP3    H171449   5.991   5.067   4.540  2.0804  0.9884  0.2185
16678TIP3    H271450   5.965   5.147   4.414  0.5391  1.0571  0.5638
16679TIP3   OH271451   5.098   1.707   3.329 -0.6291 -0.6572 -0.9425
16679TIP3    H171452   5.017   1.675   3.370 -0.6689  0.6660  0.0705
16679TIP3    H271453   5.103   1.659   3.246 -0.7626 -3.1217  0.3916
16680TIP3   OH271454   0.046   2.086   5.610  0.4325 -0.3811  0.1422
16680TIP3    H171455   0.051   2.181   5.597 -0.0960 -0.5138 -1.2887
16680TIP3    H271456   0.120   2.051   5.561  0.9312 -0.6857  1.0964
16681TIP3   OH271457   5.523   1.855  16.793  0.2733 -0.6794 -0.7107
16681TIP3    H171458   5.585   1.819  16.857  0.8115 -0.6330 -1.2008
16681TIP3    H271459   5.481   1.777  16.756  0.1963 -0.7208 -0.5401
16682TIP3   OH271460   4.188   4.570   5.168 -0.7600 -0.7541  0.6229
16682TIP3    H171461   4.160   4.493   5.218 -1.1267 -1.2827 -0.3679
16682TIP3    H271462   4.191   4.540   5.077 -2.8233  0.9080 -0.0677
16683TIP3   OH271463   5.187   0.688  12.798  0.4241  0.0383  0.0358
16683TIP3    H171464   5.163   0.776  12.824  0.8512 -0.1412  1.0992
16683TIP3    H271465   5.150   0.632  12.866  2.3970 -0.3711  0.8390
16684TIP3   OH271466   1.793   3.455   3.113 -0.2458  0.7404 -0.2169
16684TIP3    H171467   1.746   3.441   3.031 -0.5078 -0.4208  0.1073
16684TIP3    H271468   1.746   3.401   3.177  0.6499  0.7093  0.4344
16685TIP3   OH271469   4.426   6.222   3.556  0.3803 -0.3151 -0.0030
16685TIP3    H171470   4.489   6.291   3.578  0.3519 -0.1939 -0.3033
16685TIP3    H271471   4.342   6.268   3.551  0.4115 -0.3137 -0.5296
16686TIP3   OH271472   3.835   0.620  12.358  0.4534 -0.6070 -0.9584
16686TIP3    H171473   3.924   0.655  12.346  1.0760 -1.3792  0.9377
16686TIP3    H271474   3.780   0.676  12.303  2.0251  0.2572 -1.7530
16687TIP3   OH271475   2.330   3.282  13.931  0.5054  0.1996  0.0838
16687TIP3    H171476   2.253   3.228  13.949 -1.4272  2.4238 -1.1534
16687TIP3    H271477   2.398   3.218  13.907 -0.9035 -1.8247  1.1543
16688TIP3   OH271478   0.559   3.331  15.174  0.2534  0.1865 -0.2479
16688TIP3    H171479   0.557   3.330  15.269 -0.5346 -0.3667 -0.2636
16688TIP3    H271480   0.474   3.367  15.148 -0.1689 -1.1096 -0.7502
16689TIP3   OH271481   6.676   1.659   2.403 -0.0780 -0.0127 -0.9411
16689TIP3    H171482   6.698   1.633   2.313  0.2668  0.7400 -1.0887
16689TIP3    H271483   6.691   1.581   2.455  2.6974  0.3281 -1.0774
16690TIP3   OH271484   0.285   2.830  16.763 -0.3080  0.1167 -0.2875
16690TIP3    H171485   0.273   2.763  16.695 -3.1191  0.1018  0.1174
16690TIP3    H271486   0.360   2.881  16.733 -0.9188 -0.4212 -2.9907
16691TIP3   OH271487   2.677   3.497   0.635  0.1445  0.3085 -0.2681
16691TIP3    H171488   2.602   3.480   0.692  0.0153 -0.7251 -0.7312
16691TIP3    H271489   2.746   3.528   0.695 -0.6069  1.1819  0.1711
16692TIP3   OH271490   4.675   0.052  14.736  0.0972  0.2502 -0.2845
16692TIP3    H171491   4.620   0.109  14.683 -0.2249  0.1655 -0.0468
16692TIP3    H271492   4.758   0.099  14.742 -0.0204  0.4881 -0.4568
16693TIP3   OH271493   4.579   6.611   1.642 -0.1882 -0.4462 -0.0350
16693TIP3    H171494   4.670   6.614   1.611 -0.5374  0.2896 -1.0751
16693TIP3    H271495   4.581   6.655   1.727  0.0693  1.7655 -1.1198
16694TIP3   OH271496   6.413   5.310  15.262 -0.0373 -0.0340  0.7309
16694TIP3    H171497   6.429   5.344  15.174 -2.1136  2.9134  1.3625
16694TIP3    H271498   6.388   5.219  15.248 -1.0917  0.5549 -1.8269
16695TIP3   OH271499   0.561   6.100   3.497 -0.3050  0.1675  0.0993
16695TIP3    H171500   0.649   6.097   3.533 -0.3613 -0.7508  0.1969
16695TIP3    H271501   0.560   6.177   3.440  1.2420 -0.9669 -1.5934
16696TIP3   OH271502   6.562   3.464   3.520 -0.0515  0.0916  0.3636
16696TIP3    H171503   6.649   3.473   3.480  0.1079  0.2442  0.7395
16696TIP3    H271504   6.579   3.431   3.608 -0.4204 -0.4981  0.2146
16697TIP3   OH271505   2.294   0.758   0.949 -0.0371 -0.0117 -0.0123
16697TIP3    H171506   2.229   0.802   1.004 -0.1343 -0.2318  0.0517
16697TIP3    H271507   2.277   0.791   0.861 -0.3907 -0.2451 -0.0343
16698TIP3   OH271508   2.483   6.381   2.736 -0.4847  0.2228  0.0473
16698TIP3    H171509   2.523   6.447   2.679  3.0116 -0.2934  1.6751
16698TIP3    H271510   2.457   6.430   2.814 -1.2293  0.1989 -0.1724
16699TIP3   OH271511   3.720   5.741  12.588  0.0509  0.7507 -0.0283
16699TIP3    H171512   3.816   5.748  12.584  0.1286 -0.7184 -2.2167
16699TIP3    H271513   3.690   5.770  12.502 -1.3483 -0.1547  0.1174
16700TIP3   OH271514   6.358   6.551   0.622 -0.1034 -0.0206  0.1305
16700TIP3    H171515   6.315   6.484   0.569  0.2234 -1.3507  1.4579
16700TIP3    H271516   6.449   6.522   0.627 -0.1642 -0.0402  1.5336
16701TIP3   OH271517   4.881   0.173  11.815 -0.0271  0.0710  0.2159
16701TIP3    H171518   4.915   0.176  11.905  1.6202  1.1367 -0.4046
16701TIP3    H271519   4.877   0.265  11.788 -0.5911 -0.2329 -0.7847
16702TIP3   OH271520   5.456   3.735  16.286  0.1426 -0.7552 -0.1262
16702TIP3    H171521   5.496   3.799  16.228 -1.8752 -0.8093 -1.6860
16702TIP3    H271522   5.448   3.656  16.233 -1.1427 -1.0291  0.4433
16703TIP3   OH271523   4.415   6.221   5.366  0.2697  0.5581  0.2450
16703TIP3    H171524   4.457   6.158   5.307 -0.9393  0.3590 -0.4175
16703TIP3    H271525   4.460   6.208   5.450  0.1816 -1.0401  0.0713
16704TIP3   OH271526   3.292   3.950  14.435  0.0660  0.2128  0.2918
16704TIP3    H171527   3.351   3.932  14.508 -1.7559 -1.0843  1.5443
16704TIP3    H271528   3.276   4.044  14.440 -0.0256  0.1476  1.6001
16705TIP3   OH271529   2.450   4.314  12.017 -0.2297  0.3489 -0.3596
16705TIP3    H171530   2.534   4.281  11.987 -1.0534 -0.5008 -1.8643
16705TIP3    H271531   2.458   4.317  12.112  1.6559  0.7785 -0.4955
16706TIP3   OH271532   6.268   1.547  15.446  0.2254 -0.0529 -0.5381
16706TIP3    H171533   6.284   1.639  15.468  0.6644 -0.3468  0.4328
16706TIP3    H271534   6.209   1.516  15.515  1.6207 -1.0072  0.2716
16707TIP3   OH271535   3.157   0.237   5.671 -0.1878 -0.3270  0.0081
16707TIP3    H171536   3.159   0.330   5.647 -0.8736 -0.2940  0.0739
16707TIP3    H271537   3.228   0.228   5.735  0.3485 -0.0032 -0.5169
16708TIP3   OH271538   0.205   5.875  14.244  0.0309  0.6508 -0.2744
16708TIP3    H171539   0.194   5.847  14.153  0.9565  3.0467 -1.1951
16708TIP3    H271540   0.300   5.873  14.258 -0.1552 -0.7772  1.0519
16709TIP3   OH271541   4.814   5.674   0.243 -0.1728  0.1108  0.4277
16709TIP3    H171542   4.740   5.622   0.275  0.2303 -1.0907 -0.5278
16709TIP3    H271543   4.807   5.669   0.148  1.2356 -0.1831  0.3201
16710TIP3   OH271544   4.116   6.505   5.599 -0.4820 -0.0818  0.1860
16710TIP3    H171545   4.091   6.523   5.690 -0.5226 -1.4314  0.4521
16710TIP3    H271546   4.033   6.508   5.551 -0.7050 -1.1069  0.4917
16711TIP3   OH271547   5.863   4.581   1.695  0.1304 -0.2477  0.7204
16711TIP3    H171548   5.864   4.553   1.603  1.6952  1.2716  0.2200
16711TIP3    H271549   5.792   4.645   1.700  2.1376  2.2752 -0.3827
16712TIP3   OH271550   5.459   1.190  16.135  0.3531 -0.2860  0.3714
16712TIP3    H171551   5.553   1.202  16.120  0.0852 -0.3635 -1.5940
16712TIP3    H271552   5.425   1.160  16.051 -1.3050 -1.1186  1.3029
16713TIP3   OH271553   2.428   1.752   0.823  0.8181  0.2262  0.0052
16713TIP3    H171554   2.410   1.773   0.914 -0.4211  0.0279 -0.1754
16713TIP3    H271555   2.403   1.660   0.814 -1.1532  0.8087 -1.0156
16714TIP3   OH271556   3.541   6.492  15.947  0.3120  0.0115 -0.1172
16714TIP3    H171557   3.495   6.418  15.907  1.3776 -0.5396 -0.3586
16714TIP3    H271558   3.522   6.566  15.889  1.9164 -0.7920 -1.7900
16715TIP3   OH271559   3.495   2.242   4.541  0.0530  0.0294 -0.1343
16715TIP3    H171560   3.454   2.285   4.466 -1.5045  1.4324  1.4419
16715TIP3    H271561   3.579   2.285   4.551 -0.0907  0.4115 -0.5581
16716TIP3   OH271562   6.076   2.509  11.054 -0.3278 -0.0692 -0.2208
16716TIP3    H171563   6.002   2.569  11.061  0.4735  0.9038  0.1010
16716TIP3    H271564   6.149   2.555  11.095  0.3679 -1.1749 -0.1710
16717TIP3   OH271565   0.836   2.437  11.295  0.5937  0.4897 -0.6798
16717TIP3    H171566   0.774   2.454  11.224  3.1721  1.2103 -2.9059
16717TIP3    H271567   0.844   2.521  11.340 -1.1565 -0.0045  0.7006
16718TIP3   OH271568   5.824   0.139   4.848  0.3007  0.2493  0.1559
16718TIP3    H171569   5.837   0.045   4.837 -2.1038 -0.1191 -0.0673
16718TIP3    H271570   5.888   0.179   4.789 -0.3134 -1.3408 -1.7209
16719TIP3   OH271571   2.060   2.273  17.192 -0.3811  0.5921 -0.0040
16719TIP3    H171572   2.052   2.217  17.115 -1.6216  1.1299 -0.2947
16719TIP3    H271573   2.072   2.361  17.156 -1.1623  0.8726  0.3895
16720TIP3   OH271574   6.631   5.489  13.947 -0.3418 -0.1666  0.0859
16720TIP3    H171575   6.602   5.399  13.940 -1.0631  0.1176 -0.6668
16720TIP3    H271576   6.552   5.541  13.935  0.1824  0.5870 -0.1817
16721TIP3   OH271577   1.188   5.647  16.544  0.3279 -0.2437 -0.1672
16721TIP3    H171578   1.118   5.586  16.566 -0.9768  0.6294 -1.7492
16721TIP3    H271579   1.148   5.733  16.552  1.9278  0.4335  1.2618
16722TIP3   OH271580   5.563   5.632  12.075  0.0404  0.1508 -0.7267
16722TIP3    H171581   5.540   5.724  12.066 -1.5173 -0.2115 -0.7462
16722TIP3    H271582   5.647   5.632  12.122 -0.6298  1.5413  0.5565
16723TIP3   OH271583   1.411   3.226  11.477  0.0179  0.3996 -0.4706
16723TIP3    H171584   1.471   3.245  11.550  2.7993 -1.5140 -2.0404
16723TIP3    H271585   1.383   3.136  11.492  0.6440 -0.0277 -1.7139
16724TIP3   OH271586   6.085   0.325   3.224  0.6104  0.0749 -0.0682
16724TIP3    H171587   6.115   0.237   3.249  0.4147  0.0843  0.1997
16724TIP3    H271588   6.027   0.310   3.149 -0.0878 -0.1057  0.4976
16725TIP3   OH271589   6.697   2.780  15.318 -0.2533  0.1848  0.4060
16725TIP3    H171590   6.720   2.746  15.404  1.1374 -0.5525 -0.2321
16725TIP3    H271591   6.685   2.702  15.264 -1.7416  0.6184  0.0610
16726TIP3   OH271592   2.695   5.374  16.898 -0.0168  0.1860 -0.4130
16726TIP3    H171593   2.601   5.383  16.910 -0.0447 -1.8938  1.5727
16726TIP3    H271594   2.733   5.444  16.952 -0.4311 -1.3256  1.9861
16727TIP3   OH271595   2.325   2.786  12.452 -0.4000 -0.4848 -0.4187
16727TIP3    H171596   2.329   2.815  12.543  1.0813 -2.2858  0.1538
16727TIP3    H271597   2.257   2.719  12.451  0.1403 -1.0400 -0.4454
16728TIP3   OH271598   1.353   6.336   2.383 -0.6950 -0.3730 -0.3015
16728TIP3    H171599   1.406   6.256   2.371  1.3361  0.8772 -0.0921
16728TIP3    H271600   1.387   6.375   2.463 -1.8044  0.6175 -0.3038
16729TIP3   OH271601   1.362   1.520  13.545 -0.0642 -0.6759 -0.5145
16729TIP3    H171602   1.358   1.551  13.455 -2.2966  1.1023  0.1105
16729TIP3    H271603   1.432   1.571  13.586 -2.5014  2.5083  0.0264
16730TIP3   OH271604   4.586   1.954  10.432 -0.0980  0.1897 -0.0491
16730TIP3    H171605   4.533   2.026  10.398 -2.5957 -1.9323 -0.9725
16730TIP3    H271606   4.592   1.892  10.359  0.6079 -1.2603  1.1798
16731TIP3   OH271607   2.628   1.904   5.166 -0.2535 -0.3340 -0.1405
16731TIP3    H171608   2.606   1.866   5.081 -0.2866  0.9865 -0.7424
16731TIP3    H271609   2.672   1.833   5.214 -0.0976 -1.0454 -1.3129
16732TIP3   OH271610   0.276   0.629  12.231 -0.0367  0.0510 -0.5829
16732TIP3    H171611   0.257   0.571  12.305  0.0056 -1.7516 -1.9278
16732TIP3    H271612   0.363   0.603  12.203 -0.5185 -0.0936 -1.9867
16733TIP3   OH271613   3.960   2.506  11.609 -0.1910  0.1792  0.1049
16733TIP3    H171614   4.020   2.534  11.677 -1.5750 -0.9192  1.8449
16733TIP3    H271615   3.875   2.543  11.635 -0.9037 -0.9137 -0.5991
16734TIP3   OH271616   5.564   1.129   0.981 -0.4659 -0.2048  0.1871
16734TIP3    H171617   5.547   1.073   1.056  0.5645  1.1105  1.4730
16734TIP3    H271618   5.646   1.098   0.945  0.1659  0.5108  0.9719
16735TIP3   OH271619   0.960   4.888   4.993  0.0662 -0.1880 -0.2091
16735TIP3    H171620   0.960   4.931   5.079 -0.2636 -0.5071 -0.0481
16735TIP3    H271621   0.931   4.799   5.010  2.3347 -1.0001 -0.2992
16736TIP3   OH271622   2.038   5.384  12.492 -0.1871  0.3625 -0.3237
16736TIP3    H171623   1.966   5.444  12.471  0.4353  0.9790 -0.7375
16736TIP3    H271624   2.106   5.406  12.429  0.5956  0.1999  0.4441
16737TIP3   OH271625   4.128   1.448   5.157 -0.0885 -0.1798  0.1818
16737TIP3    H171626   4.198   1.416   5.213  0.7573 -0.0920 -0.7934
16737TIP3    H271627   4.166   1.523   5.110 -0.5306 -0.6745 -1.0158
16738TIP3   OH271628   2.596   2.645   1.276  0.5803 -0.2193  0.6185
16738TIP3    H171629   2.534   2.673   1.344 -1.9927 -1.1912 -1.1751
16738TIP3    H271630   2.614   2.724   1.225  1.2191  0.1648  1.4179
16739TIP3   OH271631   5.782   0.876   2.331 -0.3390  0.6545 -0.1945
16739TIP3    H171632   5.748   0.809   2.272 -2.2049  1.3542  0.0353
16739TIP3    H271633   5.872   0.848   2.348 -0.4420 -0.7333 -1.6243
16740TIP3   OH271634   0.296   3.861   5.010 -0.1566 -0.5229  0.2547
16740TIP3    H171635   0.380   3.848   5.053  0.7978 -0.1747 -1.4208
16740TIP3    H271636   0.242   3.786   5.038  1.7161 -2.4387 -1.0394
16741TIP3   OH271637   4.565   0.909   4.515 -0.0880 -0.3507  0.3234
16741TIP3    H171638   4.621   0.889   4.441 -1.3105 -0.4891 -0.5922
16741TIP3    H271639   4.505   0.834   4.521 -0.1798 -0.2233  1.2937
16742TIP3   OH271640   4.028   5.538  14.937 -0.1909 -0.5478  0.2540
16742TIP3    H171641   3.991   5.541  15.025  0.8904  0.7455  0.6928
16742TIP3    H271642   4.099   5.474  14.943  0.3405  0.0627  0.5137
16743TIP3   OH271643   1.629   4.159   0.075  0.5210  0.2880 -0.5521
16743TIP3    H171644   1.541   4.138   0.044 -0.4778  3.3754 -0.1534
16743TIP3    H271645   1.676   4.075   0.073 -2.4372 -1.4964 -0.6109
16744TIP3   OH271646   3.610   2.824   0.818 -0.4806 -0.1500  0.3918
16744TIP3    H171647   3.704   2.808   0.817 -0.5969 -0.8960 -0.5329
16744TIP3    H271648   3.597   2.892   0.885  0.6900 -0.1204  0.6031
16745TIP3   OH271649   5.241   3.668   2.788  0.0885 -0.5652  1.3492
16745TIP3    H171650   5.313   3.661   2.725  0.4009  1.1016  1.4764
16745TIP3    H271651   5.162   3.665   2.734  0.3593  1.0990  0.8238
16746TIP3   OH271652   0.099   0.326   6.436  0.7350  0.0122  0.1856
16746TIP3    H171653   0.025   0.351   6.381 -1.2311  0.2317  2.7184
16746TIP3    H271654   0.126   0.240   6.403 -2.3000 -1.2304  0.6189
16747TIP3   OH271655   4.092   3.899  16.734 -0.2105  0.1438 -0.1127
16747TIP3    H171656   4.009   3.871  16.695 -0.4535 -0.9489  1.1318
16747TIP3    H271657   4.142   3.818  16.744 -0.1988  0.3512  1.9003
16748TIP3   OH271658   2.573   4.410   4.480 -0.1850 -0.1482 -0.4694
16748TIP3    H171659   2.598   4.445   4.565 -2.3000 -1.8308  0.9485
16748TIP3    H271660   2.608   4.321   4.479  0.5637  0.1276 -1.7723
16749TIP3   OH271661   6.685   2.944  14.648 -0.0107 -0.1316 -0.0988
16749TIP3    H171662   6.768   2.899  14.657 -0.1754 -0.4510 -0.1656
16749TIP3    H271663   6.659   2.966  14.737  0.5312  0.6829 -0.1282
16750TIP3   OH271664   3.369   6.349  12.552 -0.4392 -0.3527  0.1387
16750TIP3    H171665   3.427   6.279  12.584  2.7961  2.2623  0.5800
16750TIP3    H271666   3.423   6.397  12.490 -3.3570  0.4491 -1.9756
16751TIP3   OH271667   5.889   3.485  15.077 -0.1712  0.0453 -0.2980
16751TIP3    H171668   5.835   3.424  15.026  0.6255 -1.0301  0.1095
16751TIP3    H271669   5.886   3.567  15.028  1.0437 -1.1014 -2.4242
16752TIP3   OH271670   6.243   2.333  12.868  0.0337 -0.1437  0.3339
16752TIP3    H171671   6.163   2.385  12.883  0.4215  0.8633 -0.8987
16752TIP3    H271672   6.279   2.368  12.787  2.5436  0.4550  1.6075
16753TIP3   OH271673   2.965   0.852  15.784 -0.3483  0.2431 -0.9111
16753TIP3    H171674   3.056   0.874  15.806 -0.0003 -0.5430 -1.4987
16753TIP3    H271675   2.918   0.856  15.867  0.6801 -1.4768 -0.1840
16754TIP3   OH271676   6.506   3.231   4.877  0.4176 -0.0907 -0.1301
16754TIP3    H171677   6.446   3.234   4.952  0.0352  1.1965 -0.4529
16754TIP3    H271678   6.516   3.323   4.852  2.7891 -0.2340  0.1071
16755TIP3   OH271679   2.890   1.996  16.608  0.3236  0.5020 -0.4041
16755TIP3    H171680   2.934   1.988  16.692 -1.2491 -2.0728  0.3032
16755TIP3    H271681   2.944   2.057  16.558  1.2090  2.2661  2.4770
16756TIP3   OH271682   6.013   4.867  10.848  0.0013  0.5348  0.2489
16756TIP3    H171683   6.017   4.853  10.753 -2.9225  0.2197  0.0766
16756TIP3    H271684   6.024   4.962  10.858  0.9019  0.5065 -0.3184
16757TIP3   OH271685   2.040   6.397  14.782 -0.8663 -0.1136  0.4936
16757TIP3    H171686   2.090   6.478  14.771 -1.1791  0.5472  3.1004
16757TIP3    H271687   1.990   6.388  14.701 -1.1604  2.5676  0.2737
16758TIP3   OH271688   6.399   1.183  15.561  0.2568  0.3680  0.1094
16758TIP3    H171689   6.373   1.246  15.629 -1.3778  0.0300 -0.1632
16758TIP3    H271690   6.493   1.197  15.551  0.4466  0.8074  2.0478
16759TIP3   OH271691   1.786   0.926  12.504  0.8363  0.1454  0.2432
16759TIP3    H171692   1.744   0.841  12.515  2.4679 -0.6470  0.6386
16759TIP3    H271693   1.731   0.986  12.555 -0.9447 -0.4237 -0.9038
16760TIP3   OH271694   5.036   0.610   3.721 -0.1784 -0.1166  0.1004
16760TIP3    H171695   5.067   0.542   3.780 -0.0790  0.0360  0.2265
16760TIP3    H271696   4.957   0.645   3.763  0.8489  1.1849  1.0442
16761TIP3   OH271697   5.860   6.724  12.627 -1.2651 -0.7255 -0.0515
16761TIP3    H171698   5.831   6.803  12.581  0.9041  1.3620  1.9038
16761TIP3    H271699   5.816   6.727  12.712 -1.3488 -1.7766 -0.0399
16762TIP3   OH271700   5.322   0.238   3.918 -0.0363  0.6944 -0.0755
16762TIP3    H171701   5.331   0.301   3.847 -1.5635  1.9497  0.7600
16762TIP3    H271702   5.340   0.154   3.878 -0.6008  1.3890 -1.9051
16763TIP3   OH271703   4.824   1.900   3.350 -0.2253  0.3448 -0.3129
16763TIP3    H171704   4.850   1.850   3.428 -0.3985  0.6353 -0.0619
16763TIP3    H271705   4.812   1.835   3.282  1.4130  0.2091 -0.5074
16764TIP3   OH271706   0.336   4.445  17.218 -0.6461  0.0148 -0.2621
16764TIP3    H171707   0.251   4.490  17.217 -1.4225 -1.3923  0.1300
16764TIP3    H271708   0.392   4.500  17.164 -1.7772  1.0372 -0.4445
16765TIP3   OH271709   1.134   4.335   1.265  0.4491 -0.2942  0.0394
16765TIP3    H171710   1.176   4.364   1.184 -1.3582  1.7252 -0.2975
16765TIP3    H271711   1.131   4.240   1.258  1.0369 -0.2239 -1.9020
16766TIP3   OH271712   0.808   2.476   4.527 -0.0757 -0.3079 -0.0049
16766TIP3    H171713   0.863   2.466   4.605 -0.1897 -1.3491 -0.0486
16766TIP3    H271714   0.869   2.493   4.456  0.2477 -1.7674 -0.1113
16767TIP3   OH271715   4.037   4.914  12.499  0.3205 -0.4117  0.1815
16767TIP3    H171716   4.015   4.822  12.482 -1.1783 -0.1145  0.4523
16767TIP3    H271717   4.106   4.933  12.436  0.2270 -1.5470 -0.2990
16768TIP3   OH271718   1.199   6.481   4.753 -0.0188 -0.1545 -0.6104
16768TIP3    H171719   1.223   6.572   4.770  2.5033 -0.4969 -1.8763
16768TIP3    H271720   1.122   6.487   4.697 -0.1490  1.1643 -0.3385
16769TIP3   OH271721   5.800   3.545  17.168  0.6914  0.2281 -0.4087
16769TIP3    H171722   5.807   3.626  17.117  0.7646 -0.0011 -0.7615
16769TIP3    H271723   5.731   3.495  17.124  0.6768  0.0763 -0.2160
16770TIP3   OH271724   5.142   6.527  14.708  0.3454 -0.6326  0.5234
16770TIP3    H171725   5.234   6.552  14.708  0.6387 -1.6812  0.9779
16770TIP3    H271726   5.098   6.596  14.758  0.5534  0.9393 -1.3350
16771TIP3   OH271727   3.134   5.183   1.898 -0.2195 -0.0757  0.3047
16771TIP3    H171728   3.054   5.220   1.936 -0.2498  0.4152 -0.2221
16771TIP3    H271729   3.141   5.224   1.812 -0.0764 -1.0727 -0.1758
16772TIP3   OH271730   2.269   0.851   3.155  0.0876 -0.3162  0.2689
16772TIP3    H171731   2.337   0.909   3.189 -0.7324 -0.0561  1.5025
16772TIP3    H271732   2.246   0.888   3.069 -0.8289  1.5594  1.2749
16773TIP3   OH271733   2.935   4.064   5.936 -0.5844 -0.6379 -0.1046
16773TIP3    H171734   2.928   4.090   6.027 -0.3484 -1.7721  0.2470
16773TIP3    H271735   2.893   4.136   5.887  1.1072  0.9798  0.7131
16774TIP3   OH271736   1.518   0.737   1.621  0.3071 -0.4551  0.1175
16774TIP3    H171737   1.513   0.664   1.559 -0.0267 -1.4742  1.3105
16774TIP3    H271738   1.557   0.699   1.700 -2.6112 -0.1941  1.8640
16775TIP3   OH271739   5.925   5.336   0.712  0.5454 -0.4373  0.5060
16775TIP3    H171740   5.943   5.367   0.801 -2.7298 -0.8857  1.4683
16775TIP3    H271741   5.888   5.248   0.725 -0.9829 -0.0989 -1.1584
16776TIP3   OH271742   3.723   4.393   3.475  0.5727 -0.0381 -0.9313
16776TIP3    H171743   3.816   4.413   3.472  1.2962 -2.4091  1.5857
16776TIP3    H271744   3.709   4.353   3.561 -3.0967  1.5209 -0.5862
16777TIP3   OH271745   1.168   0.865  10.834 -0.0560 -0.1424 -0.2306
16777TIP3    H171746   1.251   0.904  10.805  1.2854 -1.8202  1.1079
16777TIP3    H271747   1.117   0.855  10.754  0.0499  2.9794 -0.8040
16778TIP3   OH271748   0.974   5.842   2.463 -0.1756 -0.9939 -0.0450
16778TIP3    H171749   1.049   5.880   2.418  0.0072 -0.9387  0.3016
16778TIP3    H271750   1.008   5.819   2.550 -0.2545 -2.0366 -0.2795
16779TIP3   OH271751   4.625   3.323  13.510 -0.4594 -0.1478 -0.0964
16779TIP3    H171752   4.566   3.336  13.584 -0.0916 -0.6665  0.2940
16779TIP3    H271753   4.616   3.231  13.487  0.8083 -0.4426  0.5031
16780TIP3   OH271754   0.701   2.308  11.620 -0.6603  1.1117  0.6194
16780TIP3    H171755   0.785   2.298  11.574 -0.3438  0.4564  1.3113
16780TIP3    H271756   0.716   2.380  11.681  0.1286 -0.3667  2.2590
16781TIP3   OH271757   6.769   1.563   1.400  0.0291  0.4904 -0.4684
16781TIP3    H171758   6.687   1.605   1.375  0.6361  2.5897  0.8673
16781TIP3    H271759   6.767   1.560   1.495  1.0207 -0.5130 -0.4565
16782TIP3   OH271760   4.736   0.931  11.067 -0.3560  0.0529 -0.2219
16782TIP3    H171761   4.748   0.838  11.083  0.5166  0.2394  0.2580
16782TIP3    H271762   4.825   0.966  11.061 -0.6751  0.7472 -1.0395
16783TIP3   OH271763   1.792   4.060   5.782  0.3124  0.3700 -0.2232
16783TIP3    H171764   1.822   3.996   5.846  1.7323 -0.5532 -1.7387
16783TIP3    H271765   1.835   4.142   5.807  1.7211 -0.2359 -0.5741
16784TIP3   OH271766   5.079   6.133  13.908 -0.4352 -0.2688  0.3742
16784TIP3    H171767   5.061   6.041  13.888 -1.1964 -0.0201 -0.1174
16784TIP3    H271768   4.993   6.172  13.920 -0.1205  0.4156  0.4365
16785TIP3   OH271769   1.257   1.583  14.193  0.1687 -0.1572  0.1598
16785TIP3    H171770   1.252   1.601  14.287  1.3650 -0.1597  0.2402
16785TIP3    H271771   1.300   1.498  14.188 -1.0667 -0.7728 -0.3676
16786TIP3   OH271772   0.954   3.110   1.935 -0.4298  0.1264  0.5411
16786TIP3    H171773   1.042   3.123   1.902 -0.0321 -1.3052  0.9531
16786TIP3    H271774   0.962   3.119   2.030 -0.6980 -0.1322  0.5910
16787TIP3   OH271775   4.988   0.053  13.635  0.2293  0.0964 -0.3479
16787TIP3    H171776   5.053   0.119  13.659 -0.9424  0.7381  1.2819
16787TIP3    H271777   5.029  -0.031  13.657  0.9098  0.4138 -0.3832
16788TIP3   OH271778   5.282   3.142   6.077 -0.1388 -0.3877 -1.1178
16788TIP3    H171779   5.265   3.069   6.017 -0.4019 -0.6838 -0.6897
16788TIP3    H271780   5.333   3.103   6.148  0.4940  0.0395 -1.3296
16789TIP3   OH271781   1.653   3.292  10.635  1.5293 -0.1516  0.0815
16789TIP3    H171782   1.590   3.243  10.688  1.6371 -0.8623 -0.4334
16789TIP3    H271783   1.620   3.285  10.545  0.1674  2.8004  0.2044
16790TIP3   OH271784   6.418   1.269   2.145  0.5240  0.4207  0.3369
16790TIP3    H171785   6.337   1.217   2.143 -1.0113  2.6640 -1.7333
16790TIP3    H271786   6.488   1.204   2.138 -1.1779 -1.4736 -0.1764
16791TIP3   OH271787   5.182   6.334  14.904  0.1604  0.4258  0.0428
16791TIP3    H171788   5.174   6.409  14.844  1.2410  1.2125  0.8340
16791TIP3    H271789   5.263   6.291  14.877 -0.8654 -0.9647 -0.9232
16792TIP3   OH271790   6.747   0.683   1.965  0.1627  0.6884  0.3795
16792TIP3    H171791   6.674   0.729   1.923  0.4505  0.5888 -0.2310
16792TIP3    H271792   6.707   0.641   2.042 -0.6828 -0.3816 -0.6138
16793TIP3   OH271793   0.214   5.465  10.645  0.0079 -0.1852  0.7129
16793TIP3    H171794   0.127   5.433  10.669  1.0831 -2.8769  1.4401
16793TIP3    H271795   0.201   5.509  10.561 -2.0939 -0.2117  0.9721
16794TIP3   OH271796   2.949   4.083   6.199 -0.1845  0.5536 -0.3476
16794TIP3    H171797   2.901   4.090   6.282  0.1008  1.2933 -0.2333
16794TIP3    H271798   3.029   4.035   6.222  0.6725  2.1525  0.1824
16795TIP3   OH271799   0.049   6.132   4.235  0.4452 -0.3226 -0.3169
16795TIP3    H171800   0.008   6.052   4.268  2.1869 -0.2552  2.2473
16795TIP3    H271801  -0.009   6.203   4.265  1.4599 -0.3393  1.7908
16796TIP3   OH271802   3.484   6.526  14.497  0.0863 -0.0930 -0.0452
16796TIP3    H171803   3.505   6.595  14.560 -0.6141 -0.1468  0.2517
16796TIP3    H271804   3.506   6.444  14.542 -0.1444 -0.1161  0.0301
16797TIP3   OH271805   0.350   3.828   2.466  0.4305  0.3407 -0.2619
16797TIP3    H171806   0.367   3.922   2.456  0.0795  0.2576 -2.0397
16797TIP3    H271807   0.289   3.822   2.539 -1.2668  1.7244 -1.5005
16798TIP3   OH271808   0.827   2.364   3.130 -0.2692 -0.0617 -0.3752
16798TIP3    H171809   0.834   2.271   3.149  0.4354  0.2762  1.2281
16798TIP3    H271810   0.735   2.385   3.146 -0.1481 -0.2334  0.5858
16799TIP3   OH271811   5.785   4.433   0.598  0.1267  0.0844 -0.0860
16799TIP3    H171812   5.841   4.510   0.601 -1.1818  1.1145 -1.1470
16799TIP3    H271813   5.833   4.371   0.542  0.5967  0.6313 -0.2954
16800TIP3   OH271814   5.980   5.369   3.299  0.2954  0.1936  0.2601
16800TIP3    H171815   5.903   5.352   3.353  1.1528 -1.0539  1.1613
16800TIP3    H271816   5.947   5.366   3.209 -0.8551  0.5777  0.6479
16801TIP3   OH271817   1.002   4.378  16.665  0.0082 -0.3484 -0.1139
16801TIP3    H171818   1.008   4.371  16.760  1.1162 -0.1764 -0.1619
16801TIP3    H271819   1.041   4.297  16.632  1.1203  0.2952 -0.4375
16802TIP3   OH271820   4.327   0.784  12.933 -0.1931  0.3536 -0.1797
16802TIP3    H171821   4.299   0.711  12.877 -1.0540  0.1907  0.4344
16802TIP3    H271822   4.295   0.862  12.889 -0.1877  0.2753 -0.3206
16803TIP3   OH271823   4.145   2.837   3.493  0.8127 -0.8121 -0.0678
16803TIP3    H171824   4.076   2.856   3.429  0.0003 -4.5906 -0.5169
16803TIP3    H271825   4.099   2.799   3.567  2.2294 -1.1338  0.6625
16804TIP3   OH271826   5.281   2.315   3.983  0.2927  0.2387  0.0482
16804TIP3    H171827   5.321   2.230   4.004 -2.4075 -0.3569  3.8570
16804TIP3    H271828   5.329   2.378   4.036  1.7254  1.0839 -2.1207
16805TIP3   OH271829   0.525   2.183  16.180 -0.2979  0.0853  0.7612
16805TIP3    H171830   0.513   2.196  16.274 -1.8616 -2.0355  0.9217
16805TIP3    H271831   0.547   2.091  16.171  0.1144  0.3073 -0.9513
16806TIP3   OH271832   6.604   5.789  13.116  0.4694 -0.1186 -0.2034
16806TIP3    H171833   6.517   5.814  13.147  1.5596  0.6481  2.5144
16806TIP3    H271834   6.638   5.868  13.075  1.8768  1.5584  3.6948
16807TIP3   OH271835   3.685   0.893   3.165 -0.0447  0.1279  0.5507
16807TIP3    H171836   3.752   0.911   3.099  1.4069 -0.6602  1.7626
16807TIP3    H271837   3.602   0.914   3.121  0.8847 -0.1160 -1.4274
16808TIP3   OH271838   1.737   3.248   2.402 -0.0502 -0.2774 -0.0058
16808TIP3    H171839   1.794   3.325   2.408 -0.0616 -0.3371  0.9317
16808TIP3    H271840   1.789   3.177   2.438 -0.7462 -0.3150  0.9484
16809TIP3   OH271841   5.399   0.603  14.621 -0.6558  0.4632 -0.1296
16809TIP3    H171842   5.417   0.568  14.708 -1.4051 -0.8049 -0.4636
16809TIP3    H271843   5.461   0.558  14.564 -0.6083  0.8039 -0.3467
16810TIP3   OH271844   6.169   2.750  15.446  0.0061  0.0579 -0.3933
16810TIP3    H171845   6.093   2.794  15.407  0.1020  0.6494  0.0885
16810TIP3    H271846   6.203   2.812  15.510  0.3684 -0.5666  0.0263
16811TIP3   OH271847   5.823   3.450   0.185  0.1185 -0.2792  0.7419
16811TIP3    H171848   5.814   3.492   0.099 -0.5765 -0.1054  0.8916
16811TIP3    H271849   5.754   3.384   0.187  0.8266 -1.0399  0.7467
16812TIP3   OH271850   1.927   2.760  14.510  0.0718  0.7176 -0.5490
16812TIP3    H171851   1.979   2.681  14.498 -0.2818  0.7877 -3.1014
16812TIP3    H271852   1.856   2.752  14.446 -0.7216  2.5119  0.0399
16813TIP3   OH271853   0.900   5.708  10.538  0.3063 -0.1152 -0.1910
16813TIP3    H171854   0.927   5.725  10.628  0.5912 -0.0160 -0.2934
16813TIP3    H271855   0.837   5.637  10.544 -1.4479  1.3961  0.3344
16814TIP3   OH271856   0.488   3.781   0.117  0.4841  0.2643  0.1551
16814TIP3    H171857   0.419   3.842   0.142  1.1827  2.0117 -1.9140
16814TIP3    H271858   0.454   3.695   0.144 -0.1513  1.5218  3.9675
16815TIP3   OH271859   4.964   4.380   3.893 -0.6284  0.0433  0.1495
16815TIP3    H171860   4.877   4.348   3.918 -2.1284  0.6613 -3.6564
16815TIP3    H271861   5.019   4.302   3.896 -2.0829 -1.0597 -0.3528
16816TIP3   OH271862   3.155   5.267   5.112  0.4365  0.2833  0.2409
16816TIP3    H171863   3.085   5.215   5.151 -0.0392  0.5326 -0.2708
16816TIP3    H271864   3.149   5.352   5.154  1.1415 -0.0204  0.9931
16817TIP3   OH271865   1.512   6.288   3.191  0.2248  0.4827 -0.0953
16817TIP3    H171866   1.507   6.360   3.128  0.0180  1.5424  1.0924
16817TIP3    H271867   1.496   6.329   3.276  0.1900 -0.9597  0.6273
16818TIP3   OH271868   4.771   5.239  14.251  0.4656 -0.4617  0.1491
16818TIP3    H171869   4.758   5.244  14.157  1.6449 -1.8391 -0.1370
16818TIP3    H271870   4.802   5.149  14.266 -0.4090 -0.5179  1.9472
16819TIP3   OH271871   3.609   2.404   6.115  0.9413 -0.2515  0.3315
16819TIP3    H171872   3.547   2.440   6.052  0.3873  1.4433  1.7705
16819TIP3    H271873   3.688   2.457   6.105  0.9107 -0.0822  0.9260
16820TIP3   OH271874   2.007   5.840   5.528 -0.3497 -0.0547 -0.2160
16820TIP3    H171875   1.989   5.748   5.546 -0.0721 -0.7473 -2.9821
16820TIP3    H271876   1.932   5.886   5.566 -0.7489 -1.4430  0.7882
16821TIP3   OH271877   6.138   0.924  12.694 -0.0595 -0.2154  0.1925
16821TIP3    H171878   6.160   0.864  12.622 -1.1876 -1.9234  1.2123
16821TIP3    H271879   6.223   0.952  12.728  0.5018 -1.1561 -0.3879
16822TIP3   OH271880   0.968   2.330  13.350 -0.0986 -0.1168 -0.3982
16822TIP3    H171881   1.042   2.387  13.371 -0.4967 -0.2587  1.6075
16822TIP3    H271882   1.000   2.242  13.370 -0.9474 -0.1264  1.0682
16823TIP3   OH271883   0.753   0.650  16.687  0.3261  0.0181  0.1087
16823TIP3    H171884   0.784   0.564  16.716 -1.2318 -0.7808 -0.4852
16823TIP3    H271885   0.658   0.644  16.691  0.0583  0.6475 -2.8784
16824TIP3   OH271886   5.699   5.227   4.857 -0.2804  0.0915 -0.8520
16824TIP3    H171887   5.737   5.164   4.918 -1.2873  1.7542  1.6461
16824TIP3    H271888   5.635   5.176   4.807 -0.3792 -1.0623  0.4077
16825TIP3   OH271889   1.929   2.837  11.479 -0.0307  0.4509 -0.5108
16825TIP3    H171890   1.834   2.847  11.473 -0.2091  0.3048  1.4236
16825TIP3    H271891   1.956   2.899  11.547  0.7398 -1.8802  1.4627
16826TIP3   OH271892   6.523   0.863  14.475 -0.2452  0.2897 -0.6964
16826TIP3    H171893   6.579   0.786  14.485 -0.1957  0.4583  0.4574
16826TIP3    H271894   6.454   0.835  14.414 -2.1205 -1.7892  2.1498
16827TIP3   OH271895   4.193   1.518  12.004  0.2686 -0.7119  0.2078
16827TIP3    H171896   4.204   1.542  12.096 -0.8612 -2.1575  0.7529
16827TIP3    H271897   4.176   1.601  11.959  1.7087  0.1193  1.1379
16828TIP3   OH271898   0.701   6.513   0.721  0.0233  0.2791 -0.3994
16828TIP3    H171899   0.670   6.602   0.704  0.9719  0.3674 -1.8656
16828TIP3    H271900   0.684   6.499   0.814 -2.2866  1.1185 -0.6178
16829TIP3   OH271901   1.524   2.831  15.821 -0.2829  0.4573 -0.2581
16829TIP3    H171902   1.558   2.863  15.904 -0.9100 -1.6069  0.8653
16829TIP3    H271903   1.433   2.861  15.818 -0.0276  1.2353 -0.6310
16830TIP3   OH271904   2.359   5.950   1.540 -0.2362 -0.0327 -0.2769
16830TIP3    H171905   2.313   5.900   1.607 -0.7522 -0.0340 -0.6307
16830TIP3    H271906   2.395   5.884   1.480  0.3367 -0.0369  0.0654
16831TIP3   OH271907   4.197   5.446   3.910 -0.0481 -0.0112 -0.0152
16831TIP3    H171908   4.229   5.384   3.845 -1.8202  0.9266 -1.9147
16831TIP3    H271909   4.276   5.491   3.942  0.9731 -1.3417 -0.5817
16832TIP3   OH271910   0.992   2.203   2.928 -1.1380  0.7149 -0.4557
16832TIP3    H171911   0.914   2.258   2.916 -0.6807  1.2393 -1.1509
16832TIP3    H271912   1.022   2.222   3.017 -1.5303  0.8718 -0.3560
16833TIP3   OH271913   0.379   1.442  12.996 -0.6702  0.1883 -0.0904
16833TIP3    H171914   0.323   1.444  12.918 -0.5976  0.3860 -0.1371
16833TIP3    H271915   0.358   1.359  13.038 -1.2397  0.4072  0.0689
16834TIP3   OH271916   5.758   3.187  11.665  0.0739  0.2216  0.8604
16834TIP3    H171917   5.751   3.092  11.667  1.3415  0.0746 -0.3865
16834TIP3    H271918   5.743   3.214  11.756 -0.5608 -1.1248  1.1803
16835TIP3   OH271919   5.986   1.056  16.417 -0.0952 -0.0274  0.4663
16835TIP3    H171920   6.077   1.084  16.423  0.2784 -1.3835  2.1520
16835TIP3    H271921   5.986   0.987  16.351  0.2002 -0.2993  0.7440
16836TIP3   OH271922   6.488   2.359  16.954  0.1228 -0.1188 -0.2555
16836TIP3    H171923   6.535   2.437  16.983 -2.5777  2.0962 -1.3322
16836TIP3    H271924   6.454   2.320  17.034  0.3124  0.6692  0.2190
16837TIP3   OH271925   6.103   5.375   2.730 -0.1948 -0.2531 -0.0930
16837TIP3    H171926   6.021   5.377   2.779 -0.4798  0.6308 -0.5900
16837TIP3    H271927   6.132   5.465   2.728  1.7958 -0.7797  1.6809
16838TIP3   OH271928   6.755   6.697  11.267 -0.1403  0.3495  0.3561
16838TIP3    H171929   6.800   6.625  11.310  1.3632  0.0445 -1.5664
16838TIP3    H271930   6.708   6.742  11.337  2.1458 -0.0994  2.2958
16839TIP3   OH271931   0.710   6.064  17.128 -0.2193  0.3981  0.4492
16839TIP3    H171932   0.722   6.142  17.183  0.2832  0.1659  0.6777
16839TIP3    H271933   0.687   6.099  17.042  1.2467  0.8649  0.2106
16840TIP3   OH271934   2.027   6.279   6.113  0.1490  0.0383 -0.3468
16840TIP3    H171935   1.975   6.333   6.053  3.8163  1.0389 -2.9662
16840TIP3    H271936   2.082   6.226   6.055  2.2071 -0.7740  2.1721
16841TIP3   OH271937   3.261   3.437  12.185  0.0186  0.1231 -0.2868
16841TIP3    H171938   3.332   3.462  12.126 -1.9036  4.4985 -1.1168
16841TIP3    H271939   3.242   3.517  12.235 -2.5339 -1.6597  1.8682
16842TIP3   OH271940   3.138   3.208   0.166  0.0053  0.0411  0.2846
16842TIP3    H171941   3.190   3.149   0.111  2.5769  0.7355  1.8463
16842TIP3    H271942   3.138   3.291   0.118 -0.9421 -0.3114 -0.3792
16843TIP3   OH271943   3.103   1.812  12.019 -0.2641 -0.1654  0.1867
16843TIP3    H171944   3.181   1.769  11.982 -1.2789 -2.0255  0.0818
16843TIP3    H271945   3.093   1.892  11.968  1.3512 -0.0900 -0.0593
16844TIP3   OH271946   2.874   0.246   1.206 -0.5977 -0.3219  0.1292
16844TIP3    H171947   2.814   0.172   1.221 -1.4404  0.2731 -0.1786
16844TIP3    H271948   2.850   0.277   1.118  0.1486 -0.0494  0.0222
16845TIP3   OH271949   4.228   0.957  12.765  0.1866  0.1478  0.0145
16845TIP3    H171950   4.305   0.935  12.712 -0.3382  1.5653 -1.3996
16845TIP3    H271951   4.154   0.943  12.707 -0.7171 -1.5226  1.4628
16846TIP3   OH271952   6.035   5.632  15.339  0.3685 -0.8869 -0.1452
16846TIP3    H171953   6.029   5.634  15.244 -0.0973 -2.0459 -0.1587
16846TIP3    H271954   6.003   5.545  15.363  1.5694 -1.0446  0.9977
16847TIP3   OH271955   2.670   2.684   1.618 -0.5935  0.1804 -0.3186
16847TIP3    H171956   2.729   2.609   1.627 -0.1595  0.7719  3.0192
16847TIP3    H271957   2.593   2.660   1.670  0.2069  2.5265  2.1821
16848TIP3   OH271958   0.189   6.180  12.570 -0.2436  0.1380  0.4241
16848TIP3    H171959   0.102   6.160  12.605 -0.1316 -0.4134  0.4042
16848TIP3    H271960   0.248   6.121  12.618  0.1499  0.6719  0.6002
16849TIP3   OH271961   1.173   3.221  11.913  0.1704  0.2665 -0.5512
16849TIP3    H171962   1.099   3.211  11.854  0.3041  1.2018 -0.8891
16849TIP3    H271963   1.144   3.181  11.995 -0.6354  0.4443 -0.7444
16850TIP3   OH271964   1.651   2.478   2.083  0.5472 -0.1791  0.3233
16850TIP3    H171965   1.647   2.384   2.070  2.0619 -0.4075  1.2762
16850TIP3    H271966   1.744   2.498   2.089  0.3058  1.5206 -0.7128
16851TIP3   OH271967   0.051   5.577  15.320  0.3106 -0.0058  0.2240
16851TIP3    H171968   0.090   5.496  15.287 -1.1199 -0.7594  0.3042
16851TIP3    H271969  -0.035   5.582  15.277  1.1043  2.5013 -1.3205
16852TIP3   OH271970   3.466   1.084   1.903  0.5870 -0.1493 -0.1440
16852TIP3    H171971   3.379   1.125   1.904  0.9321  0.6003  0.4068
16852TIP3    H271972   3.486   1.072   1.810  0.2473  0.4537 -0.2979
16853TIP3   OH271973   6.714   5.818   1.288  0.0665 -0.6166  0.7429
16853TIP3    H171974   6.795   5.824   1.337 -1.9105 -0.1745  4.3139
16853TIP3    H271975   6.710   5.899   1.237  1.7647 -0.6012  0.5973
16854TIP3   OH271976   3.292   3.761   1.557  0.1477  0.4376 -0.1360
16854TIP3    H171977   3.332   3.779   1.642  1.1503  1.2815 -0.7481
16854TIP3    H271978   3.367   3.747   1.499 -0.5356 -0.6636 -0.7761
16855TIP3   OH271979   4.292   6.537   4.317  0.4947 -0.0589  0.3248
16855TIP3    H171980   4.322   6.490   4.239  4.2413  2.4935 -0.0073
16855TIP3    H271981   4.243   6.612   4.282 -0.7046 -0.6694  0.6369
16856TIP3   OH271982   4.748   0.238   0.425 -0.3238  0.1706  0.2561
16856TIP3    H171983   4.676   0.256   0.365 -1.0611 -1.7654  0.5134
16856TIP3    H271984   4.744   0.144   0.441  1.9689  0.0861  0.6664
16857TIP3   OH271985   1.119   5.839   2.716  0.4193 -0.4675 -0.0469
16857TIP3    H171986   1.109   5.934   2.712  0.5767 -0.4930 -2.6574
16857TIP3    H271987   1.115   5.818   2.810 -0.6650  1.9715  0.5165
16858TIP3   OH271988   4.279   0.814   3.435 -0.1632  0.0681  0.4178
16858TIP3    H171989   4.280   0.909   3.437  2.3932  0.1096  0.7500
16858TIP3    H271990   4.257   0.789   3.525  0.6632  0.3853  0.7168
16859TIP3   OH271991   2.035   1.363  17.011  0.3917 -0.1203  0.2198
16859TIP3    H171992   2.117   1.401  16.979  0.0576  0.6125  0.2207
16859TIP3    H271993   1.967   1.405  16.959 -0.2195  1.4963  2.1521
16860TIP3   OH271994   4.488   5.922   0.939  0.0647 -0.0926  0.2914
16860TIP3    H171995   4.482   5.896   1.031 -0.2573  0.5597  0.4595
16860TIP3    H271996   4.474   6.017   0.940 -3.5977 -0.4706 -0.7631
16861TIP3   OH271997   0.764   5.912   1.296 -0.3066 -0.5034 -0.3228
16861TIP3    H171998   0.759   6.007   1.303 -2.1941 -0.5702 -0.4080
16861TIP3    H271999   0.856   5.895   1.274 -0.0555  1.3174 -0.8630
16862TIP3   OH272000   2.849   2.723  11.960 -0.4707  0.1394  0.1785
16862TIP3    H172001   2.846   2.774  12.041 -1.2865  0.6698 -0.1675
16862TIP3    H272002   2.818   2.784  11.892 -1.7221 -0.8784 -0.2089
16863TIP3   OH272003   1.067   5.500   5.361 -0.3169 -0.1850 -0.3894
16863TIP3    H172004   1.064   5.502   5.456  1.9081 -1.0516 -0.2451
16863TIP3    H272005   1.063   5.407   5.339 -1.0165  0.0113 -1.1886
16864TIP3   OH272006   1.064   3.087  16.171 -0.0539 -0.2907 -0.3373
16864TIP3    H172007   0.974   3.113  16.192  0.2096  1.8111 -1.5335
16864TIP3    H272008   1.090   3.147  16.101  1.8094 -1.7849 -0.9956
16865TIP3   OH272009   5.423   0.684   2.698 -0.1160 -0.0481 -0.1392
16865TIP3    H172010   5.397   0.735   2.621 -0.5204 -0.5746 -0.3580
16865TIP3    H272011   5.460   0.749   2.758  3.3963 -0.0204 -2.0672
16866TIP3   OH272012   1.596   1.962  12.726  0.2157  0.2982  0.6128
16866TIP3    H172013   1.667   1.930  12.672 -1.3454 -2.1049 -0.1516
16866TIP3    H272014   1.597   1.907  12.804 -0.7032  0.3146  0.6564
16867TIP3   OH272015   0.795   1.247   4.161 -0.4390 -0.5367 -0.1855
16867TIP3    H172016   0.718   1.245   4.218 -0.9112  0.1899 -0.7608
16867TIP3    H272017   0.758   1.267   4.074  0.3764 -0.4440 -0.5135
16868TIP3   OH272018   2.213   2.950  15.831  0.7067  0.3936  0.3383
16868TIP3    H172019   2.244   2.863  15.853 -0.9496  0.1261  1.8855
16868TIP3    H272020   2.212   2.952  15.735 -0.3929 -1.7762  0.2327
16869TIP3   OH272021   2.785   3.094   2.121  0.0649  0.4095  0.9156
16869TIP3    H172022   2.700   3.080   2.078 -0.7207  1.6218  1.9865
16869TIP3    H272023   2.849   3.056   2.061 -1.0136  1.7060 -1.1667
16870TIP3   OH272024   5.600   4.876   2.240 -0.1739  0.0262 -0.0556
16870TIP3    H172025   5.573   4.819   2.168  1.3213  0.6316 -1.1282
16870TIP3    H272026   5.656   4.942   2.200  0.9306  0.2238  1.6810
16871TIP3   OH272027   6.735   1.520  15.793  0.0977  0.2228 -0.3489
16871TIP3    H172028   6.709   1.500  15.883 -0.3669 -1.0315 -0.7478
16871TIP3    H272029   6.828   1.543  15.800  0.1120 -0.0434  0.4194
16872TIP3   OH272030   6.043   5.673   1.573 -0.0272  0.5600  1.0588
16872TIP3    H172031   6.113   5.646   1.633  0.2102  1.6542  1.2845
16872TIP3    H272032   5.969   5.615   1.594  0.3812  0.2741  1.7139
16873TIP3   OH272033   4.952   3.324  11.237  0.9830  0.3515 -0.4746
16873TIP3    H172034   4.859   3.334  11.215  0.7676  0.0931  0.2713
16873TIP3    H272035   4.983   3.256  11.178  0.5613  0.0674 -0.3750
16874TIP3   OH272036   4.088   4.255   4.608  0.5296  0.4812 -0.6383
16874TIP3    H172037   4.113   4.189   4.544  0.7190 -1.3017  1.1518
16874TIP3    H272038   4.113   4.216   4.692 -1.7630  1.7098  0.7022
16875TIP3   OH272039   4.280   3.348  11.762  0.3656 -0.1883 -0.5192
16875TIP3    H172040   4.211   3.354  11.696 -0.0302  0.4331 -0.0537
16875TIP3    H272041   4.253   3.408  11.831  1.5278  0.3123 -0.4733
16876TIP3   OH272042   1.709   0.641  13.056  0.5635 -0.0123 -0.2309
16876TIP3    H172043   1.657   0.721  13.041  1.1436  0.5198  0.5103
16876TIP3    H272044   1.789   0.673  13.098  0.8379 -0.9855 -0.0084
16877TIP3   OH272045   5.321   5.516   3.140  0.3346  0.1770  0.1383
16877TIP3    H172046   5.290   5.466   3.216 -0.1865 -0.4369 -0.4594
16877TIP3    H272047   5.246   5.570   3.115 -0.2774 -1.2543 -1.2682
16878TIP3   OH272048   6.114   3.316  12.900 -0.0172  0.3762 -0.2581
16878TIP3    H172049   6.038   3.375  12.906 -0.4768 -0.0222 -1.7567
16878TIP3    H272050   6.187   3.374  12.880  0.0623  0.7404  1.0049
16879TIP3   OH272051   6.184   4.658   4.304 -0.0223 -0.5439  0.4844
16879TIP3    H172052   6.143   4.575   4.329  0.4993 -1.1487 -0.5802
16879TIP3    H272053   6.254   4.670   4.369 -2.5933  1.1902  3.1623
16880TIP3   OH272054   4.105   1.052  14.862  0.3804  0.4691  0.3127
16880TIP3    H172055   4.116   0.962  14.831  1.2764  0.6199  0.1666
16880TIP3    H272056   4.133   1.050  14.953  1.8155  0.8744 -0.0860
16881TIP3   OH272057   2.255   1.818   0.047  0.5069 -0.0183 -0.2720
16881TIP3    H172058   2.312   1.892   0.027  0.8240 -0.2175 -0.1156
16881TIP3    H272059   2.310   1.759   0.099 -0.0623  0.1231  0.5001
16882TIP3   OH272060   6.758   3.971   2.606 -0.2852 -0.4412 -0.1565
16882TIP3    H172061   6.832   3.920   2.639 -0.2263 -1.2209 -1.4271
16882TIP3    H272062   6.775   3.980   2.512 -2.0549 -1.1192 -0.5833
16883TIP3   OH272063   1.183   2.965  12.557 -0.2630  0.3620  0.3066
16883TIP3    H172064   1.122   2.980  12.630 -0.5275  1.6663 -0.1507
16883TIP3    H272065   1.154   2.882  12.519 -1.9496  1.0572 -0.0468
16884TIP3   OH272066   0.013   2.633  13.752 -0.2702  0.2934 -0.3441
16884TIP3    H172067   0.016   2.701  13.685  0.1356  1.2496  0.6207
16884TIP3    H272068   0.104   2.605  13.762 -0.2448  0.5686  0.2160
16885TIP3   OH272069   5.103   0.092   4.701 -0.1348 -0.0820 -0.0278
16885TIP3    H172070   5.016   0.078   4.740  0.2371 -1.6943  0.2724
16885TIP3    H272071   5.120   0.012   4.651 -0.3034  1.5938 -3.0487
16886TIP3   OH272072   4.154   2.677  10.675 -0.0441  0.1406 -0.5171
16886TIP3    H172073   4.227   2.732  10.646 -0.1317 -0.1112 -1.2582
16886TIP3    H272074   4.097   2.671  10.598 -1.0447  0.6508  0.1593
16887TIP3   OH272075   6.265   6.608   5.894 -0.1823  0.4052 -0.3662
16887TIP3    H172076   6.268   6.695   5.935 -0.4042 -0.8586  2.5899
16887TIP3    H272077   6.355   6.576   5.899 -0.2952  0.0665 -0.5061
16888TIP3   OH272078   6.524   1.414  15.379  0.0270  0.4706  0.8545
16888TIP3    H172079   6.450   1.474  15.372  1.5500  2.3597 -0.7789
16888TIP3    H272080   6.492   1.331  15.346 -0.8485  1.8619 -2.2109
16889TIP3   OH272081   4.698   0.383   0.010  0.2014  0.6418  0.6417
16889TIP3    H172082   4.699   0.288  -0.001 -2.1691  0.3981  1.9540
16889TIP3    H272083   4.790   0.408   0.009  0.8829 -1.6741  0.3324
16890TIP3   OH272084   0.301   0.379  15.047 -0.2654  0.0216  0.2001
16890TIP3    H172085   0.333   0.444  15.109 -0.2625 -0.5396  0.7897
16890TIP3    H272086   0.367   0.378  14.977  0.8354 -0.8475  1.2137
16891TIP3   OH272087   3.900   2.634  14.839  0.0356 -0.2360 -0.2912
16891TIP3    H172088   3.965   2.609  14.904 -2.0566 -1.7837  1.3457
16891TIP3    H272089   3.819   2.649  14.889 -1.3198 -0.0483 -2.3849
16892TIP3   OH272090   6.755   2.986  15.543  0.1154 -0.2693 -0.0023
16892TIP3    H172091   6.725   2.965  15.455  2.0362 -0.5259 -0.6358
16892TIP3    H272092   6.687   2.949  15.600  0.3454 -2.8773 -1.2738
16893TIP3   OH272093   2.136   3.805   4.980 -0.3884 -0.3645 -0.3135
16893TIP3    H172094   2.058   3.858   4.998 -1.7363 -2.0759 -0.8675
16893TIP3    H272095   2.102   3.718   4.961  1.3723 -0.4483 -3.9308
16894TIP3   OH272096   2.989   5.991   1.558 -0.3390  0.6246 -0.5972
16894TIP3    H172097   2.992   6.084   1.536  0.1830  0.8158  0.2376
16894TIP3    H272098   3.080   5.962   1.550 -0.6327 -0.0266 -1.7030
16895TIP3   OH272099   1.328   3.139  13.461 -0.0085  0.0147 -0.0186
16895TIP3    H172100   1.422   3.129  13.446 -0.0079  0.4746 -0.3288
16895TIP3    H272101   1.291   3.054  13.439  0.5095 -0.6876  1.6310
16896TIP3   OH272102   3.688   4.687  13.074  0.2458  0.4332 -0.3683
16896TIP3    H172103   3.710   4.617  13.135 -0.3228 -0.0427 -0.7020
16896TIP3    H272104   3.722   4.657  12.990 -1.2017 -0.0935 -0.7919
16897TIP3   OH272105   0.490   4.797  15.433  0.1078  0.3899 -0.2600
16897TIP3    H172106   0.551   4.731  15.401 -0.4193 -1.0212  1.5203
16897TIP3    H272107   0.409   4.780  15.386 -0.3877 -1.0781  1.0396
16898TIP3   OH272108   6.561   4.262  13.187 -0.3975  0.6713 -0.3108
16898TIP3    H172109   6.580   4.280  13.095 -0.5732 -0.0447 -0.4895
16898TIP3    H272110   6.579   4.169  13.198 -1.2341  0.5538  0.1626
16899TIP3   OH272111   4.157   5.600   1.319 -0.2941  0.5191 -0.4415
16899TIP3    H172112   4.073   5.556   1.313 -0.4917  1.0521 -3.5545
16899TIP3    H272113   4.212   5.555   1.255  1.6356  0.5818  1.0749
16900TIP3   OH272114   0.927   6.079  15.775 -0.0170 -0.3234  0.1728
16900TIP3    H172115   0.936   6.071  15.680  1.9249  0.6743  0.2224
16900TIP3    H272116   0.852   6.138  15.787  1.8259  2.4920 -0.9466
16901TIP3   OH272117   1.704   1.326  13.229 -0.5525  0.5528 -0.1060
16901TIP3    H172118   1.629   1.310  13.287  0.0752 -0.0276  0.5587
16901TIP3    H272119   1.678   1.402  13.177 -2.3825 -0.7610 -1.2320
16902TIP3   OH272120   3.213   0.647  10.517  0.1454  0.0541  0.0659
16902TIP3    H172121   3.129   0.619  10.481  1.0852 -0.9751 -1.4130
16902TIP3    H272122   3.279   0.597  10.469  1.7001  1.7978  0.2267
16903TIP3   OH272123   0.261   5.310  13.834  0.3140 -0.4044  0.0766
16903TIP3    H172124   0.288   5.324  13.925  0.5353  0.8529 -0.1564
16903TIP3    H272125   0.337   5.271  13.792 -0.0188 -1.6360  0.5630
16904TIP3   OH272126   4.914   6.620   2.201 -0.4645  0.8176  0.0374
16904TIP3    H172127   4.870   6.586   2.123  1.1089 -0.5764 -0.2975
16904TIP3    H272128   4.990   6.668   2.167  0.8639 -0.7297  0.6583
16905TIP3   OH272129   0.740   5.680   5.813 -0.3062 -0.8562  0.8335
16905TIP3    H172130   0.692   5.699   5.893  0.4500 -0.9180  1.3133
16905TIP3    H272131   0.830   5.664   5.842 -0.3545 -2.5525  0.1538
16906TIP3   OH272132   3.056   0.929  11.529 -0.4994 -0.1226  0.0979
16906TIP3    H172133   3.095   1.010  11.495  1.2750 -1.6062 -1.6456
16906TIP3    H272134   3.119   0.898  11.594 -0.4041 -0.8398 -0.3271
16907TIP3   OH272135   4.495   2.715   1.986 -0.2901  0.3723  0.1967
16907TIP3    H172136   4.405   2.733   1.957  0.4241  2.7955 -0.8331
16907TIP3    H272137   4.502   2.620   1.987 -2.4044  0.1354 -1.2228
16908TIP3   OH272138   0.809   6.241   2.919 -0.0999 -0.0564 -0.3939
16908TIP3    H172139   0.798   6.318   2.974  2.3127 -1.1111  1.7509
16908TIP3    H272140   0.860   6.272   2.844  0.9540  0.4521  0.5117
16909TIP3   OH272141   1.014   1.231  16.515  0.4082 -0.1191 -0.2801
16909TIP3    H172142   1.033   1.149  16.468  0.5590 -0.9681  1.1742
16909TIP3    H272143   0.982   1.202  16.601  1.9441  1.3270  0.8511
16910TIP3   OH272144   0.762   6.602  14.761 -0.6186 -0.0174  0.1306
16910TIP3    H172145   0.734   6.513  14.736 -2.3690  0.4566  0.2586
16910TIP3    H272146   0.800   6.638  14.681 -1.6215 -0.2564 -0.4795
16911TIP3   OH272147   2.028   2.355   5.088  0.5844 -0.0197  0.3596
16911TIP3    H172148   2.019   2.359   5.183 -1.1322 -2.9001  0.4307
16911TIP3    H272149   1.978   2.278   5.062  1.5579  0.2704 -2.8390
16912TIP3   OH272150   4.799   0.902   0.932 -0.0058 -0.0541  0.6372
16912TIP3    H172151   4.756   0.849   0.865  0.7148 -2.5292  2.0023
16912TIP3    H272152   4.861   0.956   0.884 -1.2402  0.0951 -0.8814
16913TIP3   OH272153   4.937   5.388   0.727 -0.2958 -0.0735 -0.3014
16913TIP3    H172154   5.019   5.351   0.694 -0.0949 -1.2977  1.3818
16913TIP3    H272155   4.942   5.375   0.822 -1.4242  1.9742  0.1067
16914TIP3   OH272156   3.094   3.875   4.409  0.3097  0.6091 -0.1884
16914TIP3    H172157   3.147   3.797   4.428 -0.2561  0.0693 -0.7357
16914TIP3    H272158   3.099   3.928   4.488 -1.1260 -1.0425  1.0885
16915TIP3   OH272159   6.552   0.507  13.188 -0.8079 -0.1556 -0.0793
16915TIP3    H172160   6.491   0.513  13.262  0.5957 -0.3955  1.1623
16915TIP3    H272161   6.504   0.458  13.121 -1.6524 -1.1696  1.2007
16916TIP3   OH272162   5.301   2.210   3.462  0.5528  0.2882  0.9630
16916TIP3    H172163   5.261   2.123   3.465  1.9378 -0.4195  0.2857
16916TIP3    H272164   5.290   2.239   3.372  1.6411  0.0156  0.7271
16917TIP3   OH272165   5.719   6.462   1.518 -0.2307  0.0301 -0.7479
16917TIP3    H172166   5.709   6.557   1.508 -2.4972 -0.2882 -2.2884
16917TIP3    H272167   5.810   6.450   1.545  0.4017  2.5646 -1.5061
16918TIP3   OH272168   5.915   1.557  12.852 -0.1288 -0.5599  0.5696
16918TIP3    H172169   5.895   1.476  12.804 -0.5820 -0.0834 -0.0458
16918TIP3    H272170   5.904   1.532  12.944 -2.0599 -0.7414  0.3315
16919TIP3   OH272171   4.958   2.151   3.311 -0.5000 -0.0912  0.1722
16919TIP3    H172172   4.936   2.058   3.314  0.5792 -0.3682 -0.1737
16919TIP3    H272173   4.929   2.186   3.395  1.7031 -1.3547  1.5456
16920TIP3   OH272174   0.405   4.665   5.579 -0.0612  0.6419  0.5115
16920TIP3    H172175   0.371   4.623   5.658 -0.1918 -0.0130  0.1168
16920TIP3    H272176   0.413   4.593   5.516 -0.3251  1.2275 -0.1905
16921TIP3   OH272177   1.008   4.952  17.022 -0.1221  0.2639 -0.0651
16921TIP3    H172178   1.035   4.880  16.965 -0.0908  0.8202 -0.7826
16921TIP3    H272179   1.090   4.989  17.055 -0.1690 -0.5807  1.0248
16922TIP3   OH272180   0.060   4.097   4.434  0.1719  0.0373  0.2835
16922TIP3    H172181  -0.005   4.167   4.433  0.4071  0.2573 -1.2482
16922TIP3    H272182   0.069   4.070   4.343  1.7155 -0.4594  0.5447
16923TIP3   OH272183   3.973   1.949  11.360  0.0947  0.5390 -0.2103
16923TIP3    H172184   4.034   1.950  11.286  0.4718  1.8030  0.0991
16923TIP3    H272185   3.888   1.966  11.321 -0.0011 -0.6180 -0.5633
16924TIP3   OH272186   5.517   6.345   2.622 -0.0666 -0.0450 -0.2383
16924TIP3    H172187   5.455   6.330   2.551 -1.0586 -0.7160  0.7352
16924TIP3    H272188   5.549   6.434   2.608  1.1192 -0.7482 -2.5199
16925TIP3   OH272189   4.802   3.801  12.776 -0.1243  0.3072  0.1426
16925TIP3    H172190   4.891   3.765  12.774  0.5686  1.9343 -0.5443
16925TIP3    H272191   4.769   3.786  12.688  0.1505  1.2340 -0.1330
16926TIP3   OH272192   6.408   3.143  14.248 -0.2307 -0.0262 -0.4407
16926TIP3    H172193   6.450   3.228  14.261 -0.6762  0.5071 -2.2382
16926TIP3    H272194   6.468   3.080  14.287  0.4694  1.0395  0.2425
16927TIP3   OH272195   5.488   2.133  14.833 -0.0688 -0.0199 -0.3899
16927TIP3    H172196   5.542   2.203  14.868  1.4987 -0.7376 -1.2849
16927TIP3    H272197   5.443   2.097  14.910  0.2174  1.0002  0.2763
16928TIP3   OH272198   0.126   2.458   3.716  0.8035  0.7156 -0.1521
16928TIP3    H172199   0.070   2.385   3.690  0.7321  0.7831 -0.1887
16928TIP3    H272200   0.070   2.512   3.772  0.8814  0.6993 -0.0582
16929TIP3   OH272201   4.182   1.477  16.393 -0.1367 -0.5473 -0.0032
16929TIP3    H172202   4.100   1.433  16.369  0.2980 -0.4207 -1.8842
16929TIP3    H272203   4.153   1.557  16.437 -1.0495 -0.4243 -0.7815
16930TIP3   OH272204   5.178   2.945  16.736 -0.0217  0.7480 -0.1101
16930TIP3    H172205   5.242   3.001  16.779 -0.7877  1.1753  0.4998
16930TIP3    H272206   5.166   2.871  16.795 -0.8831  1.2095  0.3245
16931TIP3   OH272207   2.011   5.419   4.206  0.8842 -0.3326 -0.9067
16931TIP3    H172208   2.052   5.343   4.247 -1.0929 -0.8870  0.1627
16931TIP3    H272209   1.972   5.468   4.278  0.5418  0.7275 -1.7671
16932TIP3   OH272210   3.754   3.180  14.416 -0.2174  0.0484 -0.2566
16932TIP3    H172211   3.803   3.176  14.498 -0.9831 -3.8003  0.1818
16932TIP3    H272212   3.678   3.236  14.436  1.0760  1.5398  0.6977
16933TIP3   OH272213   4.516   0.783   4.193  0.2695  0.0135 -0.1540
16933TIP3    H172214   4.449   0.841   4.157  1.0492 -0.5436 -2.7499
16933TIP3    H272215   4.596   0.808   4.147  1.1918 -1.3420  0.6493
16934TIP3   OH272216   6.445   1.811   0.168 -0.3224  0.4320 -0.0315
16934TIP3    H172217   6.514   1.792   0.104 -0.8239  1.0461 -0.7807
16934TIP3    H272218   6.490   1.857   0.239  0.4294 -1.2069  0.5914
16935TIP3   OH272219   2.751   2.274  15.062 -0.1145 -0.6163  0.0107
16935TIP3    H172220   2.754   2.346  15.000  0.2377 -0.6472 -0.0089
16935TIP3    H272221   2.658   2.266  15.086  0.0436  1.0061  1.3795
16936TIP3   OH272222   3.278   6.028  15.597 -0.0485  0.5470 -0.0004
16936TIP3    H172223   3.262   5.965  15.527  1.1578  0.7008 -0.4338
16936TIP3    H272224   3.231   6.107  15.570  0.6361  0.6951 -0.7721
16937TIP3   OH272225   1.644   0.307  14.567  0.0165 -0.4623  0.3685
16937TIP3    H172226   1.591   0.340  14.639 -0.7445  0.9675 -0.7981
16937TIP3    H272227   1.733   0.334  14.588 -0.4616  1.6791 -0.1245
16938TIP3   OH272228   1.011   4.966   5.892  0.2300 -0.3926  0.0428
16938TIP3    H172229   1.098   4.926   5.898  0.8507  0.9705  0.6773
16938TIP3    H272230   0.986   4.983   5.983 -1.0218 -1.3719 -0.0869
16939TIP3   OH272231   5.180   6.668  13.709  0.7638  1.0775 -1.0382
16939TIP3    H172232   5.146   6.671  13.798  0.2820  0.0966 -1.1751
16939TIP3    H272233   5.274   6.679  13.719  0.9769 -0.9694 -0.1997
16940TIP3   OH272234   0.249   0.381   3.851 -0.3656  0.1328 -0.3917
16940TIP3    H172235   0.265   0.455   3.793  0.9122 -0.6818 -1.1283
16940TIP3    H272236   0.210   0.314   3.795  0.4591 -0.5026 -0.2176
16941TIP3   OH272237   5.619   4.440  14.512 -0.1907 -0.1312 -0.0712
16941TIP3    H172238   5.675   4.518  14.518 -0.3844 -0.0414  0.6820
16941TIP3    H272239   5.639   4.403  14.426  1.4872 -0.4506  0.4070
16942TIP3   OH272240   3.280   0.887   1.059 -0.8885  0.1857 -0.2240
16942TIP3    H172241   3.320   0.886   1.146 -0.4283 -1.1409 -0.4182
16942TIP3    H272242   3.323   0.959   1.014 -3.1226  2.7463  1.4841
16943TIP3   OH272243   3.391   2.310  13.444 -0.5193  0.6964 -0.2290
16943TIP3    H172244   3.449   2.384  13.465 -0.2345  0.2717  0.5248
16943TIP3    H272245   3.332   2.344  13.377  2.3838  0.3816 -3.2550
16944TIP3   OH272246   1.810   4.581  15.075  0.2677 -0.2048  0.0539
16944TIP3    H172247   1.829   4.503  15.022  0.5964  0.8585 -1.4868
16944TIP3    H272248   1.741   4.626  15.027  1.7612  1.6814 -0.4840
16945TIP3   OH272249   5.170   2.779  17.194 -0.2574 -0.0881 -0.0764
16945TIP3    H172250   5.237   2.792  17.260 -1.3587  0.1303  1.0429
16945TIP3    H272251   5.103   2.844  17.216 -0.7348 -0.1436 -1.2945
16946TIP3   OH272252   6.595   5.327  14.284  0.7332 -0.8604  0.2631
16946TIP3    H172253   6.526   5.369  14.335  0.0285 -1.1234 -0.4617
16946TIP3    H272254   6.627   5.257  14.341 -0.2308 -1.3280  0.2425
16947TIP3   OH272255   4.929   5.010   6.290 -0.1329 -0.5543  1.0710
16947TIP3    H172256   4.995   5.080   6.288 -1.3754  0.7951 -3.0922
16947TIP3    H272257   4.912   4.996   6.383  2.8768  2.0419  2.2046
16948TIP3   OH272258   2.475   1.430  11.673 -0.4089 -0.0558  0.8417
16948TIP3    H172259   2.393   1.450  11.719 -1.1829 -0.5197 -0.2891
16948TIP3    H272260   2.543   1.450  11.736 -1.3584  1.1441  1.5394
16949TIP3   OH272261   0.380   6.383   1.097  1.1818 -0.1880 -0.1558
16949TIP3    H172262   0.304   6.428   1.059 -0.6253 -2.1395  0.9175
16949TIP3    H272263   0.350   6.354   1.183  2.4317 -2.7993 -0.5076
16950TIP3   OH272264   2.825   3.569  13.723 -0.3024  0.5322  0.3735
16950TIP3    H172265   2.772   3.649  13.715 -0.2829  0.3877 -1.9408
16950TIP3    H272266   2.915   3.601  13.729 -0.3558  0.7093  0.2653
16951TIP3   OH272267   2.348   5.136  12.739  0.0895 -0.6349  0.3548
16951TIP3    H172268   2.271   5.161  12.789 -0.1007  1.0026 -0.6709
16951TIP3    H272269   2.315   5.077  12.671 -0.6148  1.2561 -1.0465
16952TIP3   OH272270   1.393   4.385   0.758 -0.2901  0.6218  0.2406
16952TIP3    H172271   1.459   4.326   0.722 -0.7640  0.7737 -0.9176
16952TIP3    H272272   1.440   4.467   0.772  0.3049  0.0778  1.6012
16953TIP3   OH272273   5.491   3.986   1.850  0.8116  0.3470 -0.2356
16953TIP3    H172274   5.500   4.053   1.782 -1.0395  0.2025 -0.6667
16953TIP3    H272275   5.464   4.033   1.928  2.1353  0.4047  0.2209
16954TIP3   OH272276   1.101   2.259  16.715  0.1253 -0.4649 -0.1958
16954TIP3    H172277   1.102   2.345  16.757  1.9621 -1.6594  2.4967
16954TIP3    H272278   1.164   2.267  16.643  0.9132  0.2346  0.5536
16955TIP3   OH272279   2.744   4.370   0.634  0.0270  0.2598  0.5715
16955TIP3    H172280   2.702   4.406   0.556  0.5877 -1.3834 -0.5425
16955TIP3    H272281   2.674   4.361   0.697 -1.2025 -1.6616 -0.9653
16956TIP3   OH272282   3.085   2.379   4.665  0.0428 -0.2050 -0.6977
16956TIP3    H172283   3.024   2.308   4.645  0.5185 -0.5973 -0.7714
16956TIP3    H272284   3.148   2.339   4.725 -0.6339  0.5998  0.5854
16957TIP3   OH272285   0.676   5.654  11.246 -0.2233 -0.0216  0.0155
16957TIP3    H172286   0.651   5.744  11.230 -0.9518  0.1126  1.7126
16957TIP3    H272287   0.599   5.602  11.222 -0.8984  0.0888  1.7904
16958TIP3   OH272288   1.409   1.703  13.991  0.0301  0.5769  1.0389
16958TIP3    H172289   1.485   1.686  14.046  0.8434  0.1428 -0.1841
16958TIP3    H272290   1.345   1.636  14.015  0.8513 -0.3853  0.6028
16959TIP3   OH272291   0.961   1.009  13.337 -0.5404  0.0059 -0.1108
16959TIP3    H172292   1.000   0.973  13.417  0.8975  0.5606 -0.5172
16959TIP3    H272293   0.898   1.074  13.368 -1.1239 -0.8586  0.5774
16960TIP3   OH272294   2.645   1.753  15.489  0.2576  0.3701 -0.8984
16960TIP3    H172295   2.690   1.691  15.431  1.2397  1.1939 -1.0587
16960TIP3    H272296   2.557   1.760  15.453 -0.1064 -1.4220 -0.4778
16961TIP3   OH272297   3.477   0.145   2.890  0.1910 -0.5861  0.0820
16961TIP3    H172298   3.518   0.082   2.948  0.3688 -0.9137 -0.3960
16961TIP3    H272299   3.384   0.122   2.892 -0.0948  0.5626  1.6718
16962TIP3   OH272300   4.473   2.201  16.832 -0.0782  0.2599  0.3256
16962TIP3    H172301   4.462   2.113  16.796  0.2538  0.8254 -1.2579
16962TIP3    H272302   4.460   2.259  16.757 -1.5731  1.6547  1.5808
16963TIP3   OH272303   1.901   6.070   4.791 -0.0598  0.0678  0.3931
16963TIP3    H172304   1.868   6.069   4.881 -3.1570 -0.0605 -0.6281
16963TIP3    H272305   1.877   5.984   4.756 -2.3183  1.4186 -1.6168
16964TIP3   OH272306   2.369   4.548   4.334 -0.2978  0.2414  0.1395
16964TIP3    H172307   2.418   4.505   4.404  1.5067  1.4402 -0.3394
16964TIP3    H272308   2.277   4.531   4.356  0.2814 -2.0245  1.0936
16965TIP3   OH272309   3.151   5.876   3.099 -0.0063 -0.3368 -0.7064
16965TIP3    H172310   3.079   5.812   3.099  2.2839 -3.1113  0.0918
16965TIP3    H272311   3.158   5.904   3.008 -0.9783 -1.3835 -1.1286
16966TIP3   OH272312   6.036   6.676  11.944 -0.5305 -0.2124 -0.4002
16966TIP3    H172313   6.121   6.638  11.921 -1.2289 -1.2771 -1.3398
16966TIP3    H272314   5.987   6.676  11.861 -0.4373  3.2235 -0.5957
16967TIP3   OH272315   5.355   5.396   4.129  0.7817  0.4501 -0.4214
16967TIP3    H172316   5.272   5.348   4.136  0.7107  0.2335 -2.2838
16967TIP3    H272317   5.381   5.412   4.220 -0.1750 -1.4028  0.2333
16968TIP3   OH272318   5.335   3.020  12.974 -0.2708  0.1592  0.0636
16968TIP3    H172319   5.312   2.986  12.887 -1.6639 -0.2760  0.5805
16968TIP3    H272320   5.253   3.056  13.008  0.4926  1.2863  0.7850
16969TIP3   OH272321   2.719   3.871  14.351  0.0632 -0.2657  0.4068
16969TIP3    H172322   2.654   3.940  14.335 -0.3502 -0.9756 -1.1918
16969TIP3    H272323   2.760   3.895  14.434 -0.9137  1.2385  0.4877
16970TIP3   OH272324   0.901   2.091  11.736  0.7121 -0.1396  0.2532
16970TIP3    H172325   0.807   2.108  11.742  0.9139  1.0091  0.2197
16970TIP3    H272326   0.932   2.149  11.667  1.7073  0.5921  1.2926
16971TIP3   OH272327   0.441   5.098   5.011  0.1270  0.0420 -0.1349
16971TIP3    H172328   0.373   5.057   4.957 -0.4555 -0.0072  0.6095
16971TIP3    H272329   0.488   5.025   5.051  1.1679  0.0567 -1.2764
16972TIP3   OH272330   5.470   3.965   0.273 -0.0539 -0.7507  0.3547
16972TIP3    H172331   5.468   3.890   0.333  1.0853 -1.2967 -0.2357
16972TIP3    H272332   5.537   4.023   0.310 -1.3313  0.2720  1.1163
16973TIP3   OH272333   5.233   4.220   3.192 -0.2501  0.1771 -0.3584
16973TIP3    H172334   5.218   4.296   3.248 -0.6817 -1.6580  2.2349
16973TIP3    H272335   5.170   4.155   3.224  2.1141 -2.2773 -0.3102
16974TIP3   OH272336   0.339   5.963   4.052  0.1252 -0.3116 -0.0604
16974TIP3    H172337   0.301   5.898   4.112 -1.8182  0.2087 -0.6688
16974TIP3    H272338   0.423   5.925   4.026  0.5605 -1.0134  2.1744
16975TIP3   OH272339   5.860   0.246   4.061  0.2241 -0.0379 -0.4093
16975TIP3    H172340   5.945   0.283   4.037  1.4919 -0.8364  2.4561
16975TIP3    H272341   5.855   0.164   4.013  1.1428 -0.0447 -0.5056
16976TIP3   OH272342   5.992   6.294  15.939  0.9772 -0.0867 -0.0075
16976TIP3    H172343   6.001   6.199  15.936 -1.4969 -0.3652 -1.0277
16976TIP3    H272344   5.908   6.312  15.897  1.7302  2.6314 -0.5780
16977TIP3   OH272345   4.191   6.530  14.572  0.0774 -0.3965 -0.3377
16977TIP3    H172346   4.112   6.476  14.569 -0.6725  0.6053  0.6195
16977TIP3    H272347   4.254   6.476  14.619  0.2032 -1.4687 -1.6718
16978TIP3   OH272348   4.790   5.432  12.090  0.6866 -0.7515  0.4477
16978TIP3    H172349   4.886   5.426  12.099  1.1755  0.7446 -2.5418
16978TIP3    H272350   4.764   5.494  12.158  1.6915 -1.6851  1.7577
16979TIP3   OH272351   2.398   3.454  15.912 -0.4481  0.4196  0.1687
16979TIP3    H172352   2.441   3.369  15.902  0.3813  0.9081 -0.5485
16979TIP3    H272353   2.467   3.518  15.895 -1.9297  1.2597 -3.6616
16980TIP3   OH272354   4.989   0.982  16.129 -0.5478 -0.0077  0.3690
16980TIP3    H172355   4.999   0.887  16.123  0.4407  0.1597 -1.0059
16980TIP3    H272356   4.996   1.013  16.039  0.9465  1.5353  0.9741
16981TIP3   OH272357   0.466   4.031  16.683 -0.2303  0.2452 -0.0527
16981TIP3    H172358   0.398   4.017  16.618  0.6547 -3.4395 -0.4493
16981TIP3    H272359   0.548   4.031  16.633  0.2775  0.9351  0.7455
16982TIP3   OH272360   5.397   1.097  13.262  0.1696  0.3258  0.1245
16982TIP3    H172361   5.424   1.034  13.329 -1.0763 -1.6901 -1.1715
16982TIP3    H272362   5.301   1.097  13.266  0.0341 -0.2104 -1.9150
16983TIP3   OH272363   2.388   1.750   2.409  0.5653  0.1103 -0.5162
16983TIP3    H172364   2.337   1.811   2.355 -0.5331 -0.5573 -0.2717
16983TIP3    H272365   2.476   1.754   2.373  0.5666  1.9594 -0.3953
16984TIP3   OH272366   4.968   3.716   0.139  0.3339  0.0614 -0.0255
16984TIP3    H172367   4.909   3.646   0.165  1.1240  0.3805  2.9759
16984TIP3    H272368   5.039   3.672   0.093 -1.0732 -0.5773 -1.6826
16985TIP3   OH272369   6.704   6.714   0.446 -0.4991  0.6575 -0.2621
16985TIP3    H172370   6.643   6.747   0.512 -1.5776  0.1876 -0.9988
16985TIP3    H272371   6.724   6.789   0.391  1.3206  1.3481  1.2278
16986TIP3   OH272372   2.571   6.646  11.371 -0.1261  0.0657  0.1144
16986TIP3    H172373   2.561   6.551  11.379 -0.6079  0.1001 -0.0551
16986TIP3    H272374   2.525   6.682  11.447 -0.6406  0.1919 -0.2477
16987TIP3   OH272375   3.686   2.455   1.689 -0.1093  0.4054 -0.2968
16987TIP3    H172376   3.769   2.414   1.665 -0.7836 -1.4462  0.3788
16987TIP3    H272377   3.644   2.393   1.748 -0.5425  2.7497  2.0337
16988TIP3   OH272378   0.207   1.246   5.077  0.1788  0.6205 -0.3081
16988TIP3    H172379   0.196   1.209   5.165 -1.1442 -0.3990 -0.8759
16988TIP3    H272380   0.273   1.191   5.036 -1.0476 -0.5112 -0.8023
16989TIP3   OH272381   2.224   1.733  14.410  0.0968 -0.1265 -0.2023
16989TIP3    H172382   2.278   1.797  14.364 -0.6463  1.4792  1.0663
16989TIP3    H272383   2.264   1.649  14.389 -1.4460  0.0827 -5.7070
16990TIP3   OH272384   1.202   0.775  16.675  0.0995  0.2095  0.1112
16990TIP3    H172385   1.181   0.722  16.752 -1.5019  0.1419 -0.3252
16990TIP3    H272386   1.119   0.818  16.653  0.3521 -0.2278 -1.9063
16991TIP3   OH272387   4.844   1.594   5.084  0.3404  0.3389  0.0792
16991TIP3    H172388   4.913   1.548   5.132  0.2518  1.5924  1.4760
16991TIP3    H272389   4.884   1.614   4.999  0.7158 -1.3736 -0.1943
16992TIP3   OH272390   3.668   3.985  12.108 -0.4336 -0.0319  0.2073
16992TIP3    H172391   3.574   4.001  12.116 -0.1775  0.6172  3.4315
16992TIP3    H272392   3.704   4.067  12.073 -1.0759 -0.4298 -1.4355
16993TIP3   OH272393   2.901   3.245   3.790 -0.2617 -0.2284  0.2732
16993TIP3    H172394   2.921   3.266   3.881  0.3446  1.5251 -0.2253
16993TIP3    H272395   2.860   3.159   3.794 -1.3525  0.3053  2.3370
16994TIP3   OH272396   4.723   5.463   1.156 -0.1505  0.5352 -0.0019
16994TIP3    H172397   4.685   5.472   1.243 -1.1216  0.4652 -0.4094
16994TIP3    H272398   4.758   5.551   1.136 -0.7940  0.8118  0.0666
16995TIP3   OH272399   2.421   4.013   5.917 -0.5105 -0.0063  0.1022
16995TIP3    H172400   2.345   3.989   5.970  0.6818 -2.0393  1.0226
16995TIP3    H272401   2.467   3.931   5.903  0.6135  0.8941 -1.9477
16996TIP3   OH272402   6.589   0.312  11.284  0.4243 -0.1943 -0.5775
16996TIP3    H172403   6.573   0.243  11.219  0.8371 -0.3715 -0.4968
16996TIP3    H272404   6.667   0.357  11.252 -0.4198  0.9090 -1.1793
16997TIP3   OH272405   4.352   4.034  13.283 -0.1188  0.3108  0.4490
16997TIP3    H172406   4.428   3.989  13.247  1.4055  2.6560  0.5135
16997TIP3    H272407   4.306   3.967  13.334  3.0491 -0.7951  2.1294
16998TIP3   OH272408   0.056   3.994  16.995  0.3640 -0.2840  0.1816
16998TIP3    H172409   0.016   4.013  16.910 -0.2273  1.1237  0.7486
16998TIP3    H272410   0.127   4.058  17.004 -0.6660  0.7286  1.4664
16999TIP3   OH272411   2.777   6.018   1.363  0.5464  0.4807 -0.1917
16999TIP3    H172412   2.862   5.991   1.397  0.3751 -1.5583 -1.2565
16999TIP3    H272413   2.729   6.047   1.441  1.4926 -0.3641  0.7377
17000TIP3   OH272414   5.391   3.338  10.850  0.2202  0.2863  0.0034
17000TIP3    H172415   5.473   3.386  10.843  0.9529 -0.9598 -0.3702
17000TIP3    H272416   5.414   3.248  10.824 -1.1468 -0.2009  0.4016
17001TIP3   OH272417   0.445   3.054   1.904  0.1971 -0.4546  0.2438
17001TIP3    H172418   0.441   3.146   1.880  2.3887 -1.0065 -2.9213
17001TIP3    H272419   0.369   3.014   1.862 -0.0459 -0.2809  0.5214
17002TIP3   OH272420   6.678   3.906  15.041  0.1712  0.3091 -0.5775
17002TIP3    H172421   6.642   3.834  14.989 -0.8905  1.4022 -1.4132
17002TIP3    H272422   6.732   3.863  15.107  0.2048 -1.2125 -1.5424
17003TIP3   OH272423   2.722   5.776  13.271 -0.0434  0.7303 -0.1549
17003TIP3    H172424   2.675   5.693  13.260  0.7061  0.3692 -0.7292
17003TIP3    H272425   2.814   5.754  13.256  0.3963  1.3216  1.4663
17004TIP3   OH272426   0.785   5.418   4.433 -0.8756 -0.1996  0.6607
17004TIP3    H172427   0.797   5.459   4.518  1.1109  0.4052  0.1358
17004TIP3    H272428   0.820   5.329   4.444 -0.5167 -0.0857  0.4537
17005TIP3   OH272429   4.937   5.751   0.476  0.1200 -0.0631 -0.7553
17005TIP3    H172430   4.900   5.720   0.394  0.0493  0.6726 -1.0146
17005TIP3    H272431   4.861   5.782   0.526  0.1186 -0.8440 -0.2524
17006TIP3   OH272432   4.764   3.562   1.095 -0.0351 -0.3114 -0.6834
17006TIP3    H172433   4.699   3.507   1.138  0.1187 -0.7924 -1.0669
17006TIP3    H272434   4.736   3.652   1.114  0.5367 -0.4874  1.2312
17007TIP3   OH272435   5.726   0.633   2.790 -0.1054 -0.0911  0.3628
17007TIP3    H172436   5.813   0.602   2.765 -0.5087 -1.5029  0.5851
17007TIP3    H272437   5.667   0.597   2.723 -0.5403  0.7004  0.3125
17008TIP3   OH272438   4.107   5.108  10.409  0.3978 -0.2865  0.2864
17008TIP3    H172439   4.083   5.015  10.418  3.2631 -1.4318 -2.3480
17008TIP3    H272440   4.025   5.151  10.384 -0.8841 -2.1904  0.9562
17009TIP3   OH272441   2.573   3.402   4.942  0.2853 -0.2841 -0.2336
17009TIP3    H172442   2.604   3.474   4.997  0.7206 -0.3903 -0.3364
17009TIP3    H272443   2.652   3.352   4.922  0.0906 -0.3812 -0.7600
17010TIP3   OH272444   1.974   5.997  15.287 -0.1437 -0.2464 -0.0492
17010TIP3    H172445   1.997   5.928  15.224 -0.0998  0.1790 -0.4978
17010TIP3    H272446   1.957   6.074  15.234  1.9488  0.6967  0.5603
17011TIP3   OH272447   0.042   3.932   1.770  0.1275  0.1991  0.2592
17011TIP3    H172448   0.076   3.904   1.685 -0.4651 -0.1767  0.1408
17011TIP3    H272449  -0.053   3.936   1.758  0.0725  0.6103  0.7684
17012TIP3   OH272450   0.675   0.698  15.853 -0.5596 -0.2177 -0.2576
17012TIP3    H172451   0.665   0.792  15.869 -2.1487 -0.3169 -0.5804
17012TIP3    H272452   0.770   0.686  15.844 -0.3407  1.3852 -0.4453
17013TIP3   OH272453   5.617   4.174  11.312 -0.2845  0.4444  0.4780
17013TIP3    H172454   5.595   4.175  11.405 -0.2070 -0.4409  0.5150
17013TIP3    H272455   5.551   4.117  11.273 -1.2048  1.9427 -0.2615
17014TIP3   OH272456   0.234   2.797  16.443 -0.2053 -0.1742 -0.0008
17014TIP3    H172457   0.170   2.868  16.442  0.0130  0.0209  0.0612
17014TIP3    H272458   0.184   2.720  16.413 -0.2127  0.1917 -0.9533
17015TIP3   OH272459   0.640   0.360  15.448  0.1600  0.0667 -0.5722
17015TIP3    H172460   0.562   0.406  15.417  0.0553 -0.0772 -0.5248
17015TIP3    H272461   0.692   0.345  15.369 -0.7872 -1.5957 -0.9269
17016TIP3   OH272462   0.558   1.612  14.712 -0.3018 -0.0321 -0.6793
17016TIP3    H172463   0.575   1.668  14.637  1.5820 -2.2283 -2.0015
17016TIP3    H272464   0.491   1.551  14.682  0.8563 -1.2712 -0.7899
17017TIP3   OH272465   1.184   4.937   0.756 -0.1401  0.0643  0.2454
17017TIP3    H172466   1.097   4.957   0.792  0.3736  1.4071  0.8022
17017TIP3    H272467   1.194   4.999   0.683  0.3302 -0.1207  0.1485
17018TIP3   OH272468   6.180   4.255  14.461  0.0795  0.3434  0.3404
17018TIP3    H172469   6.214   4.254  14.550 -0.2869 -1.3550  0.4940
17018TIP3    H272470   6.243   4.205  14.410 -0.8320 -0.6254  0.1206
17019TIP3   OH272471   2.917   0.664   2.057 -0.5605  0.6609 -0.0296
17019TIP3    H172472   2.975   0.703   1.992  0.0253  0.9943  0.6965
17019TIP3    H272473   2.848   0.729   2.071  0.3669  1.4265  1.1161
17020TIP3   OH272474   1.233   1.294   0.763 -0.7058 -1.0119  0.2039
17020TIP3    H172475   1.296   1.231   0.797  1.0056 -0.4289 -1.7003
17020TIP3    H272476   1.258   1.307   0.672  0.3141  3.8396  0.9009
17021TIP3   OH272477   2.837   6.513  16.668  0.5558  0.6395  0.4243
17021TIP3    H172478   2.820   6.420  16.678 -2.4647  1.2194  1.8909
17021TIP3    H272479   2.889   6.537  16.744 -0.2098  0.4364  1.0249
17022TIP3   OH272480   3.507   2.900  11.290  0.4956 -0.6774  0.0277
17022TIP3    H172481   3.461   2.981  11.314  0.2779 -0.3955 -1.2741
17022TIP3    H272482   3.534   2.914  11.199 -1.2790 -2.8381 -0.9240
17023TIP3   OH272483   0.221   5.910  10.817  0.5006 -0.8718 -0.8554
17023TIP3    H172484   0.271   5.964  10.757  0.7716  0.5943  0.6255
17023TIP3    H272485   0.135   5.900  10.775 -0.6100  3.2078  0.0120
17024TIP3   OH272486   4.319   4.193   1.023 -0.1409  0.7380 -0.3537
17024TIP3    H172487   4.238   4.234   1.055 -0.2384  1.2738 -1.2802
17024TIP3    H272488   4.297   4.159   0.936  0.1504 -0.6480  0.0761
17025TIP3   OH272489   0.728   2.342   1.082 -0.1839  0.1939  0.2167
17025TIP3    H172490   0.795   2.277   1.059 -0.1409  0.7877 -1.4802
17025TIP3    H272491   0.661   2.292   1.129 -0.2437 -1.1636 -1.2233
17026TIP3   OH272492   2.976   2.922  11.637  0.0811  0.2931  0.0564
17026TIP3    H172493   2.933   2.836  11.633 -0.3615  0.4590  1.1149
17026TIP3    H272494   2.971   2.947  11.729 -0.2881  1.7085 -0.3294
17027TIP3   OH272495   1.323   1.274   5.477 -0.3359 -0.7678  0.2327
17027TIP3    H172496   1.392   1.242   5.534  0.1789 -1.4777 -0.7522
17027TIP3    H272497   1.324   1.369   5.488 -0.0689 -0.8777  1.1806
17028TIP3   OH272498   1.116   0.020  16.464 -0.4234  0.0916  0.3762
17028TIP3    H172499   1.067   0.101  16.478 -0.7400 -0.3503  2.0739
17028TIP3    H272500   1.172   0.012  16.541 -1.7961 -2.2510  1.2283
17029TIP3   OH272501   4.656   2.304   1.296  0.0214  0.1708  0.1780
17029TIP3    H172502   4.749   2.288   1.280  0.1181 -1.0746  1.8191
17029TIP3    H272503   4.615   2.294   1.210  1.3612  0.6250 -0.5472
17030TIP3   OH272504   2.433   3.839  12.220 -0.5058  0.4318 -0.6717
17030TIP3    H172505   2.407   3.893  12.294 -0.7016 -1.0872  0.4107
17030TIP3    H272506   2.360   3.847  12.158 -0.2220  1.9191 -0.8664
17031TIP3   OH272507   2.365   0.546   2.610  1.1078  0.1532 -0.0795
17031TIP3    H172508   2.368   0.451   2.621  1.5064  0.2428  0.6654
17031TIP3    H272509   2.410   0.562   2.527  0.9316 -0.3160 -0.2677
17032TIP3   OH272510   3.401   1.444   1.885 -0.2281 -0.0863 -0.4950
17032TIP3    H172511   3.346   1.375   1.848 -0.3003  0.0791 -0.6992
17032TIP3    H272512   3.490   1.417   1.863 -0.2508 -0.1487 -0.5127
17033TIP3   OH272513   3.317   6.009  13.426  0.4135  0.6264  0.9386
17033TIP3    H172514   3.393   6.021  13.482  0.4072 -0.6836  1.2729
17033TIP3    H272515   3.253   5.962  13.481 -1.5226  3.5257  1.3718
17034TIP3   OH272516   2.736   5.371   0.123 -0.7690  0.6437  0.2704
17034TIP3    H172517   2.810   5.311   0.115 -0.3410  1.0006  1.4633
17034TIP3    H272518   2.730   5.390   0.216 -1.6864  1.4800  0.0541
17035TIP3   OH272519   3.832   5.585  13.356  0.0540  0.5303 -0.6304
17035TIP3    H172520   3.830   5.515  13.421 -0.0409  1.1100 -0.0007
17035TIP3    H272521   3.812   5.541  13.273  0.2624 -0.2296 -0.2885
17036TIP3   OH272522   6.572   2.255  12.303 -0.0259 -0.4042 -0.0463
17036TIP3    H172523   6.628   2.180  12.325  3.1231  1.8342  0.1220
17036TIP3    H272524   6.630   2.316  12.258 -2.4769  1.9795 -0.2135
17037TIP3   OH272525   1.599   4.667  12.113 -0.4251  0.1260 -0.1683
17037TIP3    H172526   1.684   4.699  12.083 -0.9464  0.7876 -0.9857
17037TIP3    H272527   1.613   4.645  12.205  0.9816 -1.0908 -0.6320
17038TIP3   OH272528   4.446   0.902  15.329  0.0246 -0.7176 -0.4006
17038TIP3    H172529   4.474   0.839  15.262  0.5904  0.8547 -1.7358
17038TIP3    H272530   4.508   0.975  15.320 -1.1040  0.4011  0.4981
17039TIP3   OH272531   0.197   2.771  11.980  0.2023 -0.1476  0.3856
17039TIP3    H172532   0.142   2.765  12.058  1.3829 -0.9275  1.1973
17039TIP3    H272533   0.159   2.707  11.919 -1.4904  1.3494 -0.2298
17040TIP3   OH272534   3.901   3.548   0.824 -0.4633 -0.0194 -0.1244
17040TIP3    H172535   3.837   3.583   0.762 -0.8439  1.3396  0.9692
17040TIP3    H272536   3.925   3.624   0.878  1.6046 -0.6332 -0.0954
17041TIP3   OH272537   2.426   5.170   3.444 -0.3906 -0.0357  0.2882
17041TIP3    H172538   2.490   5.235   3.415  0.0992 -1.0853 -1.0852
17041TIP3    H272539   2.468   5.128   3.520 -0.0643  0.2186  0.2506
17042TIP3   OH272540   3.172   5.482   3.676 -0.2140  0.5014 -0.0207
17042TIP3    H172541   3.078   5.465   3.668  0.0202 -1.1338  0.3808
17042TIP3    H272542   3.184   5.511   3.767 -0.3211  0.7444 -0.0825
17043TIP3   OH272543   0.848   5.874  14.784  0.2415  0.2455  0.1018
17043TIP3    H172544   0.853   5.826  14.866 -2.7035 -0.5048 -0.0391
17043TIP3    H272545   0.884   5.814  14.719  0.1090 -0.2364  0.4700
17044TIP3   OH272546   1.170   3.900   2.371  0.2606  0.5426  0.4210
17044TIP3    H172547   1.121   3.832   2.325  2.0007 -0.9784  0.6801
17044TIP3    H272548   1.215   3.949   2.302 -0.3765  0.9552  0.2861
17045TIP3   OH272549   1.539   5.437  13.480  0.0704  0.1130 -0.1309
17045TIP3    H172550   1.521   5.361  13.425  0.4952 -0.2626  0.2356
17045TIP3    H272551   1.466   5.440  13.542  0.1452 -0.1086 -0.0300
17046TIP3   OH272552   5.911   6.466   1.267  0.0083 -0.3811  0.2950
17046TIP3    H172553   5.981   6.531   1.271 -1.2267  0.9443  1.4378
17046TIP3    H272554   5.894   6.442   1.358 -2.4301  0.9642  0.2794
17047TIP3   OH272555   6.544   2.141  11.702  0.3341  0.1156  0.3328
17047TIP3    H172556   6.496   2.120  11.782 -0.4752  3.5622  0.9186
17047TIP3    H272557   6.636   2.139  11.727  0.2033 -0.7402  0.7831
17048TIP3   OH272558   1.249   4.400   1.961 -0.3140 -0.0228  0.1800
17048TIP3    H172559   1.342   4.411   1.984 -0.1900  0.7725 -0.6270
17048TIP3    H272560   1.235   4.306   1.962  0.1607 -0.1079  1.5904
17049TIP3   OH272561   4.424   6.437  11.297  0.4861 -0.1035  0.1276
17049TIP3    H172562   4.468   6.521  11.307  1.5710 -0.8198  1.8917
17049TIP3    H272563   4.474   6.391  11.230  0.1200  0.4763 -0.5629
17050TIP3   OH272564   0.511   0.107   3.910  0.2173 -0.2678 -0.0411
17050TIP3    H172565   0.556   0.176   3.959 -1.5105  0.9561 -0.0991
17050TIP3    H272566   0.428   0.095   3.955 -0.1043 -1.3309 -0.8649
17051TIP3   OH272567   1.845   4.413   0.406  0.2055 -0.0352  0.5978
17051TIP3    H172568   1.919   4.354   0.417  0.0791 -1.0071 -2.6893
17051TIP3    H272569   1.768   4.359   0.423  0.1700 -0.2455 -0.1627
17052TIP3   OH272570   4.371   0.849   4.870 -0.3071 -0.5868  0.4447
17052TIP3    H172571   4.312   0.912   4.913 -1.4413 -1.0197 -0.4296
17052TIP3    H272572   4.337   0.763   4.895  0.2211 -0.8519  0.2749
17053TIP3   OH272573   1.481   4.771  10.845  0.2309  0.4377  0.4147
17053TIP3    H172574   1.518   4.686  10.868 -1.3401 -0.5915 -0.6415
17053TIP3    H272575   1.529   4.834  10.899 -0.1279 -1.3489  3.0122
17054TIP3   OH272576   3.147   1.825   2.861  0.3867  0.2415 -0.6057
17054TIP3    H172577   3.060   1.806   2.897  1.5907 -2.9303  1.0695
17054TIP3    H272578   3.134   1.825   2.766 -1.5109  0.1756 -0.3768
17055TIP3   OH272579   1.266   5.255   5.116 -0.5604 -0.4847 -0.2685
17055TIP3    H172580   1.250   5.229   5.026 -1.0478 -1.3961  0.0701
17055TIP3    H272581   1.235   5.181   5.169 -1.8780  0.7384  0.7363
17056TIP3   OH272582   0.410   0.361  14.551  0.2785 -0.3396 -0.5474
17056TIP3    H172583   0.451   0.275  14.552 -0.2158 -0.5886  1.0509
17056TIP3    H272584   0.482   0.423  14.564  0.4667 -0.5992 -0.3487
17057TIP3   OH272585   3.242   3.573  15.747 -0.0829 -0.0269  0.3264
17057TIP3    H172586   3.304   3.646  15.743 -1.2140  0.9356 -0.1728
17057TIP3    H272587   3.238   3.540  15.657  1.0973 -1.3278  0.7095
17058TIP3   OH272588   3.145   4.504  12.542 -0.4740  0.5201 -0.5167
17058TIP3    H172589   3.123   4.430  12.486  0.1872  0.1871 -0.3479
17058TIP3    H272590   3.218   4.547  12.498 -0.1309  0.4167 -0.0618
17059TIP3   OH272591   1.875   4.697   0.410 -0.5639 -0.6374 -0.1435
17059TIP3    H172592   1.916   4.719   0.326  1.7546 -1.5158  0.6771
17059TIP3    H272593   1.838   4.610   0.396 -1.4762 -0.1741 -0.6637
17060TIP3   OH272594   1.824   1.120   6.448 -1.0784  0.0141  0.4565
17060TIP3    H172595   1.737   1.081   6.443 -0.6258 -0.9666 -0.0857
17060TIP3    H272596   1.820   1.196   6.391 -1.2086 -0.7849 -0.6173
17061TIP3   OH272597   4.107   3.829   0.079  0.0150 -0.4826 -0.2956
17061TIP3    H172598   4.153   3.778   0.146  1.1386 -0.4293 -1.0051
17061TIP3    H272599   4.169   3.834   0.007 -0.4229  1.1388 -0.5819
17062TIP3   OH272600   0.699   4.141  11.684  0.2715 -0.0847 -0.0153
17062TIP3    H172601   0.634   4.195  11.729 -0.4958  0.0094 -1.1947
17062TIP3    H272602   0.706   4.180  11.597 -0.1965 -1.8009 -0.8469
17063TIP3   OH272603   4.964   6.537   2.664 -0.0819  0.3139  0.1225
17063TIP3    H172604   4.919   6.569   2.586  0.9264 -0.2048 -0.7036
17063TIP3    H272605   5.055   6.563   2.651 -0.0111  0.7927  1.4486
17064TIP3   OH272606   0.769   3.368  14.452  0.2274  1.0974 -0.0609
17064TIP3    H172607   0.747   3.277  14.433 -1.5110  1.3140  0.6521
17064TIP3    H272608   0.792   3.369  14.544 -1.3449  1.5818  0.3662
17065TIP3   OH272609   3.319   3.171  13.694 -0.2415 -0.1283 -0.2618
17065TIP3    H172610   3.306   3.076  13.703  1.7946 -0.4513 -0.1810
17065TIP3    H272611   3.279   3.208  13.773  1.2726 -1.2004  1.0635
17066TIP3   OH272612   5.405   2.412  13.768  0.1508 -0.2373  0.0832
17066TIP3    H172613   5.419   2.433  13.676  0.1688  0.1094  0.1612
17066TIP3    H272614   5.309   2.404  13.776 -0.3018  3.8018  0.8287
17067TIP3   OH272615   4.951   4.736  12.392 -0.2843  0.0243  0.1054
17067TIP3    H172616   4.957   4.650  12.434  0.6476 -0.6597 -1.3477
17067TIP3    H272617   4.972   4.719  12.300 -0.4700  1.7548 -0.2864
17068TIP3   OH272618   2.430   2.222   0.547  0.3598 -1.1271 -0.7268
17068TIP3    H172619   2.379   2.161   0.494 -0.9219 -1.0655  0.3971
17068TIP3    H272620   2.390   2.218   0.634  0.1644  1.3711 -0.6211
17069TIP3   OH272621   0.595   1.420  10.874 -0.3401 -0.3039  0.5123
17069TIP3    H172622   0.569   1.492  10.817  0.2695 -0.9076 -0.5676
17069TIP3    H272623   0.534   1.424  10.948 -0.7962  0.8386  0.0959
17070TIP3   OH272624   3.465   0.924  12.837 -0.2700 -0.5550 -0.0831
17070TIP3    H172625   3.546   0.873  12.829 -0.6214 -0.8681 -2.1612
17070TIP3    H272626   3.472   0.966  12.923  1.2048 -2.0762  0.5979
17071TIP3   OH272627   0.184   4.632   3.965  0.8601  0.0363 -0.7085
17071TIP3    H172628   0.250   4.691   3.928  0.8967 -1.7797 -4.0084
17071TIP3    H272629   0.103   4.656   3.921  0.5782 -1.3059 -0.9841
17072TIP3   OH272630   0.784   2.901   5.238  0.0641  0.5498  0.4033
17072TIP3    H172631   0.780   2.957   5.160  0.2986  1.9819  1.3765
17072TIP3    H272632   0.703   2.851   5.237  0.2987  0.1606 -1.0274
17073TIP3   OH272633   4.152   3.704   0.382 -0.2699  0.1520  0.1495
17073TIP3    H172634   4.161   3.792   0.417  0.2308  0.6328 -1.1385
17073TIP3    H272635   4.232   3.659   0.411  0.6426  0.8518 -1.1881
17074TIP3   OH272636   2.006   6.474   1.016 -0.4891 -0.5106  0.7195
17074TIP3    H172637   2.091   6.509   1.042 -1.9342  2.7744  1.4794
17074TIP3    H272638   1.948   6.492   1.090 -2.0343 -2.0431 -0.0464
17075TIP3   OH272639   6.231   1.211  14.707 -0.7172  0.1339  0.0608
17075TIP3    H172640   6.249   1.304  14.716 -1.4709  0.1758  1.3665
17075TIP3    H272641   6.287   1.169  14.772 -1.3757 -0.1814  0.4441
17076TIP3   OH272642   4.127   1.564   1.616  0.3274  0.2001  0.2126
17076TIP3    H172643   4.180   1.491   1.647  0.6617 -0.4941 -1.8562
17076TIP3    H272644   4.178   1.642   1.638  1.1783 -0.3371  0.1771
17077TIP3   OH272645   6.189   2.253  16.485 -0.0296 -0.0494  0.0763
17077TIP3    H172646   6.282   2.232  16.473 -0.1637 -0.7035  0.1605
17077TIP3    H272647   6.189   2.338  16.530  0.5228  1.4636 -2.5167
17078TIP3   OH272648   6.102   6.334   0.870 -0.7633  0.4270 -0.2728
17078TIP3    H172649   6.035   6.320   0.937 -0.2034 -1.5168 -0.0479
17078TIP3    H272650   6.062   6.395   0.808 -3.1263 -1.3232 -0.6206
17079TIP3   OH272651   6.659   0.998   1.296  0.1822 -0.3906 -0.3641
17079TIP3    H172652   6.658   1.052   1.216  0.5455 -0.6673 -0.5572
17079TIP3    H272653   6.745   1.014   1.335  0.3202 -0.8845 -0.4619
17080TIP3   OH272654   5.535   4.223  15.761  0.3700 -0.6135  0.3069
17080TIP3    H172655   5.550   4.132  15.736 -0.2765 -1.1017  1.6540
17080TIP3    H272656   5.600   4.272  15.710  1.0982 -1.8662 -0.0199
17081TIP3   OH272657   3.604   5.873  16.744 -0.0406 -0.5864  0.3750
17081TIP3    H172658   3.615   5.779  16.730  1.5988 -0.5141  0.8563
17081TIP3    H272659   3.573   5.881  16.834 -1.1055 -0.6822  0.0299
17082TIP3   OH272660   0.280   5.499   5.934  0.1340  0.3072 -0.4477
17082TIP3    H172661   0.220   5.515   6.007  0.4690  1.4679 -0.4033
17082TIP3    H272662   0.241   5.426   5.886 -0.4034 -0.0686  0.5502
17083TIP3   OH272663   2.223   6.684   6.497 -0.2563 -0.1775  0.3830
17083TIP3    H172664   2.185   6.640   6.573 -1.1177 -0.9277 -0.4558
17083TIP3    H272665   2.195   6.775   6.506  0.0959 -0.1433  1.2325
17084TIP3   OH272666   1.630   2.622   2.855  0.3703 -0.5919 -0.4749
17084TIP3    H172667   1.683   2.555   2.812 -0.1012  0.3113 -2.5964
17084TIP3    H272668   1.684   2.702   2.849  0.2279 -0.4180  0.5086
17085TIP3   OH272669   4.595   2.752   3.148  0.3327  0.5308  0.4988
17085TIP3    H172670   4.561   2.745   3.059 -0.2200  0.0594  0.7354
17085TIP3    H272671   4.641   2.836   3.150 -1.1127  1.3631  0.2486
17086TIP3   OH272672   0.088   5.346  14.151  0.3898  0.8784 -0.2254
17086TIP3    H172673   0.125   5.427  14.186  0.6310 -0.0045  1.6966
17086TIP3    H272674  -0.006   5.352  14.168  0.4562  0.6146  0.2582
17087TIP3   OH272675   3.317   6.012  12.804 -0.1288 -0.4163 -0.2751
17087TIP3    H172676   3.296   5.959  12.726 -1.7795 -0.8231  0.3926
17087TIP3    H272677   3.251   6.082  12.803  0.2352 -0.0572  0.4300
17088TIP3   OH272678   0.920   2.813   4.523 -0.2903  0.2384 -0.0463
17088TIP3    H172679   0.943   2.724   4.497 -2.5805 -0.1859 -0.8910
17088TIP3    H272680   0.964   2.827   4.607  0.3377 -1.5709 -0.0443
17089TIP3   OH272681   0.683   5.514  14.050 -0.1086 -0.3752  0.3583
17089TIP3    H172682   0.750   5.451  14.024 -1.6928 -2.0087  0.0352
17089TIP3    H272683   0.657   5.487  14.138 -0.8696 -0.2663  0.1782
17090TIP3   OH272684   3.906   2.983  15.139 -0.1584 -0.4941  0.2240
17090TIP3    H172685   3.855   2.911  15.176 -0.3174 -0.4686  0.0546
17090TIP3    H272686   3.912   3.046  15.210  0.7495 -1.0599  0.6706
17091TIP3   OH272687   1.855   1.036  11.312  0.2427  0.3957  0.2709
17091TIP3    H172688   1.766   1.069  11.325  0.0202  0.2606 -0.7798
17091TIP3    H272689   1.862   1.024  11.217  1.1960 -0.1179  0.3946
17092TIP3   OH272690   3.864   0.350   6.775 -0.6097  0.4075 -0.7056
17092TIP3    H172691   3.865   0.372   6.682  1.2251  2.2106 -0.3500
17092TIP3    H272692   3.939   0.398   6.811 -0.3816 -1.4253  1.4447
17093TIP3   OH272693   5.569   4.138  16.388  0.1405 -0.3027  0.5825
17093TIP3    H172694   5.494   4.170  16.438  1.0381  2.7991  0.1545
17093TIP3    H272695   5.542   4.142  16.297  0.6865  0.4406  0.4494
17094TIP3   OH272696   1.299   3.904   2.592  0.2638 -0.1754  0.1179
17094TIP3    H172697   1.256   3.909   2.507 -1.0984  1.6688  0.8555
17094TIP3    H272698   1.364   3.975   2.590 -0.6093  0.6811  1.0134
17095TIP3   OH272699   2.522   4.403   6.614  0.3045  0.1591  0.3895
17095TIP3    H172700   2.444   4.448   6.648  1.7276  1.6815  1.8823
17095TIP3    H272701   2.493   4.313   6.599 -1.9262  0.8468  0.1344
17096TIP3   OH272702   3.402   3.517  15.117 -0.9338 -0.3588 -0.5563
17096TIP3    H172703   3.410   3.438  15.065 -1.9521 -0.9247  0.1135
17096TIP3    H272704   3.489   3.557  15.114 -0.3114 -1.6744 -0.6331
17097TIP3   OH272705   3.824   6.225  12.301 -0.3075 -0.0130 -0.3832
17097TIP3    H172706   3.864   6.305  12.267  0.5183  0.6969  2.0197
17097TIP3    H272707   3.898   6.167  12.320 -0.7822 -0.6752 -0.5304
17098TIP3   OH272708   3.307   4.133  13.240 -0.5315  0.0069 -0.1247
17098TIP3    H172709   3.336   4.054  13.196  0.3611  0.6552 -0.7306
17098TIP3    H272710   3.255   4.180  13.174  1.7627  1.5414 -0.9791
17099TIP3   OH272711   0.252   2.874  12.334 -0.0182  0.2425  0.1244
17099TIP3    H172712   0.265   2.949  12.276 -0.5216  0.9860  0.9533
17099TIP3    H272713   0.161   2.848  12.319 -0.7300  1.5639  1.8380
17100TIP3   OH272714   2.467   2.022   0.317 -0.2127  0.8064  0.2892
17100TIP3    H172715   2.442   1.934   0.345 -0.6657 -0.3206 -3.1907
17100TIP3    H272716   2.557   2.032   0.347 -0.3710 -0.5512  1.3352
17101TIP3   OH272717   1.129   3.707  13.440  0.3194 -0.0088  0.0166
17101TIP3    H172718   1.169   3.620  13.444 -0.5795 -0.4056  0.7341
17101TIP3    H272719   1.172   3.755  13.510 -0.0924 -0.2726  0.4508
17102TIP3   OH272720   3.856   0.030   6.276  0.3727  0.2688 -0.4179
17102TIP3    H172721   3.806   0.011   6.356  1.3145 -0.6454 -0.0206
17102TIP3    H272722   3.946   0.006   6.298  0.4193 -1.4640 -2.2265
17103TIP3   OH272723   2.315   4.292  13.620 -0.7503  0.4064  0.1056
17103TIP3    H172724   2.225   4.274  13.645 -0.9562  0.9100 -0.2503
17103TIP3    H272725   2.310   4.370  13.565 -0.1092  0.3820 -0.0042
17104TIP3   OH272726   2.933   4.957   4.775 -0.5015  0.4980 -0.0787
17104TIP3    H172727   2.995   4.953   4.848  1.0417 -0.6526 -1.3877
17104TIP3    H272728   2.869   4.888   4.794 -0.7897  0.9809  0.7495
17105TIP3   OH272729   3.768   6.553   3.213  0.3830 -0.4079 -0.9358
17105TIP3    H172730   3.794   6.462   3.225  1.2100 -0.0180  0.4685
17105TIP3    H272731   3.850   6.599   3.196  0.0126  0.1351 -1.2787
17106TIP3   OH272732   4.168   5.399   4.753 -0.1411  0.7159 -0.1421
17106TIP3    H172733   4.139   5.314   4.721  1.1070  0.4228 -0.5704
17106TIP3    H272734   4.092   5.456   4.744 -1.1906 -0.4868  0.7459
17107TIP3   OH272735   3.169   1.912  15.044  0.0662  0.3976 -0.3016
17107TIP3    H172736   3.088   1.874  15.079 -0.4948  0.8453 -1.0825
17107TIP3    H272737   3.238   1.856  15.079 -0.7558 -1.6556 -1.7712
17108TIP3   OH272738   3.398   4.648   0.977 -0.7978  0.0798  0.5292
17108TIP3    H172739   3.387   4.591   0.901 -1.0661 -0.2467  0.8122
17108TIP3    H272740   3.309   4.660   1.011 -0.5063 -1.1327  1.7842
17109TIP3   OH272741   3.078   0.712   4.859  0.1324 -0.1317 -0.4672
17109TIP3    H172742   3.002   0.672   4.817 -0.6517 -0.3409  1.0906
17109TIP3    H272743   3.060   0.706   4.952  1.4873  0.9727 -0.1016
17110TIP3   OH272744   5.922   1.366  14.627 -0.5727  0.1992  0.8140
17110TIP3    H172745   5.844   1.316  14.600 -0.8018  1.1271 -0.3407
17110TIP3    H272746   5.912   1.377  14.721 -1.5933 -0.1340  0.7585
17111TIP3   OH272747   5.729   2.975   3.408  0.0666 -0.5567 -0.9124
17111TIP3    H172748   5.634   2.986   3.406 -0.1166 -2.0956 -2.0578
17111TIP3    H272749   5.761   3.042   3.347 -0.3191 -0.3197 -0.8589
17112TIP3   OH272750   6.077   1.224   0.666 -0.0766  0.0667  0.2607
17112TIP3    H172751   6.040   1.281   0.734  2.5654 -0.4723  2.3394
17112TIP3    H272752   6.011   1.155   0.654 -1.6844  1.5082  0.4360
17113TIP3   OH272753   4.450   6.404  11.985  0.0166  0.2456  0.3691
17113TIP3    H172754   4.411   6.377  11.902 -1.2251  0.6977  0.7829
17113TIP3    H272755   4.535   6.360  11.987 -0.5878 -1.0174 -0.4336
17114TIP3   OH272756   0.239   4.336  11.882  0.1191  0.0376 -0.0508
17114TIP3    H172757   0.191   4.393  11.822  0.2464  0.8718  0.6170
17114TIP3    H272758   0.172   4.290  11.932  0.0177 -0.0811 -0.2949
17115TIP3   OH272759   3.022   5.230  13.972  0.5357 -0.2143  0.1007
17115TIP3    H172760   3.057   5.155  13.925 -2.1828 -1.8219  0.3952
17115TIP3    H272761   3.051   5.217  14.062  1.7441  0.2448 -0.2000
17116TIP3   OH272762   0.386   0.793   3.467  0.5898  0.1745 -0.0836
17116TIP3    H172763   0.446   0.760   3.534  1.6748  1.9992 -0.0894
17116TIP3    H272764   0.333   0.858   3.512  0.2825  0.3250 -0.6562
17117TIP3   OH272765   0.075   1.612  15.156  0.2405  0.1209  0.5357
17117TIP3    H172766   0.001   1.553  15.140  0.0523  0.1187  1.3489
17117TIP3    H272767   0.057   1.688  15.101 -0.4079  0.1452  0.7633
17118TIP3   OH272768   2.818   0.153  15.198  0.1295 -0.2181 -0.3282
17118TIP3    H172769   2.732   0.112  15.190 -0.8710  1.8802 -1.3362
17118TIP3    H272770   2.845   0.172  15.108  0.4475  1.3722  0.0573
17119TIP3   OH272771   3.923   4.926  10.618  0.6691 -0.2661  0.0108
17119TIP3    H172772   3.887   4.922  10.529 -1.6651 -1.6458  0.9056
17119TIP3    H272773   3.922   5.019  10.639  1.6956  0.1364 -1.5368
17120TIP3   OH272774   1.196   6.028  10.364  0.3099 -0.0660 -0.2572
17120TIP3    H172775   1.183   5.935  10.385 -0.4939  0.3084  1.0125
17120TIP3    H272776   1.289   6.035  10.343 -0.2356 -1.8261 -4.0972
17121TIP3   OH272777   5.702   5.887  13.016 -0.1620  0.3250  0.2091
17121TIP3    H172778   5.745   5.891  12.930  1.5545  2.6557  1.0676
17121TIP3    H272779   5.653   5.805  13.014 -0.2605  0.3192 -3.0115
17122TIP3   OH272780   5.931   1.745   2.336 -0.6337 -0.0973  0.0017
17122TIP3    H172781   6.001   1.712   2.280 -0.7183 -0.2126 -0.0385
17122TIP3    H272782   5.870   1.787   2.276 -0.2823  0.5706  0.1103
17123TIP3   OH272783   0.155   5.305   0.425 -0.1780  0.1209  0.2659
17123TIP3    H172784   0.153   5.324   0.519 -1.7624 -0.2806  0.3480
17123TIP3    H272785   0.094   5.231   0.415  0.7107 -0.4669 -0.9458
17124TIP3   OH272786   6.658   5.954  14.298  0.2381 -0.1144 -0.3072
17124TIP3    H172787   6.653   5.892  14.225 -1.4858 -1.4088  0.8240
17124TIP3    H272788   6.603   6.028  14.270  0.4660 -0.1017 -0.7365
17125TIP3   OH272789   6.115   3.762   5.549 -0.5609 -0.0392  0.3479
17125TIP3    H172790   6.114   3.857   5.543 -0.4043 -0.0509  0.1102
17125TIP3    H272791   6.025   3.735   5.534 -0.8378  0.1314  1.5602
17126TIP3   OH272792   0.021   2.555   2.362 -0.3256 -0.0026  0.2880
17126TIP3    H172793  -0.064   2.512   2.352 -0.7988  0.7248  1.0894
17126TIP3    H272794   0.039   2.594   2.276 -1.8261  1.6675  0.6911
17127TIP3   OH272795   0.321   5.582  11.489 -0.1131 -0.0903  0.0678
17127TIP3    H172796   0.345   5.549  11.576  0.8925  0.0858 -0.1280
17127TIP3    H272797   0.230   5.610  11.499 -0.0393 -0.1371  1.0453
17128TIP3   OH272798   4.202   3.538  11.300 -0.0090  0.0306 -0.3206
17128TIP3    H172799   4.259   3.616  11.299  0.1316 -0.0713 -0.1870
17128TIP3    H272800   4.206   3.505  11.210 -0.4556  0.4567 -0.5062
17129TIP3   OH272801   4.000   4.497  15.819 -0.1418 -0.1762 -0.0457
17129TIP3    H172802   3.962   4.431  15.760  0.7871 -1.3796  0.6498
17129TIP3    H272803   3.950   4.489  15.900 -2.4181  2.5008 -1.0347
17130TIP3   OH272804   0.607   1.526  15.989  0.1401  0.0478  0.9079
17130TIP3    H172805   0.670   1.512  15.919  1.3787 -0.2522  2.0496
17130TIP3    H272806   0.530   1.563  15.945  1.4444  1.3596 -0.3868
17131TIP3   OH272807   3.915   2.173   1.185  0.2669  0.5237  0.5770
17131TIP3    H172808   3.997   2.223   1.188  0.3146  0.5821 -0.8451
17131TIP3    H272809   3.846   2.240   1.182  0.2029  0.4785  0.9815
17132TIP3   OH272810   2.325   2.918   5.595  0.5435 -0.4412  0.0200
17132TIP3    H172811   2.235   2.898   5.622  1.1843 -0.2607  2.6222
17132TIP3    H272812   2.378   2.854   5.642  2.0345  2.1545  2.1811
17133TIP3   OH272813   4.667   5.047   6.161 -0.6092  0.5805  0.2770
17133TIP3    H172814   4.756   5.025   6.186 -1.0286 -0.4463  0.9265
17133TIP3    H272815   4.673   5.136   6.126  0.5145  0.8654  1.1467
17134TIP3   OH272816   2.068   1.099  17.136  0.4941 -0.2228  0.7064
17134TIP3    H172817   2.049   1.156  17.210  1.7045  0.0324  0.8479
17134TIP3    H272818   2.049   1.152  17.058 -2.0747 -0.9328  0.7816
17135TIP3   OH272819   5.228   1.567   2.009  0.1543  0.0227  0.2295
17135TIP3    H172820   5.226   1.472   1.998  0.0564 -0.0952  1.2100
17135TIP3    H272821   5.317   1.585   2.038  0.1115  0.2155  0.2397
17136TIP3   OH272822   0.547   3.813   4.221 -0.7884  0.0717  0.1011
17136TIP3    H172823   0.634   3.835   4.189 -1.2440  0.0296 -1.2631
17136TIP3    H272824   0.560   3.785   4.311  0.7016 -0.5692 -0.2837
17137TIP3   OH272825   1.119   1.673   4.863  0.5140 -0.3289 -0.1005
17137TIP3    H172826   1.211   1.699   4.863  0.1493  1.3523 -2.6022
17137TIP3    H272827   1.120   1.580   4.884  2.8427 -0.4631 -0.5875
17138TIP3   OH272828   1.266   5.347   5.768  0.3609  0.5541  0.0689
17138TIP3    H172829   1.184   5.396   5.762 -1.0639 -1.5631  1.0841
17138TIP3    H272830   1.270   5.298   5.686  1.9486  2.4744 -1.0908
17139TIP3   OH272831   1.843   2.518  14.322  0.9041 -0.1575 -0.1914
17139TIP3    H172832   1.768   2.542  14.267  0.8742 -0.3803 -0.2465
17139TIP3    H272833   1.919   2.533  14.266  0.7856 -2.1730 -0.9552
17140TIP3   OH272834   4.017   1.660   0.548  0.0047  0.0219 -0.0394
17140TIP3    H172835   4.098   1.709   0.561  0.2873 -0.1427 -1.0795
17140TIP3    H272836   4.045   1.568   0.545 -0.1423 -0.0038 -0.9043
17141TIP3   OH272837   3.428   0.465  12.957 -0.2090 -0.2084 -0.3172
17141TIP3    H172838   3.503   0.471  12.898 -0.8872  0.9807 -1.1287
17141TIP3    H272839   3.358   0.511  12.910 -2.2116 -3.3424 -0.7086
17142TIP3   OH272840   0.709   5.982  13.859  0.0178  0.1541 -0.6862
17142TIP3    H172841   0.638   5.977  13.795 -0.9173 -0.3066  0.3624
17142TIP3    H272842   0.779   5.929  13.820 -0.9131 -0.9816 -0.8829
17143TIP3   OH272843   5.577   2.412   0.965  0.4584  0.0341 -0.3561
17143TIP3    H172844   5.489   2.413   0.926  0.7555 -0.1308 -1.0298
17143TIP3    H272845   5.561   2.388   1.057 -0.1690 -0.3686 -0.5594
17144TIP3   OH272846   0.568   6.280   3.784 -0.1094 -0.4241  0.5074
17144TIP3    H172847   0.594   6.187   3.781  1.7631  0.0704 -0.7099
17144TIP3    H272848   0.599   6.316   3.701 -0.6754  1.3343  1.0126
17145TIP3   OH272849   6.037   5.839  16.482 -0.4039 -0.2371  0.0126
17145TIP3    H172850   5.950   5.873  16.505 -0.1017  0.8235 -0.3357
17145TIP3    H272851   6.098   5.893  16.532  0.0882 -0.5796 -0.2100
17146TIP3   OH272852   4.574   0.028   3.900  0.2199  0.2996  0.2408
17146TIP3    H172853   4.548  -0.064   3.902  0.5733  0.1458 -1.0375
17146TIP3    H272854   4.519   0.070   3.965 -1.2027 -0.5066 -0.3926
17147TIP3   OH272855   3.768   0.365  10.951 -0.1836 -0.0817  0.0394
17147TIP3    H172856   3.764   0.460  10.945  0.1006 -0.1303 -1.0797
17147TIP3    H272857   3.756   0.346  11.044  1.5815  1.1416  0.5494
17148TIP3   OH272858   1.681   1.037   2.518  0.4788 -0.0795  0.3237
17148TIP3    H172859   1.655   1.116   2.470  0.2294 -0.2468  0.1834
17148TIP3    H272860   1.774   1.027   2.498  0.3475 -0.2251 -0.2464
17149TIP3   OH272861   1.941   2.777  15.721  0.3796  0.3954  0.3409
17149TIP3    H172862   1.883   2.720  15.670  2.0836 -0.5145 -0.6661
17149TIP3    H272863   1.911   2.865  15.700  0.7356  0.0288 -1.9271
17150TIP3   OH272864   1.581   5.162  14.280 -0.6638  0.3457  0.3536
17150TIP3    H172865   1.485   5.165  14.273 -0.5063  1.1994 -2.4434
17150TIP3    H272866   1.612   5.203  14.200  2.0774 -3.1478 -0.5970
17151TIP3   OH272867   6.720   1.178  12.799  0.0424 -0.6926  0.3716
17151TIP3    H172868   6.790   1.130  12.753 -1.1939 -1.4803 -0.7478
17151TIP3    H272869   6.766   1.249  12.845  1.5463 -0.9984 -0.5944
17152TIP3   OH272870   4.393   6.235  12.967 -0.0605  0.0489  0.3498
17152TIP3    H172871   4.485   6.210  12.961 -0.1273 -0.2589  0.5801
17152TIP3    H272872   4.345   6.153  12.956 -0.3686  0.4223 -1.5332
17153TIP3   OH272873   4.797   1.426   2.392 -0.0499 -0.2248  0.4044
17153TIP3    H172874   4.874   1.432   2.336 -1.0192 -0.3531 -1.0042
17153TIP3    H272875   4.797   1.336   2.425  1.3949  0.2841  1.9850
17154TIP3   OH272876   2.655   2.665   0.768 -0.3081 -0.6065 -0.1122
17154TIP3    H172877   2.586   2.712   0.815 -0.1290  0.7940 -1.1795
17154TIP3    H272878   2.617   2.579   0.749 -0.5387 -1.0682  2.1477
17155TIP3   OH272879   0.444   6.312  12.498 -0.1695 -0.0086 -0.0684
17155TIP3    H172880   0.361   6.272  12.525  1.1280 -1.9559  1.2970
17155TIP3    H272881   0.437   6.403  12.526 -0.0653 -1.2015  4.6746
17156TIP3   OH272882   5.369   5.009   1.903 -0.3612 -0.1211 -0.4336
17156TIP3    H172883   5.445   5.064   1.919 -1.8626  2.6228 -1.8252
17156TIP3    H272884   5.306   5.035   1.970  0.1543 -3.0939  1.3510
17157TIP3   OH272885   0.871   3.363  17.152 -0.3124 -0.5758  0.2501
17157TIP3    H172886   0.824   3.443  17.175 -0.2075 -0.3472 -0.3247
17157TIP3    H272887   0.913   3.335  17.234 -0.6392 -0.2430  0.5323
17158TIP3   OH272888   0.075   6.331  12.294 -0.2519  0.1864 -0.2532
17158TIP3    H172889   0.132   6.336  12.218  0.5315  0.1678  0.3271
17158TIP3    H272890   0.053   6.238  12.301 -1.1685  0.3237 -1.0547
17159TIP3   OH272891   5.925   0.576   2.610  0.0281  0.0694 -0.7644
17159TIP3    H172892   5.904   0.485   2.632  1.2094 -0.2046 -0.7156
17159TIP3    H272893   5.989   0.569   2.539 -0.7452  0.8934 -1.5573
17160TIP3   OH272894   5.220   4.216   1.880 -0.5476  0.4941  0.0384
17160TIP3    H172895   5.163   4.266   1.939 -0.8735 -0.5680  0.6464
17160TIP3    H272896   5.265   4.283   1.829 -2.1083  1.3954 -0.2496
17161TIP3   OH272897   2.441   2.215   0.843 -0.2626  0.1189 -0.2523
17161TIP3    H172898   2.448   2.299   0.888 -0.1245 -0.8307  1.6180
17161TIP3    H272899   2.522   2.169   0.865 -0.1358 -0.3356 -1.6232
17162TIP3   OH272900   1.720   4.135   0.837 -0.4425  0.1369  0.1245
17162TIP3    H172901   1.780   4.061   0.843 -1.2853 -0.5012  1.0569
17162TIP3    H272902   1.776   4.212   0.828  0.5523 -0.3624  1.7288
17163TIP3   OH272903   4.169   1.884  13.736 -0.0509  0.2842 -0.4457
17163TIP3    H172904   4.122   1.905  13.817  1.4786  1.5041  0.1822
17163TIP3    H272905   4.245   1.834  13.764 -1.7547 -3.2443 -1.6168
17164TIP3   OH272906   2.116   4.882  11.499  0.0009 -0.2659 -0.0953
17164TIP3    H172907   2.074   4.859  11.582 -1.6420  0.2118 -0.7668
17164TIP3    H272908   2.091   4.973  11.483  1.0218 -0.0687 -0.7083
17165TIP3   OH272909   6.566   3.782  14.422  0.1966  0.0866 -0.4635
17165TIP3    H172910   6.539   3.852  14.481  0.4408 -0.2800  0.0849
17165TIP3    H272911   6.649   3.813  14.386 -0.4766  0.8058 -1.4667
17166TIP3   OH272912   0.726   2.267   5.787 -0.3175 -0.9110 -0.1096
17166TIP3    H172913   0.702   2.221   5.868  1.5809 -0.6361  0.6619
17166TIP3    H272914   0.819   2.285   5.797 -0.5865  1.4546 -1.2085
17167TIP3   OH272915   5.777   1.234  15.429  0.6481  0.1232  0.2618
17167TIP3    H172916   5.865   1.234  15.390  0.0822  2.1172 -1.2051
17167TIP3    H272917   5.733   1.160  15.388  0.6012  1.2069 -1.7993
17168TIP3   OH272918   5.502   6.617  16.623 -0.0658  0.1836 -0.1715
17168TIP3    H172919   5.497   6.713  16.619  0.1083  0.1635 -1.0063
17168TIP3    H272920   5.564   6.594  16.555  0.8612 -0.4503  0.8511
17169TIP3   OH272921   1.545   2.641   1.530  0.4673  1.2256  0.2920
17169TIP3    H172922   1.517   2.713   1.474  0.0147  0.5873 -0.3237
17169TIP3    H272923   1.464   2.609   1.570  0.1572 -0.9011 -1.8139
17170TIP3   OH272924   3.272   1.491  15.888  0.3604  0.3855 -0.3691
17170TIP3    H172925   3.249   1.478  15.980  1.1650 -0.8709 -0.3157
17170TIP3    H272926   3.225   1.570  15.862  0.7908  1.2379  1.3435
17171TIP3   OH272927   2.544   0.743  15.996  0.3123 -0.3652  0.3560
17171TIP3    H172928   2.561   0.824  16.045 -0.5824 -0.7211  1.2825
17171TIP3    H272929   2.607   0.746  15.924  0.3256  1.1385  0.3886
17172TIP3   OH272930   1.839   5.543  12.424 -0.5767 -0.1789  0.0055
17172TIP3    H172931   1.856   5.632  12.392 -0.5752  0.0214  0.5600
17172TIP3    H272932   1.746   5.543  12.448 -0.5198 -0.2659  0.2212
17173TIP3   OH272933   2.382   2.464   1.803 -0.3820 -1.2175 -0.2920
17173TIP3    H172934   2.464   2.461   1.851 -0.4478  0.4121 -0.0084
17173TIP3    H272935   2.315   2.482   1.870 -0.8174 -1.4246 -0.6635
17174TIP3   OH272936   0.532   3.773  13.701 -1.2084 -0.1508 -0.3646
17174TIP3    H172937   0.605   3.827  13.671  0.1899 -0.5096  2.1343
17174TIP3    H272938   0.482   3.754  13.621 -0.1214  2.3437 -1.7487
17175TIP3   OH272939   4.407   1.575  11.443  0.2441  0.9223  0.1980
17175TIP3    H172940   4.360   1.504  11.488  0.6500  1.1406  0.9698
17175TIP3    H272941   4.495   1.540  11.429 -0.2917  0.2583 -1.8453
17176TIP3   OH272942   5.381   3.103   1.538  0.1089  0.5638  0.2028
17176TIP3    H172943   5.308   3.080   1.596  1.6940 -1.6282  1.4811
17176TIP3    H272944   5.342   3.159   1.471 -2.0435  2.3796  2.7665
17177TIP3   OH272945   2.993   2.970  16.985 -0.7733 -0.4099 -0.0516
17177TIP3    H172946   3.057   2.971  16.914  0.1482 -0.0452  0.7622
17177TIP3    H272947   2.961   3.060  16.989  0.0501 -0.1342  0.7407
17178TIP3   OH272948   4.582   0.037  12.287  0.6803  0.8152  0.3941
17178TIP3    H172949   4.556  -0.039  12.235  0.9839  1.4200 -0.6665
17178TIP3    H272950   4.657   0.074  12.241  0.6644  1.6417  1.0011
17179TIP3   OH272951   3.713   0.072   6.061 -0.0858 -0.1606  0.2580
17179TIP3    H172952   3.665   0.149   6.091  1.3659  0.7862  0.2547
17179TIP3    H272953   3.773   0.052   6.133 -0.3494 -1.2372  0.2041
17180TIP3   OH272954   3.703   6.273  13.231 -0.3729 -0.3736  1.1667
17180TIP3    H172955   3.652   6.347  13.198  1.4788  0.4684  0.0023
17180TIP3    H272956   3.682   6.202  13.171  0.4001  0.2025  0.1714
17181TIP3   OH272957   2.181   4.259  11.527  0.0783  0.6122 -0.0463
17181TIP3    H172958   2.143   4.343  11.555  0.3866  0.1375  1.9204
17181TIP3    H272959   2.110   4.216  11.478 -0.5365  1.4527  0.0778
17182TIP3   OH272960   3.026   6.274  10.796 -0.8448  0.1859 -0.1427
17182TIP3    H172961   2.972   6.237  10.727  1.0802  1.6361 -2.6080
17182TIP3    H272962   3.099   6.213  10.806 -1.3375 -0.2501  1.0089
17183TIP3   OH272963   3.648   0.172  14.064 -0.2384  0.1497 -0.1287
17183TIP3    H172964   3.577   0.232  14.041 -0.1652  0.4041  0.2955
17183TIP3    H272965   3.687   0.148  13.980 -1.5917 -0.9521 -0.4716
17184TIP3   OH272966   5.357   4.420  13.345 -0.2906  0.1285 -0.2964
17184TIP3    H172967   5.442   4.460  13.323 -0.7611  1.2671 -0.1109
17184TIP3    H272968   5.327   4.381  13.264  0.8907 -1.2195 -0.1197
17185TIP3   OH272969   0.201   6.602  12.979 -0.3442  0.3291 -0.1706
17185TIP3    H172970   0.115   6.631  13.009 -0.3551 -0.7703  0.9948
17185TIP3    H272971   0.264   6.653  13.031 -0.3531 -0.7189  0.9315
17186TIP3   OH272972   3.593   5.589  10.650 -0.1874  0.1436 -0.2159
17186TIP3    H172973   3.628   5.597  10.739  0.1992  1.0956 -0.4413
17186TIP3    H272974   3.553   5.674  10.632 -0.4804 -0.1235 -0.8649
17187TIP3   OH272975   2.243   3.331   4.993  0.3931 -0.5338 -0.1395
17187TIP3    H172976   2.243   3.425   5.009 -1.0159 -0.4639 -0.3603
17187TIP3    H272977   2.333   3.310   4.971  0.3023  1.2759 -2.7988
17188TIP3   OH272978   0.346   2.328   0.922 -0.3516 -0.2733 -0.1216
17188TIP3    H172979   0.409   2.400   0.927 -0.1710 -0.3536 -1.0952
17188TIP3    H272980   0.289   2.342   0.998  0.5310  0.0765  0.4938
17189TIP3   OH272981   2.091   4.293   0.379  0.0341 -0.3426  0.4182
17189TIP3    H172982   2.175   4.315   0.421 -0.0116  0.6061  0.0381
17189TIP3    H272983   2.100   4.201   0.355  1.2879 -0.0595 -0.3310
17190TIP3   OH272984   0.021   0.162  10.942 -0.0345  0.2781 -0.0360
17190TIP3    H172985   0.088   0.209  10.992 -0.8133  0.4701  0.8783
17190TIP3    H272986   0.003   0.084  10.994 -0.3413  0.1054 -0.3979
17191TIP3   OH272987   3.498   2.053   6.351  0.7871 -0.8151  0.1354
17191TIP3    H172988   3.435   1.988   6.320  0.3230 -0.2221 -0.1922
17191TIP3    H272989   3.566   2.002   6.394  0.0943 -1.4721  0.4751
17192TIP3   OH272990   2.628   4.544  12.615 -0.3307  0.2545 -0.3440
17192TIP3    H172991   2.591   4.536  12.527  0.4974 -0.8586 -0.6214
17192TIP3    H272992   2.634   4.638  12.630  1.6342  0.5358 -2.4221
17193TIP3   OH272993   6.531   3.526   4.267 -0.3418  1.1997 -0.1691
17193TIP3    H172994   6.499   3.485   4.186 -1.6729  0.9695  0.4399
17193TIP3    H272995   6.519   3.459   4.334 -0.6853  1.9067  0.4889
17194TIP3   OH272996   1.549   2.370   4.535  0.1859 -0.3426  0.0575
17194TIP3    H172997   1.611   2.302   4.561  1.6464  2.0010  3.4263
17194TIP3    H272998   1.574   2.446   4.587 -4.6112  1.2763  0.4884
17195TIP3   OH272999   2.686   0.183  16.777  0.3057  0.4002  0.2062
17195TIP3    H173000   2.658   0.258  16.830  0.5924  0.3660  0.4115
17195TIP3    H273001   2.652   0.106  16.824  0.1310  0.3955  0.0712
17196TIP3   OH273002   3.915   1.409   3.142 -0.3278  0.2815 -0.0556
17196TIP3    H173003   3.869   1.328   3.164 -2.4257  1.8650  1.7751
17196TIP3    H273004   3.877   1.436   3.058 -0.0340 -0.3030 -0.3847
17197TIP3   OH273005   5.939   2.187   4.888 -0.0993 -0.2776  0.3948
17197TIP3    H173006   5.953   2.281   4.880 -0.8389 -0.2922 -1.6598
17197TIP3    H273007   5.970   2.151   4.805 -0.2080 -1.8093  0.9809
17198TIP3   OH273008   1.415   0.094   5.838  0.3834 -0.4444 -0.1230
17198TIP3    H173009   1.410   0.002   5.864 -0.0512  0.0439  1.7140
17198TIP3    H273010   1.333   0.111   5.793  0.5609 -1.0038 -0.6692
17199TIP3   OH273011   2.637   4.482  10.685 -0.2958  0.6761 -0.2883
17199TIP3    H173012   2.636   4.391  10.654  1.3575  1.0135 -1.4637
17199TIP3    H273013   2.641   4.535  10.606  0.7122  1.7022  0.4142
17200TIP3   OH273014   4.227   0.465   1.467  0.3326 -0.3364  0.0967
17200TIP3    H173015   4.261   0.528   1.404 -0.2884  1.0265  1.0703
17200TIP3    H273016   4.151   0.425   1.425  1.3498 -1.2416 -0.9371
17201TIP3   OH273017   3.890   2.020  16.501  0.0414 -0.2722  0.1899
17201TIP3    H173018   3.950   2.087  16.535  0.2995 -0.5573  0.3005
17201TIP3    H273019   3.884   1.955  16.571 -0.0901 -0.4390  0.0235
17202TIP3   OH273020   6.479   2.812  16.874 -0.0892  0.2623  0.1416
17202TIP3    H173021   6.521   2.895  16.852 -1.0644  0.5105 -0.8938
17202TIP3    H273022   6.409   2.803  16.810 -1.3346 -0.3475  1.5331
17203TIP3   OH273023   5.873   5.131  15.273 -0.8606  0.1555 -0.0480
17203TIP3    H173024   5.881   5.112  15.180  0.8054  1.1491 -0.1451
17203TIP3    H273025   5.798   5.190  15.279 -0.8438  0.2632 -0.7977
17204TIP3   OH273026   0.335   1.163  16.570 -0.0487  0.6319 -0.0342
17204TIP3    H173027   0.351   1.201  16.483 -0.2602  1.6838  0.3707
17204TIP3    H273028   0.416   1.118  16.592  0.2816  1.0099 -0.4603
17205TIP3   OH273029   2.237   4.079  13.355  0.3483  0.8782 -0.4109
17205TIP3    H173030   2.155   4.058  13.311 -1.2351  3.0913  1.3006
17205TIP3    H273031   2.253   4.171  13.336  0.3351  1.5507  2.3249
17206TIP3   OH273032   2.630   0.442   4.288  0.0379  0.5510  0.9241
17206TIP3    H173033   2.632   0.487   4.203  1.2739 -1.2572 -0.0764
17206TIP3    H273034   2.551   0.388   4.284  0.2027  0.3158  0.8382
17207TIP3   OH273035   1.197   3.458  11.709  0.7275  0.0931  0.1796
17207TIP3    H173036   1.269   3.395  11.718  0.1793 -0.6339 -0.4137
17207TIP3    H273037   1.197   3.506  11.791  0.4581 -1.4210  1.0912
17208TIP3   OH273038   5.698   2.671  16.328 -0.2218  0.2031 -0.5436
17208TIP3    H173039   5.637   2.652  16.257  0.5967  2.0712 -1.8434
17208TIP3    H273040   5.751   2.592  16.336 -1.4073 -0.6465 -0.8673
17209TIP3   OH273041   4.484   6.144  11.575 -0.6835  0.2268  0.2264
17209TIP3    H173042   4.486   6.137  11.479 -1.1712 -0.6521  0.2716
17209TIP3    H273043   4.440   6.065  11.604 -0.4929  0.4609  1.1926
17210TIP3   OH273044   6.245   1.217  15.187  0.0684 -0.0241 -0.5150
17210TIP3    H173045   6.193   1.206  15.107 -0.1614 -0.1444 -0.3512
17210TIP3    H273046   6.185   1.193  15.257 -0.2336  1.6507 -0.1776
17211TIP3   OH273047   4.888   0.578  11.055  0.7541  0.2728 -0.2002
17211TIP3    H173048   4.969   0.534  11.028  1.2753  0.6886  0.6488
17211TIP3    H273049   4.875   0.550  11.145  0.2770  0.6933 -0.1380
17212TIP3   OH273050   4.438   1.423  16.515 -0.3845  0.0354 -0.3360
17212TIP3    H173051   4.350   1.432  16.480 -0.2943  0.7573 -0.3921
17212TIP3    H273052   4.470   1.339  16.482 -0.8275  0.0541 -0.8016
17213TIP3   OH273053   0.832   1.835  11.486  0.3995 -0.4772  0.5193
17213TIP3    H173054   0.912   1.784  11.499 -0.4909 -1.6437  1.5814
17213TIP3    H273055   0.762   1.780  11.519 -0.8517  0.5879 -0.2551
17214TIP3   OH273056   0.714   1.628  11.644  0.3660 -0.2805 -0.4306
17214TIP3    H173057   0.774   1.591  11.709  0.2816 -0.8818 -0.6892
17214TIP3    H273058   0.633   1.645  11.694 -0.5399 -2.9826 -0.8260
17215TIP3   OH273059   6.244   2.988   3.023 -0.5673  0.2806  0.1866
17215TIP3    H173060   6.243   2.981   2.927 -0.7907  0.9470  0.1376
17215TIP3    H273061   6.329   3.029   3.043 -0.0160 -0.8929  0.3609
17216TIP3   OH273062   0.190   6.647   3.716 -0.9729  0.1533 -0.1216
17216TIP3    H173063   0.172   6.731   3.674  1.5549  0.7309 -0.2256
17216TIP3    H273064   0.147   6.653   3.801  0.8673  2.4723  0.7385
17217TIP3   OH273065   0.581   1.694  15.024  0.2516 -0.6001 -0.5681
17217TIP3    H173066   0.637   1.738  14.960 -0.0241 -0.6278 -0.8281
17217TIP3    H273067   0.493   1.726  15.005  0.4075  1.0303  1.1336
17218TIP3   OH273068   0.086   5.080  14.963 -0.1193  0.8688  0.4159
17218TIP3    H173069   0.090   5.101  15.057  1.4323 -4.8793  2.0751
17218TIP3    H273070  -0.008   5.075  14.945 -0.6251 -1.5901  2.9519
17219TIP3   OH273071   4.245   5.707   5.278 -0.6691  0.2740  0.4738
17219TIP3    H173072   4.235   5.781   5.219 -1.5025  0.1785  0.4773
17219TIP3    H273073   4.284   5.744   5.357 -0.2401  0.5355  0.1425
17220TIP3   OH273074   6.014   5.849   4.771 -0.6696  0.3699  0.0960
17220TIP3    H173075   6.107   5.840   4.749 -0.5891  1.0391  0.1239
17220TIP3    H273076   6.009   5.825   4.864 -0.6764 -0.5345 -0.1359
17221TIP3   OH273077   5.318   1.811   1.162  0.9491 -0.4904  0.3335
17221TIP3    H173078   5.283   1.900   1.162 -0.6514 -1.0491 -1.5384
17221TIP3    H273079   5.411   1.823   1.143  0.8419  0.8060  0.5160
17222TIP3   OH273080   2.034   4.169   0.836 -0.4251 -0.9508 -0.1613
17222TIP3    H173081   2.048   4.256   0.871 -1.7730 -0.4146 -0.8556
17222TIP3    H273082   2.110   4.152   0.781  0.3364 -0.6457  0.7789
17223TIP3   OH273083   4.445   2.338   5.727 -0.1751 -0.1701  0.0312
17223TIP3    H173084   4.441   2.259   5.780  3.7408 -0.3999  0.2317
17223TIP3    H273085   4.429   2.410   5.789  0.9475 -0.6170  0.8788
17224TIP3   OH273086   4.010   4.192   0.843  0.3133 -0.2691  0.1478
17224TIP3    H173087   4.016   4.284   0.868 -0.2568 -0.5477  1.3616
17224TIP3    H273088   4.084   4.179   0.784  0.9365  0.7454  0.6724
17225TIP3   OH273089   5.008   2.050  11.068 -0.2819  0.7214  0.0800
17225TIP3    H173090   5.055   2.103  11.133 -0.0628 -1.5315  1.8686
17225TIP3    H273091   5.075   1.990  11.033 -1.2689 -0.9741  0.9745
17226TIP3   OH273092   5.428   1.347  13.913  0.5322 -0.0689 -0.1412
17226TIP3    H173093   5.504   1.384  13.870 -0.0461 -0.4221 -1.5236
17226TIP3    H273094   5.461   1.269  13.957  1.0843  0.1333 -0.1914
17227TIP3   OH273095   1.298   4.457   3.243  0.0490 -0.1674 -0.5760
17227TIP3    H173096   1.369   4.407   3.284 -0.8573 -0.7988  0.2739
17227TIP3    H273097   1.231   4.391   3.222 -0.3994  0.4495 -1.1289
17228TIP3   OH273098   0.421   3.953  14.637  0.1441 -0.0759 -0.2151
17228TIP3    H173099   0.444   3.861  14.646  2.1031  0.5331  2.0328
17228TIP3    H273100   0.466   3.981  14.557  0.5720 -0.7687 -0.2235
17229TIP3   OH273101   4.559   5.337   0.615 -0.0374  0.1255  0.1199
17229TIP3    H173102   4.509   5.412   0.583 -1.9919 -1.5574 -0.9906
17229TIP3    H273103   4.529   5.325   0.705 -1.9384 -1.0279 -0.6159
17230TIP3   OH273104   0.917   6.404  16.412  0.3777  0.1822 -0.1788
17230TIP3    H173105   0.945   6.388  16.502  0.1470  1.9941  0.2652
17230TIP3    H273106   0.998   6.425  16.365  0.3643  0.4405 -0.0905
17231TIP3   OH273107   5.250   5.601  13.469 -0.2305 -0.2642 -0.1982
17231TIP3    H173108   5.203   5.663  13.414  1.0456  2.3488  1.4010
17231TIP3    H273109   5.183   5.563  13.526 -1.2960 -1.7382 -2.3166
17232TIP3   OH273110   4.937   0.163   1.209 -0.1069  0.0427  0.1267
17232TIP3    H173111   5.020   0.179   1.163  0.7304 -2.2094  0.7516
17232TIP3    H273112   4.915   0.248   1.247  1.5824  0.8492 -0.5731
17233TIP3   OH273113   4.069   3.211  14.515 -0.4886 -0.1570  0.5882
17233TIP3    H173114   3.991   3.210  14.571 -0.7019 -1.6138  0.3209
17233TIP3    H273115   4.108   3.124  14.527  1.0236  0.5004  0.5961
17234TIP3   OH273116   3.533   1.506  16.888  0.6400 -0.2590  0.0649
17234TIP3    H173117   3.500   1.418  16.908  0.5444  0.2199  2.2442
17234TIP3    H273118   3.623   1.506  16.919  0.7113  0.3616 -0.1220
17235TIP3   OH273119   5.554   3.862   5.028 -0.3568  0.3323 -0.3109
17235TIP3    H173120   5.610   3.821   4.962  0.2308  2.1013 -0.9720
17235TIP3    H273121   5.541   3.793   5.094  1.9151 -0.4181 -0.5477
17236TIP3   OH273122   6.059   4.624   0.252  0.1613 -0.3990 -0.1929
17236TIP3    H173123   6.082   4.637   0.344 -1.5165 -0.0439  0.2084
17236TIP3    H273124   6.054   4.713   0.216  0.1010 -0.5064 -0.4475
17237TIP3   OH273125   5.108   5.810   5.081  0.6279 -0.3264 -0.0973
17237TIP3    H173126   5.053   5.827   5.158  1.0469 -0.1389  0.1619
17237TIP3    H273127   5.197   5.822   5.112  0.7438  1.8406 -1.1376
17238TIP3   OH273128   1.849   2.311  14.547 -0.5641  0.1735 -0.2468
17238TIP3    H173129   1.858   2.357  14.631  1.4316  0.9163 -0.8076
17238TIP3    H273130   1.867   2.378  14.481  0.5908 -0.9836 -1.1618
17239TIP3   OH273131   4.198   0.583   3.309  0.2997 -0.0868 -0.0763
17239TIP3    H173132   4.188   0.677   3.322 -0.4456 -0.1097 -0.4400
17239TIP3    H273133   4.279   0.561   3.357  0.2943  0.6685  0.3028
17240TIP3   OH273134   0.772   2.507   0.161  0.1826 -0.0160  0.1342
17240TIP3    H173135   0.739   2.585   0.206  0.1421  0.8150 -1.2831
17240TIP3    H273136   0.731   2.434   0.208 -1.2807  0.8823  0.3242
17241TIP3   OH273137   1.151   0.649   0.822 -0.6872 -0.5314 -0.4472
17241TIP3    H173138   1.143   0.685   0.734 -0.3238 -0.8289 -0.6082
17241TIP3    H273139   1.089   0.699   0.875  0.1578  0.6686 -0.5475
17242TIP3   OH273140   2.169   3.150   6.636  0.0686  0.4219 -0.6250
17242TIP3    H173141   2.163   3.243   6.615 -0.5481  0.0704 -2.1322
17242TIP3    H273142   2.178   3.107   6.551 -1.4643 -1.0289 -0.0903
17243TIP3   OH273143   3.153   5.343   4.644  0.2743  0.0632 -0.1932
17243TIP3    H173144   3.145   5.387   4.559 -1.2297 -0.1441 -0.1878
17243TIP3    H273145   3.087   5.274   4.642 -0.9389  1.0767  1.7363
17244TIP3   OH273146   0.614   6.424   2.098  0.5704 -0.0291  0.5452
17244TIP3    H173147   0.541   6.470   2.139 -0.6495 -0.1730 -1.3765
17244TIP3    H273148   0.671   6.494   2.066  0.6685  0.0929  0.9791
17245TIP3   OH273149   3.433   3.140   6.317  0.1583  0.6675  0.4135
17245TIP3    H173150   3.444   3.235   6.315 -1.6393  0.9051  0.0872
17245TIP3    H273151   3.409   3.121   6.408 -1.4752  0.8324  0.0594
17246TIP3   OH273152   0.882   5.729   3.221 -0.1958  0.1626 -0.2758
17246TIP3    H173153   0.930   5.773   3.291  0.3754  1.4064 -1.4072
17246TIP3    H273154   0.826   5.797   3.184 -1.3359 -0.7601 -0.3089
17247TIP3   OH273155   0.333   4.537   5.811 -0.2024 -0.7679 -0.0793
17247TIP3    H173156   0.395   4.591   5.861  1.4107 -1.6890 -1.0178
17247TIP3    H273157   0.323   4.457   5.862 -0.0021 -0.9434 -0.3131
17248TIP3   OH273158   5.820   2.871   1.614  0.2726 -0.4046  0.5449
17248TIP3    H173159   5.867   2.948   1.644  0.4943 -0.2418 -0.2121
17248TIP3    H273160   5.728   2.892   1.627  0.3746 -0.6343  1.8138
17249TIP3   OH273161   4.147   2.607  11.412  0.1366  0.0700 -0.7761
17249TIP3    H173162   4.084   2.565  11.471  0.2329  2.6805  1.3542
17249TIP3    H273163   4.213   2.539  11.395 -1.1756 -1.5115  0.1244
17250TIP3   OH273164   6.501   2.107  14.451  0.3950  0.4968 -0.1695
17250TIP3    H173165   6.517   2.201  14.443 -1.8674  0.9166 -0.2744
17250TIP3    H273166   6.417   2.093  14.408 -0.1023 -1.2934  1.2775
17251TIP3   OH273167   6.372   1.300  13.389  0.6001 -0.1100 -0.5341
17251TIP3    H173168   6.414   1.384  13.374 -1.3487  0.8046 -1.1519
17251TIP3    H273169   6.338   1.274  13.304 -0.4898 -0.5506  0.0060
17252TIP3   OH273170   6.277   6.115  13.283  0.3390  0.3904 -0.7598
17252TIP3    H173171   6.271   6.191  13.225  0.2731  2.1348  1.4056
17252TIP3    H273172   6.186   6.099  13.310  0.5527  0.7564  0.2214
17253TIP3   OH273173   5.188   0.266   5.678  0.2305  0.1541 -0.1786
17253TIP3    H173174   5.276   0.295   5.702 -0.3867  0.0567  2.4641
17253TIP3    H273175   5.200   0.175   5.651  0.7762 -0.3224  1.5610
17254TIP3   OH273176   3.656   5.156  16.804  0.1432 -0.2370 -0.2827
17254TIP3    H173177   3.730   5.177  16.862  0.1205  1.8145 -0.9073
17254TIP3    H273178   3.694   5.158  16.716 -0.5156  0.1975 -0.5642
17255TIP3   OH273179   4.407   2.086  15.358 -0.1678  0.2223  0.0115
17255TIP3    H173180   4.413   2.158  15.296 -0.1480 -0.6465 -1.0158
17255TIP3    H273181   4.459   2.114  15.433  1.5162  0.4465 -1.1935
17256TIP3   OH273182   5.005   5.082  11.577  0.8697 -0.2920 -0.8017
17256TIP3    H173183   4.950   5.028  11.520 -1.2228  1.7734 -0.8889
17256TIP3    H273184   4.959   5.082  11.661  1.1162  0.9001 -0.6571
17257TIP3   OH273185   2.719   4.193  14.550  0.3084 -0.1100 -0.2853
17257TIP3    H173186   2.729   4.245  14.630 -1.1685  0.2571 -0.3132
17257TIP3    H273187   2.753   4.107  14.573 -0.4956 -0.1363  0.9085
17258TIP3   OH273188   0.036   1.958  11.767 -0.1095  0.3796 -0.1999
17258TIP3    H173189   0.080   1.882  11.803 -0.4710 -0.1374 -0.8380
17258TIP3    H273190   0.038   2.023  11.838 -2.0463 -1.0788  1.3100
17259TIP3   OH273191   3.100   6.508  12.375  0.1979 -0.6158 -0.4046
17259TIP3    H173192   3.109   6.428  12.429 -0.6007 -1.2916 -1.2454
17259TIP3    H273193   3.021   6.550  12.409  0.0948 -0.6728 -0.5730
17260TIP3   OH273194   6.475   3.653   0.172 -0.2518 -0.5181  0.3920
17260TIP3    H173195   6.563   3.622   0.150 -0.6399 -2.1266  0.9555
17260TIP3    H273196   6.432   3.577   0.212 -2.8621 -0.7296 -2.4198
17261TIP3   OH273197   6.274   3.257   1.123  0.1479 -0.1984  0.5389
17261TIP3    H173198   6.330   3.295   1.190  2.0768 -1.2431 -0.3854
17261TIP3    H273199   6.218   3.195   1.170 -1.1664  1.7095  1.6524
17262TIP3   OH273200   5.074   5.081   1.135  0.4273  0.7016 -0.2359
17262TIP3    H173201   5.058   5.000   1.086  0.8982  0.4873 -0.0401
17262TIP3    H273202   5.154   5.064   1.184  0.6012  1.3408 -0.2926
17263TIP3   OH273203   5.799   1.297   3.251  0.0936 -0.5604 -0.0438
17263TIP3    H173204   5.744   1.371   3.276  1.2211  0.8398 -1.5541
17263TIP3    H273205   5.877   1.305   3.306  0.8358  0.2212 -1.1815
17264TIP3   OH273206   6.083   2.179  12.527 -0.1829  0.0246  0.1690
17264TIP3    H173207   6.079   2.086  12.503 -0.7551  0.3728 -1.1309
17264TIP3    H273208   6.148   2.182  12.597  2.5449 -0.9039 -2.1178
17265TIP3   OH273209   6.559   5.339  16.298 -0.2900 -0.3128 -0.2410
17265TIP3    H173210   6.597   5.403  16.239  0.7411  0.7842  1.5324
17265TIP3    H273211   6.536   5.389  16.377 -0.3189 -1.9408  0.8447
17266TIP3   OH273212   1.408   0.586  12.286 -0.0192 -0.3025 -0.4792
17266TIP3    H173213   1.314   0.577  12.300  0.1872 -1.1941  0.5493
17266TIP3    H273214   1.445   0.504  12.320  1.2434  0.6154  0.4897
17267TIP3   OH273215   2.316   3.106  16.809 -0.3422  0.6280  0.1281
17267TIP3    H173216   2.244   3.093  16.746  0.2550  0.5047 -0.5424
17267TIP3    H273217   2.312   3.199  16.831  0.6477  1.1338 -1.6188
17268TIP3   OH273218   0.965   1.743  16.893  0.6479  0.4163  0.1118
17268TIP3    H173219   0.982   1.831  16.927  0.3474  1.5845 -2.5212
17268TIP3    H273220   0.874   1.746  16.865  1.0589 -0.1915 -1.3950
17269TIP3   OH273221   0.860   1.468   5.721 -0.1013 -0.0448  0.3868
17269TIP3    H173222   0.816   1.407   5.780  1.5080  0.3551  2.1189
17269TIP3    H273223   0.914   1.522   5.779  2.3753 -0.2745 -1.5044
17270TIP3   OH273224   5.747   5.893   5.913 -0.1309 -0.0953 -0.3148
17270TIP3    H173225   5.756   5.808   5.956 -0.9090  0.4091  0.8974
17270TIP3    H273226   5.676   5.936   5.960  1.3741  1.9298  0.2692
17271TIP3   OH273227   4.331   6.171  12.496  0.1805  0.1300 -0.4375
17271TIP3    H173228   4.350   6.208  12.582 -1.6619  0.9380 -0.3224
17271TIP3    H273229   4.354   6.241  12.434  1.0443 -0.2705 -0.5813
17272TIP3   OH273230   4.652   0.626  11.768 -0.1222  0.6654  0.2750
17272TIP3    H173231   4.732   0.588  11.803  0.0617 -0.2101 -1.0325
17272TIP3    H273232   4.581   0.572  11.803 -0.0706  0.8284  0.6326
17273TIP3   OH273233   0.185   0.928   6.299 -0.5071 -0.0549 -0.0157
17273TIP3    H173234   0.263   0.901   6.348 -0.8681 -1.4378 -0.1636
17273TIP3    H273235   0.179   1.022   6.314  1.6284  0.2281 -0.6341
17274TIP3   OH273236   1.723   6.521   4.594  0.2748  0.4347 -0.2507
17274TIP3    H173237   1.780   6.444   4.592  1.2556  1.1156  0.5823
17274TIP3    H273238   1.636   6.485   4.610  0.9318 -0.4151  1.6731
17275TIP3   OH273239   2.621   0.924   4.934  0.0561  0.0508 -0.4824
17275TIP3    H173240   2.716   0.936   4.939 -0.0191  2.0607 -2.4529
17275TIP3    H273241   2.589   0.961   5.017  0.9222  0.0468 -0.1313
17276TIP3   OH273242   4.085   5.025   4.441  0.4941 -0.2902 -0.0288
17276TIP3    H173243   4.159   5.023   4.380 -0.1071  0.5645 -0.8181
17276TIP3    H273244   4.010   5.048   4.386 -0.4216 -1.4173  0.7034
17277TIP3   OH273245   2.001   2.505   3.061 -0.0924 -0.2652 -0.1993
17277TIP3    H173246   1.962   2.441   3.001 -0.8752  1.1455 -1.2601
17277TIP3    H273247   2.052   2.563   3.003  1.3883 -0.4646  0.8486
17278TIP3   OH273248   0.298   2.889  11.406 -0.7078 -0.6189 -0.2679
17278TIP3    H173249   0.303   2.869  11.312  1.1850 -2.7249  0.2083
17278TIP3    H273250   0.339   2.975  11.414  1.5424 -1.5447 -1.1283
17279TIP3   OH273251   2.462   1.853  12.714  0.4103 -0.7150 -0.3953
17279TIP3    H173252   2.520   1.860  12.639  0.7090 -1.4921 -0.2529
17279TIP3    H273253   2.394   1.793  12.686  0.1249 -0.4414 -0.2868
17280TIP3   OH273254   2.368   3.758  12.671  0.5028  0.2186  0.4800
17280TIP3    H173255   2.396   3.705  12.745 -1.7265 -0.6459  0.7746
17280TIP3    H273256   2.353   3.695  12.600  1.5330  0.9218 -0.4142
17281TIP3   OH273257   2.310   5.289   3.756 -0.6425  0.3493  0.1540
17281TIP3    H173258   2.306   5.287   3.851 -0.1774 -1.0387  0.1611
17281TIP3    H273259   2.382   5.349   3.736  0.2861 -0.5597  0.7176
17282TIP3   OH273260   5.473   5.403  14.043 -0.7524 -0.4334 -0.3210
17282TIP3    H173261   5.415   5.421  14.117 -1.1230  1.0706 -0.9494
17282TIP3    H273262   5.416   5.364  13.977 -0.4256 -1.7568  0.1538
17283TIP3   OH273263   1.570   4.334  16.477  0.6652 -0.2655  0.2943
17283TIP3    H173264   1.527   4.362  16.558  1.0500 -0.8433  0.7071
17283TIP3    H273265   1.661   4.318  16.503  1.1219  0.8723 -0.5499
17284TIP3   OH273266   0.733   3.890   5.552  0.4054  0.6652  0.9141
17284TIP3    H173267   0.765   3.978   5.569  0.4795  0.6474  0.8668
17284TIP3    H273268   0.777   3.864   5.471  0.1353  0.7130  0.7465
17285TIP3   OH273269   6.209   1.012  13.578  0.0198  0.3162 -0.5863
17285TIP3    H173270   6.144   1.049  13.637  1.3501  1.4115  0.2621
17285TIP3    H273271   6.168   1.014  13.492 -0.5454  2.3537 -0.3154
17286TIP3   OH273272   0.744   4.344  15.313 -0.2705 -0.3693  0.4562
17286TIP3    H173273   0.666   4.352  15.257 -1.3077 -0.2176  1.8729
17286TIP3    H273274   0.761   4.433  15.344  0.9887 -0.2576 -0.4701
17287TIP3   OH273275   3.999   1.703  11.169 -0.3267 -0.3944  0.6103
17287TIP3    H173276   4.092   1.680  11.161 -0.2234 -0.2660  1.3912
17287TIP3    H273277   3.958   1.660  11.094  0.6883  1.3566 -1.0185
17288TIP3   OH273278   2.291   2.623  16.524 -0.2428  0.3620 -0.7404
17288TIP3    H173279   2.315   2.575  16.603 -1.6592 -1.7239 -1.5018
17288TIP3    H273280   2.333   2.709  16.534 -0.4955  0.2361  2.3374
17289TIP3   OH273281   6.765   1.505   1.087  0.4229  0.7575 -0.1926
17289TIP3    H173282   6.794   1.415   1.076  0.8569  1.0011 -1.1185
17289TIP3    H273283   6.836   1.559   1.053 -0.1380  1.4323 -0.3347
17290TIP3   OH273284   4.910   0.096  14.449 -0.6252 -0.0399 -0.0960
17290TIP3    H173285   4.880   0.098  14.540 -3.1260 -0.1877 -0.8681
17290TIP3    H273286   4.884   0.181  14.413  0.5811  0.1229 -0.6528
17291TIP3   OH273287   6.151   3.479  16.885  0.2276 -0.1223 -0.4124
17291TIP3    H173288   6.078   3.453  16.942  0.6487  1.6816  1.0858
17291TIP3    H273289   6.229   3.466  16.939  0.6087  2.0088 -0.3496
17292TIP3   OH273290   4.336   2.410  12.915  0.3250  0.0050  0.1887
17292TIP3    H173291   4.394   2.420  12.839  0.7600  0.3846  0.5624
17292TIP3    H273292   4.328   2.499  12.951  0.4626 -0.2371  0.8330
17293TIP3   OH273293   1.727   3.284  15.273  0.0363 -0.0234  0.3241
17293TIP3    H173294   1.682   3.334  15.205  0.7491  0.6903  0.3621
17293TIP3    H273295   1.820   3.298  15.256  0.3076 -2.1400 -0.2513
17294TIP3   OH273296   2.578   2.733  11.402  0.3017  0.1689 -0.0625
17294TIP3    H173297   2.513   2.796  11.433  2.4755  1.3956  2.3414
17294TIP3    H273298   2.633   2.782  11.341  0.4829 -0.1227 -0.1370
17295TIP3   OH273299   3.125   5.781  15.476  0.3984 -0.0486 -0.0757
17295TIP3    H173300   3.047   5.727  15.484 -0.7442  1.2437 -1.8726
17295TIP3    H273301   3.172   5.766  15.558 -2.8382  0.8645  2.1382
17296TIP3   OH273302   2.225   1.141   4.103  0.0153  0.5219 -0.0364
17296TIP3    H173303   2.197   1.095   4.183 -2.8703  1.4474 -0.3990
17296TIP3    H273304   2.291   1.083   4.064 -2.5556 -2.8274  0.1089
17297TIP3   OH273305   1.520   4.533  10.666  0.1717  0.0144 -0.1301
17297TIP3    H173306   1.572   4.545  10.745 -1.5529  1.4275  0.8514
17297TIP3    H273307   1.567   4.584  10.599  1.6471 -1.2003 -0.0693
17298TIP3   OH273308   1.567   6.150   2.630 -0.6032 -0.2209  0.7735
17298TIP3    H173309   1.618   6.070   2.645 -1.2091 -0.5350  1.1974
17298TIP3    H273310   1.615   6.219   2.675 -0.2625 -0.4165  0.7066
17299TIP3   OH273311   4.019   6.733   5.810  0.1090  0.2255  0.0830
17299TIP3    H173312   4.014   6.639   5.828  0.2225  0.2922  0.4702
17299TIP3    H273313   4.038   6.738   5.717  2.2191 -0.1781  0.4409
17300TIP3   OH273314   6.647   0.471  12.300 -0.1225 -0.4418  0.6664
17300TIP3    H173315   6.554   0.496  12.302  0.2128  1.1601 -0.8728
17300TIP3    H273316   6.663   0.431  12.385 -1.7567  1.0613  1.7673
17301TIP3   OH273317   6.397   5.714   2.412  0.1871 -0.5275  0.0314
17301TIP3    H173318   6.354   5.786   2.366  2.0385  1.9880  1.9135
17301TIP3    H273319   6.362   5.635   2.371 -2.9352  1.3528 -1.3276
17302TIP3   OH273320   5.650   6.745   4.399  0.0811  0.9524  0.5200
17302TIP3    H173321   5.683   6.693   4.327 -2.2763  0.6130 -0.4038
17302TIP3    H273322   5.694   6.830   4.390  0.8603  0.4597 -0.4554
17303TIP3   OH273323   5.433   5.297   3.521  0.3531  0.1150  0.4268
17303TIP3    H173324   5.377   5.316   3.445  0.4796 -0.3290  0.2211
17303TIP3    H273325   5.430   5.202   3.530  2.1072 -0.0422 -0.3716
17304TIP3   OH273326   1.447   1.226   4.036 -0.4243  0.1745  0.0539
17304TIP3    H173327   1.533   1.224   4.079 -0.8752  0.2446  0.9726
17304TIP3    H273328   1.464   1.268   3.952  0.9097 -2.0646 -0.8771
17305TIP3   OH273329   3.386   3.564  12.607 -0.5161  0.3659  0.2557
17305TIP3    H173330   3.352   3.488  12.559  0.8736 -0.1317 -0.0162
17305TIP3    H273331   3.398   3.532  12.697 -1.0566  0.6265  0.4190
17306TIP3   OH273332   1.935   4.213  13.451  0.3687  0.5228 -0.1559
17306TIP3    H173333   1.966   4.155  13.520  0.5228  0.1784 -0.5121
17306TIP3    H273334   1.940   4.301  13.489 -0.9532  0.2198  0.7944
17307TIP3   OH273335   1.709   2.025   6.708 -0.1294  0.4232  0.1684
17307TIP3    H173336   1.759   1.949   6.736 -0.1684  0.1524 -0.4969
17307TIP3    H273337   1.774   2.090   6.683 -0.0377 -0.6556 -2.7345
17308TIP3   OH273338   6.078   3.679   6.012  0.4594  0.9010 -0.6996
17308TIP3    H173339   6.101   3.588   5.992 -0.5019  0.4645  0.1078
17308TIP3    H273340   6.084   3.685   6.107  0.3302  1.6408 -0.7307
17309TIP3   OH273341   3.019   6.279  14.252  0.2630 -0.2442 -1.0429
17309TIP3    H173342   3.010   6.260  14.345 -0.2105 -0.4709 -1.1300
17309TIP3    H273343   2.987   6.369  14.243 -1.9436 -0.9918 -1.3235
17310TIP3   OH273344   5.123   3.395  10.891 -0.3252 -0.3735 -0.4561
17310TIP3    H173345   5.075   3.312  10.891  0.2675 -0.7388 -1.6563
17310TIP3    H273346   5.215   3.370  10.896 -0.1949  0.3420  2.2765
17311TIP3   OH273347   0.829   0.562  14.288  0.0734 -0.5329  0.3983
17311TIP3    H173348   0.869   0.499  14.228  2.9065  1.9212 -0.5408
17311TIP3    H273349   0.745   0.584  14.247  1.9118  1.0779 -2.8743
17312TIP3   OH273350   5.201   4.522  16.694  0.4538  0.6644  0.1771
17312TIP3    H173351   5.110   4.515  16.724 -0.9256  0.1273 -3.5891
17312TIP3    H273352   5.250   4.467  16.754 -2.1076 -0.8769  1.0408
17313TIP3   OH273353   2.429   2.427   0.994 -0.0970 -0.1501 -1.2002
17313TIP3    H173354   2.337   2.448   1.013 -0.1335 -0.5864 -0.8966
17313TIP3    H273355   2.469   2.414   1.079  0.7379  1.9832 -1.1999
17314TIP3   OH273356   2.271   6.092  15.640  0.2262 -0.4056 -0.4503
17314TIP3    H173357   2.310   6.149  15.706 -0.1204 -0.4367 -0.2234
17314TIP3    H273358   2.342   6.032  15.616 -0.2047 -1.7245  1.3534
17315TIP3   OH273359   3.218   5.418  15.098 -0.3062  0.0519  0.0407
17315TIP3    H173360   3.250   5.334  15.064 -0.2624 -0.3162  0.9817
17315TIP3    H273361   3.249   5.421  15.188 -1.0834  0.6766  0.2963
17316TIP3   OH273362   1.577   2.484   6.459 -0.1562  0.6489  0.1955
17316TIP3    H173363   1.504   2.546   6.461 -0.1262  0.6670  1.1946
17316TIP3    H273364   1.636   2.513   6.529  0.4422  0.1920 -0.1031
17317TIP3   OH273365   5.805   4.170   5.961  0.3220 -0.4175 -0.9623
17317TIP3    H173366   5.817   4.080   5.991 -1.9113 -0.4111  0.1747
17317TIP3    H273367   5.712   4.188   5.975  0.8151  2.2876 -0.5420
17318TIP3   OH273368   3.679   4.339  12.131 -0.3701  0.0654 -0.6955
17318TIP3    H173369   3.603   4.385  12.096  0.1417  0.6234 -1.1048
17318TIP3    H273370   3.725   4.307  12.053  0.3016  0.5318 -0.4934
17319TIP3   OH273371   3.911   2.302   3.139  0.0304  0.1278  0.1251
17319TIP3    H173372   3.924   2.208   3.131 -0.6079 -0.0343  0.9391
17319TIP3    H273373   4.000   2.338   3.136  0.2890 -0.5040 -0.0024
17320TIP3   OH273374   6.012   4.116  14.723  0.5263  0.2585  0.2988
17320TIP3    H173375   6.073   4.055  14.765  0.4189  0.7956  1.2585
17320TIP3    H273376   6.059   4.199  14.722  0.2439  0.4158  0.0132
17321TIP3   OH273377   5.303   1.873   0.442  0.8395 -0.5392 -0.0102
17321TIP3    H173378   5.369   1.804   0.441  2.0860  0.5900  0.7502
17321TIP3    H273379   5.247   1.854   0.367  0.6636 -2.8072  0.6418
17322TIP3   OH273380   3.254   4.324   6.061 -0.5140 -0.1717  0.0731
17322TIP3    H173381   3.193   4.307   6.132 -1.6321 -1.3053 -1.0987
17322TIP3    H273382   3.284   4.238   6.033  2.2221  0.3412  1.0319
17323TIP3   OH273383   0.380   2.973   0.844 -0.1586 -0.0631  0.4130
17323TIP3    H173384   0.362   3.058   0.885  0.4695  1.0210 -1.4484
17323TIP3    H273385   0.452   2.991   0.783  0.6609 -2.1673  0.6947
17324TIP3   OH273386   6.084   0.948   2.956  0.4637 -0.1678  0.7189
17324TIP3    H173387   6.054   0.915   2.872  0.3998  2.6886 -0.4792
17324TIP3    H273388   6.014   1.006   2.986 -1.1934 -3.5953  4.5673
17325TIP3   OH273389   0.209   3.201   1.267 -0.3824  0.5749  0.4910
17325TIP3    H173390   0.198   3.281   1.216  1.2419  0.8915  0.5901
17325TIP3    H273391   0.200   3.229   1.358  0.4867  0.7094  0.5396
17326TIP3   OH273392   2.199   0.492   0.933  0.7974 -0.1546  0.1875
17326TIP3    H173393   2.235   0.581   0.936 -0.6642  0.5042 -0.7070
17326TIP3    H273394   2.165   0.483   0.844  1.6178 -1.9318  0.0085
17327TIP3   OH273395   2.064   4.586   4.185 -0.1420  0.0238 -0.1863
17327TIP3    H173396   2.089   4.676   4.208  0.5094  0.4342 -2.2772
17327TIP3    H273397   1.970   4.592   4.165 -0.3031  0.0412  0.5677
17328TIP3   OH273398   4.706   0.444   5.235  0.3327  0.4789  0.2415
17328TIP3    H173399   4.700   0.451   5.140  0.2662  3.2683  0.3841
17328TIP3    H273400   4.623   0.405   5.262  0.0967  0.2498 -0.7856
17329TIP3   OH273401   0.123   4.025   4.191  0.4327  0.1961  0.2527
17329TIP3    H173402   0.209   4.065   4.183 -0.1141  1.1532 -1.2781
17329TIP3    H273403   0.133   3.937   4.154  1.0712 -0.2595  1.4444
17330TIP3   OH273404   6.216   3.826  15.693 -0.2509  0.7339  0.4786
17330TIP3    H173405   6.305   3.859  15.708 -0.1230  0.8826 -0.5824
17330TIP3    H273406   6.224   3.764  15.621 -0.5166 -1.6063  2.3386
17331TIP3   OH273407   0.629   3.029   4.647  0.3717 -0.1848 -0.4180
17331TIP3    H173408   0.615   2.956   4.708  1.4610  1.1553  1.5542
17331TIP3    H273409   0.689   2.994   4.581 -0.6234 -1.6064 -0.6139
17332TIP3   OH273410   1.122   6.365   5.289  0.2261 -0.1773 -0.4152
17332TIP3    H173411   1.191   6.311   5.251 -1.5946 -1.4548 -2.1418
17332TIP3    H273412   1.073   6.305   5.346  0.8631  0.8682  1.3049
17333TIP3   OH273413   6.741   0.720   0.406  0.1470 -0.0688 -0.3860
17333TIP3    H173414   6.833   0.693   0.406  0.2300  0.2109 -0.4848
17333TIP3    H273415   6.718   0.725   0.499  0.0219 -0.8418 -0.3719
17334TIP3   OH273416   2.551   5.023   2.817 -0.4293 -0.0530  0.4508
17334TIP3    H173417   2.629   5.013   2.762 -0.6366  0.3429  0.0798
17334TIP3    H273418   2.557   5.112   2.852 -0.0169 -0.4870  1.5185
17335TIP3   OH273419   3.494   2.690   6.111  0.2283 -0.1387 -0.7203
17335TIP3    H173420   3.517   2.704   6.019  0.5920  0.0323 -0.6066
17335TIP3    H273421   3.564   2.734   6.160 -1.2398  1.8635 -0.3399
17336TIP3   OH273422   5.470   3.123   3.442 -0.1244 -0.2105 -0.7820
17336TIP3    H173423   5.432   3.037   3.427 -0.0708 -0.1921 -1.0227
17336TIP3    H273424   5.436   3.178   3.372 -0.6028  0.1083 -0.3091
17337TIP3   OH273425   0.006   5.799   0.048  0.0701 -0.1003 -0.3214
17337TIP3    H173426   0.082   5.817   0.103  1.3392 -1.4696 -1.5266
17337TIP3    H273427   0.041   5.746  -0.025 -1.8993 -0.1282 -1.3185
17338TIP3   OH273428   0.855   0.445   1.564 -0.2089 -0.1658 -0.2855
17338TIP3    H173429   0.799   0.521   1.549  0.4966  0.0723 -2.0116
17338TIP3    H273430   0.831   0.383   1.495 -1.6013 -2.0697  1.7831
17339TIP3   OH273431   2.933   3.421   4.433  0.2158 -0.0087  0.4686
17339TIP3    H173432   2.862   3.369   4.395  0.7495 -0.1140 -0.4153
17339TIP3    H273433   2.949   3.382   4.519 -2.8694  1.9012  2.1256
17340TIP3   OH273434   5.315   5.437  16.804 -0.1135  0.1147  0.0620
17340TIP3    H173435   5.293   5.396  16.888  0.1904 -1.0706 -0.4183
17340TIP3    H273436   5.234   5.478  16.776  0.7922  4.8121  3.1494
17341TIP3   OH273437   6.084   6.092   0.707  0.1608 -0.1049  0.1734
17341TIP3    H173438   6.007   6.085   0.651  0.5258  0.1915 -0.3723
17341TIP3    H273439   6.080   6.181   0.742  0.5567  0.1027 -0.3032
17342TIP3   OH273440   5.504   4.619  15.386 -0.0367  0.6248 -0.0268
17342TIP3    H173441   5.540   4.652  15.303 -0.9520  1.7269 -0.0146
17342TIP3    H273442   5.431   4.563  15.359 -0.1805  0.7878  0.0197
17343TIP3   OH273443   0.673   1.286   3.933  0.1069  0.0243 -0.0899
17343TIP3    H173444   0.613   1.213   3.917 -2.2042  1.4025  1.5524
17343TIP3    H273445   0.634   1.359   3.884  1.8746  0.4113 -0.9875
17344TIP3   OH273446   1.551   6.394  15.010 -0.5704  0.4614 -0.3613
17344TIP3    H173447   1.494   6.423  15.081 -2.9331  1.1808 -2.3857
17344TIP3    H273448   1.563   6.300  15.025 -0.2484  0.7591  1.4364
17345TIP3   OH273449   1.746   6.388  17.079  0.3051  0.2601  0.3262
17345TIP3    H173450   1.814   6.324  17.100 -0.0046 -0.0989  0.2380
17345TIP3    H273451   1.767   6.416  16.990  0.3100  0.1176  0.2829
17346TIP3   OH273452   1.826   5.999  10.451  0.1386 -0.5135 -0.0063
17346TIP3    H173453   1.893   6.062  10.424 -0.3891 -0.7932 -2.1436
17346TIP3    H273454   1.754   6.054  10.484 -0.3261  0.0772 -1.8599
17347TIP3   OH273455   6.247   2.137  16.799  0.0863  0.5467  0.8600
17347TIP3    H173456   6.259   2.042  16.795 -0.9894  0.4224  0.0878
17347TIP3    H273457   6.194   2.151  16.877  0.0557  0.4925  0.8482
17348TIP3   OH273458   0.226   0.938   1.147 -0.3851 -0.5433 -0.9105
17348TIP3    H173459   0.274   0.855   1.141 -0.9230 -0.8254 -1.3787
17348TIP3    H273460   0.229   0.959   1.241 -0.3695 -1.1654 -0.7619
17349TIP3   OH273461   4.758   2.914  10.456  0.3308 -0.6573 -0.1140
17349TIP3    H173462   4.830   2.953  10.505  1.3437  1.2175 -2.8165
17349TIP3    H273463   4.683   2.969  10.475  0.4399 -0.6023  0.1604
17350TIP3   OH273464   1.954   5.527  15.629 -0.1789 -0.0853  0.5267
17350TIP3    H173465   1.876   5.581  15.624 -0.1183 -0.1162 -1.6723
17350TIP3    H273466   1.951   5.472  15.550  2.4089  0.4681 -0.0583
17351TIP3   OH273467   5.048   1.645  12.300  0.1413  0.2262  0.0597
17351TIP3    H173468   4.981   1.597  12.350  0.3609 -1.0585 -0.8344
17351TIP3    H273469   5.126   1.640  12.354  0.1432 -0.3849  0.0087
17352TIP3   OH273470   0.592   4.891   0.130  0.0360 -0.1165  0.8577
17352TIP3    H173471   0.513   4.944   0.137 -0.7301 -1.1683  0.3331
17352TIP3    H273472   0.565   4.803   0.158  0.9718 -0.5204  0.5351
17353TIP3   OH273473   0.391   1.686  16.248  0.9339  0.5696  0.1511
17353TIP3    H173474   0.342   1.755  16.294 -0.3525  0.1292 -0.4921
17353TIP3    H273475   0.464   1.732  16.207  0.5542  1.4227  0.3994
17354TIP3   OH273476   4.124   1.375  10.986  0.5429 -0.4119  0.1383
17354TIP3    H173477   4.060   1.306  10.972 -0.0240 -0.0588  0.9223
17354TIP3    H273478   4.123   1.427  10.906 -1.2429  0.4671  0.6857
17355TIP3   OH273479   3.975   0.706   4.097  0.1688  0.1821 -0.4443
17355TIP3    H173480   3.934   0.724   4.181  2.9642 -0.6772  1.2411
17355TIP3    H273481   3.951   0.615   4.077 -0.8129  0.5112 -0.8070
17356TIP3   OH273482   5.402   0.414  15.656 -0.0308  0.3417  0.0030
17356TIP3    H173483   5.447   0.494  15.684 -0.9231  0.8760 -0.0187
17356TIP3    H273484   5.377   0.433  15.565 -2.1447  0.9449  0.6556
17357TIP3   OH273485   0.930   4.501  12.147  0.6966  0.2764  0.1298
17357TIP3    H173486   0.914   4.410  12.122 -0.9167  0.9518 -1.4782
17357TIP3    H273487   0.963   4.542  12.067 -1.4091  1.7498 -0.0509
17358TIP3   OH273488   4.237   1.155  13.671 -0.2192  0.4077  0.1125
17358TIP3    H173489   4.220   1.178  13.763  0.2020  0.7971  0.0944
17358TIP3    H273490   4.262   1.063  13.674  1.9113  0.9328  0.6792
17359TIP3   OH273491   0.521   4.479  14.555 -0.3282  0.1679 -0.3266
17359TIP3    H173492   0.527   4.460  14.461 -1.1019 -0.5613 -0.2316
17359TIP3    H273493   0.437   4.523  14.565 -0.8363 -0.9022  0.2106
17360TIP3   OH273494   2.154   3.732   2.077  0.6633 -0.2055  0.0954
17360TIP3    H173495   2.181   3.798   2.141 -0.7590 -0.1055  0.6349
17360TIP3    H273496   2.160   3.649   2.125 -2.6522  0.0721  1.2485
17361TIP3   OH273497   5.064   2.035   2.284 -0.4643  0.6538 -0.7666
17361TIP3    H173498   5.125   2.077   2.222 -0.0836  1.9397  0.4350
17361TIP3    H273499   5.068   2.090   2.362 -1.2698 -0.6906  0.2542
17362TIP3   OH273500   3.002   1.467   5.106  0.0513 -0.2937  0.0262
17362TIP3    H173501   3.050   1.482   5.188  2.1286  0.5836 -1.2771
17362TIP3    H273502   2.912   1.492   5.126  0.7902  1.2758  1.6623
17363TIP3   OH273503   6.413   0.633  12.672 -0.2047  0.1057  0.0844
17363TIP3    H173504   6.483   0.686  12.633 -1.1881  0.7587 -0.8800
17363TIP3    H273505   6.332   0.671  12.636 -1.0486 -0.7126  1.0565
17364TIP3   OH273506   4.545   3.324  12.624  0.2707 -0.0543  0.2415
17364TIP3    H173507   4.531   3.249  12.682 -2.2703 -0.8668 -1.2680
17364TIP3    H273508   4.556   3.285  12.537  0.0181  1.2718 -0.4082
17365TIP3   OH273509   0.028   1.965  15.903 -0.2051  0.1475 -0.4775
17365TIP3    H173510   0.038   1.909  15.826  1.6519  2.5537 -2.1370
17365TIP3    H273511   0.091   1.930  15.967 -0.7703 -1.0345 -0.5429
17366TIP3   OH273512   3.173   1.103  11.144  0.0825 -0.0272 -0.0875
17366TIP3    H173513   3.204   1.016  11.120 -2.3089 -1.0074  0.0635
17366TIP3    H273514   3.166   1.150  11.060  0.0358 -0.4674 -0.3338
17367TIP3   OH273515   0.005   2.467   1.374  0.1972  1.0212  0.3509
17367TIP3    H173516  -0.051   2.455   1.298 -2.2458  1.2031  2.0172
17367TIP3    H273517  -0.001   2.384   1.422  0.4089  1.4634  1.1647
17368TIP3   OH273518   4.523   0.859  16.669 -0.3713 -0.1766  0.0544
17368TIP3    H173519   4.487   0.780  16.710 -0.9240 -1.7412 -3.1513
17368TIP3    H273520   4.618   0.847  16.672 -0.4529 -0.9866 -0.4192
17369TIP3   OH273521   3.323   4.059  11.132 -0.0450  0.1423  0.3237
17369TIP3    H173522   3.316   3.982  11.189 -0.4415  0.9196  1.3486
17369TIP3    H273523   3.345   4.131  11.191  1.2181  0.6717 -0.7483
17370TIP3   OH273524   1.783   3.877   5.984  0.0881 -0.0431  0.5234
17370TIP3    H173525   1.868   3.843   6.010  0.4014  0.3529  0.0375
17370TIP3    H273526   1.739   3.898   6.066 -0.6745 -2.8903  0.9490
17371TIP3   OH273527   6.495   6.173  10.900 -0.0167 -0.4850 -0.1254
17371TIP3    H173528   6.445   6.255  10.893  0.9653  0.1001 -0.4410
17371TIP3    H273529   6.533   6.161  10.813  1.2957 -0.3330  0.4079
17372TIP3   OH273530   2.392   1.357  15.053  0.0647  0.1406 -0.0909
17372TIP3    H173531   2.418   1.394  14.969 -0.0677 -2.8798 -1.6049
17372TIP3    H273532   2.296   1.366  15.054  0.2368  4.2375  1.9665
17373TIP3   OH273533   3.476   6.040   2.513 -0.1053 -0.4671 -0.1398
17373TIP3    H173534   3.502   5.959   2.557  2.2780  0.2508 -0.1414
17373TIP3    H273535   3.558   6.079   2.482 -0.8751  3.1492  1.8583
17374TIP3   OH273536   5.369   0.410  14.824  0.1125 -0.0051 -0.2680
17374TIP3    H173537   5.281   0.388  14.792 -0.3852  0.0689  0.9900
17374TIP3    H273538   5.356   0.435  14.915  0.9572  3.3728 -0.9346
17375TIP3   OH273539   4.760   3.056  16.016  0.5854 -0.4388  0.0334
17375TIP3    H173540   4.696   3.111  15.970 -0.5004 -0.5919  1.3133
17375TIP3    H273541   4.721   2.969  16.018  0.7225 -0.4924  0.9988
17376TIP3   OH273542   1.777   0.012  15.933  0.3850  0.8108 -0.2552
17376TIP3    H173543   1.852  -0.024  15.885 -0.3447 -0.0955 -0.7478
17376TIP3    H273544   1.745   0.083  15.878 -0.4180 -0.1910 -1.1126
17377TIP3   OH273545   2.472   5.044  16.361  0.3959 -0.2582  0.5352
17377TIP3    H173546   2.465   4.959  16.404  1.3833 -0.2107  0.8049
17377TIP3    H273547   2.491   5.022  16.269  3.8524 -0.3670  1.1644
17378TIP3   OH273548   6.672   0.412   6.273 -0.0222 -0.2932  0.0428
17378TIP3    H173549   6.650   0.504   6.280 -0.1961 -0.3483  0.2402
17378TIP3    H273550   6.598   0.373   6.226  0.9031 -0.0153 -1.7459
17379TIP3   OH273551   5.074   0.326   5.087 -0.1821  0.4211 -0.8431
17379TIP3    H173552   5.067   0.256   5.152  3.0989 -0.4013 -1.2072
17379TIP3    H273553   5.080   0.281   5.003 -1.0130  1.3241 -1.4087
17380TIP3   OH273554   3.263   1.592  14.564  0.0364 -0.6029 -0.3050
17380TIP3    H173555   3.268   1.687  14.580  0.1787 -0.5011 -0.9435
17380TIP3    H273556   3.169   1.574  14.561  0.0095 -0.4028 -0.6524
17381TIP3   OH273557   5.623   6.616   1.149  0.2143 -0.4290  0.1552
17381TIP3    H173558   5.665   6.535   1.178  1.1840  0.4903  1.4632
17381TIP3    H273559   5.691   6.662   1.100 -0.7298 -0.9446 -1.7199
17382TIP3   OH273560   4.613   6.294   4.193 -0.3477 -0.0765  0.1027
17382TIP3    H173561   4.586   6.205   4.171  0.2120 -0.4725  0.9398
17382TIP3    H273562   4.626   6.292   4.288  2.2314  0.1391 -0.1649
17383TIP3   OH273563   5.926   5.797  15.759  0.0091  0.0348  0.3950
17383TIP3    H173564   5.888   5.715  15.791  1.2905 -0.4382  0.7768
17383TIP3    H273565   5.899   5.802  15.668 -0.0218 -0.8710  0.3438
17384TIP3   OH273566   3.072   1.913   4.805 -0.1078 -0.3080  0.3864
17384TIP3    H173567   3.116   1.830   4.821  0.8728  0.4133  1.5551
17384TIP3    H273568   2.979   1.891   4.806 -0.0822 -0.8710  4.5186
17385TIP3   OH273569   3.388   4.840   5.206 -0.1474  0.5091 -0.3166
17385TIP3    H173570   3.379   4.932   5.182 -0.6815  0.6418  0.3673
17385TIP3    H273571   3.482   4.823   5.200 -0.0530  1.0789 -0.5147
17386TIP3   OH273572   3.935   0.983   5.341 -0.4693  0.2629  0.7234
17386TIP3    H173573   3.841   0.974   5.354 -0.7504 -1.5319 -1.8591
17386TIP3    H273574   3.944   1.028   5.257  0.8980 -1.3065 -0.0417
17387TIP3   OH273575   1.640   0.924  11.988  0.5895 -0.4116  0.0966
17387TIP3    H173576   1.615   0.945  11.898  0.0830  0.9721  0.5405
17387TIP3    H273577   1.610   0.834  12.001  0.4796 -0.5535 -1.0448
17388TIP3   OH273578   1.441   1.652  17.122 -0.2740 -0.5035  0.2481
17388TIP3    H173579   1.348   1.665  17.103 -0.4526 -0.8440  0.8631
17388TIP3    H273580   1.485   1.666  17.038 -0.5973  2.4225  0.4847
17389TIP3   OH273581   4.713   3.297   0.465  0.5309 -0.1918 -0.1437
17389TIP3    H173582   4.709   3.343   0.381 -0.0937  0.4923  0.2480
17389TIP3    H273583   4.787   3.338   0.510  0.1333  0.2589  0.1038
17390TIP3   OH273584   2.462   3.769   4.513  0.5214 -0.5406  0.6326
17390TIP3    H173585   2.457   3.681   4.551  0.5195 -1.1990 -0.8357
17390TIP3    H273586   2.555   3.782   4.496  0.3642 -0.8569 -0.4954
17391TIP3   OH273587   0.373   2.809   2.908  0.0203 -0.3577 -0.3196
17391TIP3    H173588   0.291   2.834   2.950 -0.6495 -0.0904 -1.7469
17391TIP3    H273589   0.402   2.887   2.862  0.5606 -0.7482 -0.6574
17392TIP3   OH273590   1.651   0.082   1.329  0.0915  0.3053 -0.0619
17392TIP3    H173591   1.671  -0.007   1.359  0.7029 -0.6676 -3.0414
17392TIP3    H273592   1.715   0.137   1.374  0.9146 -1.0096  0.4396
17393TIP3   OH273593   3.000   2.961   4.908 -0.1140  0.0822 -0.2619
17393TIP3    H173594   3.049   2.995   4.983 -1.8141 -0.4654  1.1847
17393TIP3    H273595   2.931   3.026   4.894  0.6329  0.5811 -1.9262
17394TIP3   OH273596   6.340   6.476   4.764 -0.1134  0.1377 -0.4704
17394TIP3    H173597   6.274   6.448   4.701 -1.1455  3.1444 -0.8671
17394TIP3    H273598   6.300   6.459   4.850 -0.0389 -0.9766 -0.6438
17395TIP3   OH273599   0.442   0.665  15.670  0.1850  0.1394 -0.6516
17395TIP3    H173600   0.526   0.710  15.683  0.3846 -0.2099 -0.7203
17395TIP3    H273601   0.382   0.735  15.643  0.0221  0.6973  1.0457
17396TIP3   OH273602   6.463   3.760   0.715  0.1987  0.2335 -0.1313
17396TIP3    H173603   6.389   3.817   0.694 -0.3577 -0.6961 -0.7632
17396TIP3    H273604   6.523   3.771   0.642  1.6634  2.4833  1.2866
17397TIP3   OH273605   3.221   5.026  15.174  0.4132  0.1206 -0.3603
17397TIP3    H173606   3.310   5.063  15.173  0.0879  0.9933  0.8158
17397TIP3    H273607   3.200   5.012  15.082  1.6785  0.1225 -0.6715
17398TIP3   OH273608   4.545   3.654  12.957  0.3203 -0.0436  0.4529
17398TIP3    H173609   4.602   3.592  12.911  2.2382  0.6379  1.7738
17398TIP3    H273610   4.525   3.721  12.893  0.4751 -0.6303 -0.2226
17399TIP3   OH273611   3.582   5.715   1.190  0.2427 -0.1018  0.3614
17399TIP3    H173612   3.613   5.795   1.232 -1.5129  0.3353  0.9156
17399TIP3    H273613   3.501   5.741   1.145  0.8578 -1.0743 -1.4285
17400TIP3   OH273614   1.488   3.453   2.323 -0.6557  0.2443  0.0666
17400TIP3    H173615   1.459   3.385   2.384 -1.3975  1.4830  1.1431
17400TIP3    H273616   1.436   3.529   2.346  1.4098  1.7165  0.1224
17401TIP3   OH273617   5.225   0.209  15.197 -0.4733 -0.1960  0.6648
17401TIP3    H173618   5.306   0.188  15.150 -0.9193 -0.2169 -0.0880
17401TIP3    H273619   5.187   0.282  15.149 -0.9652 -0.2609  0.9519
17402TIP3   OH273620   1.227   4.199  11.376 -0.5322  0.3998 -0.0767
17402TIP3    H173621   1.166   4.171  11.308 -1.9696 -0.1113  1.3510
17402TIP3    H273622   1.211   4.293  11.386 -3.1007 -0.1344  2.0656
17403TIP3   OH273623   0.537   0.201   0.865 -0.0214  0.3799  0.8889
17403TIP3    H173624   0.565   0.270   0.926 -1.3932  0.2858  1.6702
17403TIP3    H273625   0.443   0.196   0.877  0.0445 -1.6577  0.8598
17404TIP3   OH273626   4.468   0.925  11.396 -0.4882  0.0262 -0.4063
17404TIP3    H173627   4.430   0.949  11.480 -0.1442  0.0615 -0.2625
17404TIP3    H273628   4.560   0.908  11.414 -0.4130  0.0250 -0.7727
17405TIP3   OH273629   2.551   1.824  16.162 -0.0695  0.5952 -0.1071
17405TIP3    H173630   2.520   1.734  16.171 -0.1089  0.6314  0.1302
17405TIP3    H273631   2.588   1.828  16.073  0.5534  0.1595  0.1211
17406TIP3   OH273632   3.820   0.846  16.211  0.3463 -0.1959  0.4577
17406TIP3    H173633   3.843   0.787  16.284  0.6501 -0.7317 -0.0645
17406TIP3    H273634   3.904   0.885  16.185  0.5240 -1.2571 -0.6711
17407TIP3   OH273635   5.908   1.699  11.839 -0.3806 -0.4437  0.0812
17407TIP3    H173636   5.857   1.635  11.889 -0.9875  0.0773  0.1318
17407TIP3    H273637   5.988   1.710  11.891 -1.0804  0.2199  1.0528
17408TIP3   OH273638   6.348   2.320  13.614  0.1660 -0.3031 -0.2580
17408TIP3    H173639   6.429   2.274  13.634  0.4841  0.0281 -0.7924
17408TIP3    H273640   6.366   2.370  13.535 -1.1498 -1.7542 -1.5444
17409TIP3   OH273641   0.152   3.612  15.549  0.1436 -0.0839 -0.1435
17409TIP3    H173642   0.232   3.664  15.539 -0.6988  1.3661  0.2996
17409TIP3    H273643   0.181   3.529  15.587  1.3737  0.6049  0.4782
17410TIP3   OH273644   2.876   5.447   2.214 -0.3286 -0.1651 -0.3821
17410TIP3    H173645   2.840   5.472   2.299  0.7046 -0.7811  0.2675
17410TIP3    H273646   2.963   5.487   2.213 -0.7259  0.7327 -1.6215
17411TIP3   OH273647   4.500   3.570  10.712 -0.2355 -0.2511  0.0191
17411TIP3    H173648   4.446   3.573  10.791 -2.7020 -1.4123 -1.5035
17411TIP3    H273649   4.483   3.654  10.669  0.7331  0.1789  0.4418
17412TIP3   OH273650   5.137   1.493   6.325  0.0909 -0.1103  0.2335
17412TIP3    H173651   5.060   1.502   6.381 -0.8976 -1.0705 -0.9119
17412TIP3    H273652   5.119   1.549   6.249  0.1146 -0.9954 -0.4435
17413TIP3   OH273653   6.772   2.676   6.911  0.7584 -0.3230  0.1234
17413TIP3    H173654   6.743   2.614   6.844 -0.0734  0.5567 -0.3437
17413TIP3    H273655   6.850   2.718   6.873  0.0428  0.4766 -0.4839
17414TIP3   OH273656   4.952   3.362  13.123 -0.3452  0.1423 -0.1139
17414TIP3    H173657   5.045   3.345  13.142  0.4606  2.4572 -1.5618
17414TIP3    H273658   4.912   3.371  13.209  1.3213  1.6164  0.5687
17415TIP3   OH273659   6.707   0.005  11.892 -0.1017  0.0977 -0.3220
17415TIP3    H173660   6.732   0.088  11.933 -0.1968 -0.9485  2.0668
17415TIP3    H273661   6.618   0.020  11.860 -0.5860  0.6073  1.1731
17416TIP3   OH273662   6.403   2.459   0.578 -0.0406  0.5582  0.3053
17416TIP3    H173663   6.479   2.516   0.588 -0.0263  0.4941  0.5764
17416TIP3    H273664   6.400   2.408   0.659 -0.1630  0.3061  0.1444
17417TIP3   OH273665   2.008   5.035  15.466  0.3344 -0.2450 -0.2542
17417TIP3    H173666   2.033   5.027  15.558  0.2193 -0.5675 -0.2502
17417TIP3    H273667   1.925   4.987  15.460  0.1695  0.0681 -0.4525
17418TIP3   OH273668   1.148   1.071   5.316  0.2957  0.1488 -0.0689
17418TIP3    H173669   1.073   1.029   5.274  0.8355 -1.0604  0.1409
17418TIP3    H273670   1.111   1.119   5.390 -0.7088  2.4730 -1.9150
17419TIP3   OH273671   3.106   0.108   1.244 -0.7660 -0.1917  0.6228
17419TIP3    H173672   3.017   0.145   1.239 -1.8371 -2.5885  0.5401
17419TIP3    H273673   3.100   0.026   1.195  1.8017  0.0574 -0.2200
17420TIP3   OH273674   0.577   0.109  12.121 -0.2305  0.3734 -0.4676
17420TIP3    H173675   0.613   0.198  12.125  1.1470 -0.1026 -1.3649
17420TIP3    H273676   0.653   0.052  12.136 -0.9661 -0.6710 -0.5830
17421TIP3   OH273677   2.697   3.729   3.546 -0.5265  0.3172 -0.7896
17421TIP3    H173678   2.678   3.668   3.474 -0.0960 -1.6774  0.6851
17421TIP3    H273679   2.755   3.679   3.603 -0.2202  2.1389  0.5417
17422TIP3   OH273680   0.901   1.012   2.866  0.0741  0.6891 -0.4053
17422TIP3    H173681   0.945   1.072   2.925 -0.4377 -0.0168  0.7192
17422TIP3    H273682   0.817   0.993   2.908  0.1901 -0.7474 -0.7561
17423TIP3   OH273683   4.698   3.911   4.210  0.3089 -0.5016 -0.0459
17423TIP3    H173684   4.711   3.962   4.290  1.6294 -0.1277 -0.4769
17423TIP3    H273685   4.704   3.975   4.139 -0.6789 -0.8529 -0.4690
17424TIP3   OH273686   6.649   3.179   5.511 -0.6639  0.3725  0.5824
17424TIP3    H173687   6.589   3.122   5.559 -0.3932 -0.6897 -0.3149
17424TIP3    H273688   6.712   3.208   5.577  0.0859 -1.5723  0.7916
17425TIP3   OH273689   0.302   2.235  14.060 -0.0714 -0.1673 -0.0804
17425TIP3    H173690   0.308   2.330  14.058  0.6137 -0.2117 -1.0697
17425TIP3    H273691   0.332   2.210  14.147 -1.4151  0.5741  0.6260
17426TIP3   OH273692   6.431   5.115  12.279  0.3492 -0.0125  0.4131
17426TIP3    H173693   6.413   5.096  12.187 -1.0675 -0.7476  0.8116
17426TIP3    H273694   6.423   5.030  12.323 -0.1834  0.5213  1.3881
17427TIP3   OH273695   4.576   1.346  12.428  0.8117  0.1569 -0.0085
17427TIP3    H173696   4.491   1.327  12.388  1.2816 -0.8502 -0.5805
17427TIP3    H273697   4.556   1.399  12.505 -0.3460 -0.1929 -0.0544
17428TIP3   OH273698   4.088   1.845   3.544  0.2221 -1.2406  0.3481
17428TIP3    H173699   4.099   1.749   3.546 -0.5754 -1.3871 -0.9862
17428TIP3    H273700   4.156   1.875   3.484 -1.7649 -1.4048 -2.1572
17429TIP3   OH273701   3.053   3.842   1.696 -0.9490 -0.6598  0.0015
17429TIP3    H173702   2.974   3.820   1.646 -1.3184  0.9309 -0.1700
17429TIP3    H273703   3.123   3.841   1.632 -1.2232  0.2019 -0.3177
17430TIP3   OH273704   3.854   5.204  10.631  0.1534  0.4955 -0.4285
17430TIP3    H173705   3.827   5.291  10.603  0.1948  1.3327  1.9140
17430TIP3    H273706   3.923   5.220  10.695  0.4481 -1.2893 -0.2506
17431TIP3   OH273707   5.488   1.904   0.855 -0.0213  0.1891 -0.4596
17431TIP3    H173708   5.416   1.950   0.811 -0.3446  0.3689  0.2423
17431TIP3    H273709   5.548   1.975   0.882  0.2308  0.0711 -0.7040
17432TIP3   OH273710   3.963   3.811  15.115 -0.4855  0.7644  0.4453
17432TIP3    H173711   4.058   3.801  15.110 -0.7253 -1.4814 -1.2230
17432TIP3    H273712   3.929   3.722  15.120 -2.5384  1.4676  0.3718
17433TIP3   OH273713   0.924   0.833   1.564 -0.1584  0.4882  0.1864
17433TIP3    H173714   0.975   0.763   1.604  0.0702  0.3552 -0.3452
17433TIP3    H273715   0.917   0.899   1.633  2.2431  1.3127 -0.2788
17434TIP3   OH273716   0.364   6.721  16.200 -0.2884  0.4211  0.1549
17434TIP3    H173717   0.399   6.645  16.245 -0.7153  0.4739  0.5830
17434TIP3    H273718   0.374   6.700  16.107  2.6289  1.2450  0.2009
17435TIP3   OH273719   5.584   0.276  15.276 -0.5181 -0.0730 -0.1450
17435TIP3    H173720   5.565   0.230  15.358 -0.8587  0.0981 -0.1273
17435TIP3    H273721   5.632   0.355  15.304 -1.9941  0.8023  0.0455
17436TIP3   OH273722   6.520   0.185  11.048  0.2424 -0.1574 -0.1074
17436TIP3    H173723   6.496   0.188  10.955 -0.6423 -0.6998  0.0955
17436TIP3    H273724   6.552   0.096  11.061 -1.0185 -0.5575  0.4240
17437TIP3   OH273725   4.744   3.501  12.538 -0.2318 -0.1148  0.7687
17437TIP3    H173726   4.823   3.459  12.571  0.5226  0.2032 -0.5696
17437TIP3    H273727   4.672   3.449  12.575  0.5952 -0.5516  1.7985
17438TIP3   OH273728   2.575   1.642  11.117  0.3000 -0.2683 -0.5840
17438TIP3    H173729   2.627   1.575  11.072  0.9134  0.1641 -0.5289
17438TIP3    H273730   2.561   1.607  11.205 -0.7929 -1.0606 -1.0426
17439TIP3   OH273731   4.027   1.072   1.023 -0.3291 -0.1519  0.2660
17439TIP3    H173732   4.011   1.166   1.014  1.4050  0.2377  0.8498
17439TIP3    H273733   4.028   1.040   0.933  0.7316  0.7215 -0.0628
17440TIP3   OH273734   4.375   0.751  13.257  0.1205  0.1495 -0.3092
17440TIP3    H173735   4.410   0.828  13.300  0.6742 -0.5337  0.5034
17440TIP3    H273736   4.319   0.785  13.187  0.4657  1.2681 -0.0529
17441TIP3   OH273737   1.000   3.181  12.425 -0.2741 -0.7362 -0.2726
17441TIP3    H173738   1.005   3.270  12.390  0.5451 -1.1611 -1.3062
17441TIP3    H273739   1.091   3.160  12.448 -0.6537 -0.8323  1.2375
17442TIP3   OH273740   3.451   0.606   4.477  0.2679 -0.4620  0.1660
17442TIP3    H173741   3.395   0.643   4.408  1.4592  1.2912  0.0492
17442TIP3    H273742   3.391   0.564   4.538 -1.0254  0.0005 -0.7517
17443TIP3   OH273743   0.729   3.187   2.694  0.2842  0.1086 -0.1170
17443TIP3    H173744   0.695   3.104   2.663 -0.9925  0.5514  0.0561
17443TIP3    H273745   0.764   3.230   2.615 -0.5695  0.1165 -0.4936
17444TIP3   OH273746   2.504   3.620   0.059  0.1161  0.2139  0.1140
17444TIP3    H173747   2.427   3.652   0.011 -0.6120 -0.1819  0.9777
17444TIP3    H273748   2.564   3.591  -0.010 -0.6490  0.2043 -0.5793
17445TIP3   OH273749   1.795   4.973  16.706 -0.3703  0.0398  0.0865
17445TIP3    H173750   1.859   4.987  16.776 -1.0630 -0.6128  0.8843
17445TIP3    H273751   1.729   4.916  16.746 -1.2579  0.3980 -0.8284
17446TIP3   OH273752   1.854   3.070   4.494  0.3358 -0.2098 -0.2397
17446TIP3    H173753   1.806   2.989   4.511 -0.3627  0.2254 -0.1262
17446TIP3    H273754   1.931   3.041   4.445 -0.7340 -0.7552 -1.6470
17447TIP3   OH273755   2.337   2.771   5.362 -0.6807  0.8364  0.4186
17447TIP3    H173756   2.426   2.735   5.358 -0.9998 -0.2760  2.2004
17447TIP3    H273757   2.346   2.851   5.413 -0.6108  1.0658  0.0488
17448TIP3   OH273758   0.372   3.912  12.974 -0.2803  0.0527  0.3802
17448TIP3    H173759   0.448   3.933  13.028 -0.5108 -2.3381  1.7833
17448TIP3    H273760   0.399   3.836  12.923 -1.1879  0.2117 -0.3776
17449TIP3   OH273761   1.967   4.140   6.125 -0.3935  0.1534  0.2865
17449TIP3    H173762   1.876   4.143   6.153 -0.4688  0.3876  0.0244
17449TIP3    H273763   2.017   4.129   6.205 -0.6023  0.8727  0.5276
17450TIP3   OH273764   0.037   4.761   6.351  0.1927 -0.1283  0.6119
17450TIP3    H173765   0.098   4.785   6.281  0.3183 -0.1007  0.7313
17450TIP3    H273766   0.092   4.738   6.425  0.0596 -0.1689  0.6993
17451TIP3   OH273767   2.404   1.876  14.685 -0.3494 -0.1755 -0.5779
17451TIP3    H173768   2.344   1.918  14.748 -0.8157 -0.0679 -1.0855
17451TIP3    H273769   2.453   1.949  14.647  1.6019 -0.4056  1.3017
17452TIP3   OH273770   4.326   4.452  11.636 -0.4328  0.4956 -0.0739
17452TIP3    H173771   4.272   4.467  11.713  2.5281  1.2147  2.0229
17452TIP3    H273772   4.403   4.506  11.649  1.8114 -2.0061 -1.8006
17453TIP3   OH273773   5.792   5.361   5.868 -0.1111  0.0063  0.2613
17453TIP3    H173774   5.751   5.340   5.952 -0.6216 -2.0117 -0.4242
17453TIP3    H273775   5.881   5.327   5.876 -0.7554 -2.0960 -0.6403
17454TIP3   OH273776   2.068   4.009   5.328 -0.3914  0.3346  0.0886
17454TIP3    H173777   2.098   3.918   5.334  1.3742  0.8719  0.1464
17454TIP3    H273778   1.998   4.015   5.393  0.1081 -0.7541  0.7692
17455TIP3   OH273779   6.540   5.342  15.931  0.6598 -0.4850  0.3711
17455TIP3    H173780   6.606   5.332  16.000 -0.2596 -0.3768  1.2883
17455TIP3    H273781   6.576   5.408  15.872  1.0564  0.1022  1.2577
17456TIP3   OH273782   0.300   4.523   3.396 -0.3359  0.1723 -0.4562
17456TIP3    H173783   0.382   4.480   3.375  0.0507  0.2971  0.7783
17456TIP3    H273784   0.321   4.583   3.467 -1.4028  0.5367 -0.4272
17457TIP3   OH273785   3.117   1.884  13.534 -0.3976  0.2969 -0.0127
17457TIP3    H173786   3.126   1.925  13.448  1.4097  2.4504  1.0806
17457TIP3    H273787   3.089   1.956  13.591 -0.3548 -0.7863  1.4219
17458TIP3   OH273788   4.994   0.050   1.482 -0.0900 -0.4156 -0.0237
17458TIP3    H173789   4.916   0.101   1.504  1.1974  1.5261  0.3572
17458TIP3    H273790   5.022   0.012   1.565  1.2675  1.7930  0.6232
17459TIP3   OH273791   2.991   3.796   5.924  0.6631 -0.6663 -0.2176
17459TIP3    H173792   2.966   3.889   5.920 -1.2227 -1.1055  0.2285
17459TIP3    H273793   3.043   3.789   6.004  1.2763  0.1010 -0.5374
17460TIP3   OH273794   3.375   0.790   3.612  0.2196 -0.6894 -0.2848
17460TIP3    H173795   3.382   0.695   3.603  2.5461 -0.6656  0.5679
17460TIP3    H273796   3.449   0.824   3.562  0.2322  0.5906  0.5642
17461TIP3   OH273797   4.009   5.661   4.004  0.0721  0.5385 -0.5073
17461TIP3    H173798   3.969   5.661   3.917 -1.5568  0.8878  0.2031
17461TIP3    H273799   4.078   5.595   3.998 -0.5983 -0.0916 -1.8027
17462TIP3   OH273800   0.554   3.013  11.862 -0.1802 -0.7270 -0.4578
17462TIP3    H173801   0.611   3.022  11.785  1.4935 -0.5420  0.7442
17462TIP3    H273802   0.534   2.920  11.866 -0.0891 -0.7740 -0.9856
17463TIP3   OH273803   3.707   3.952   0.947 -0.5231 -0.1011 -0.2275
17463TIP3    H173804   3.738   4.007   0.876  0.5105 -0.3290  0.0357
17463TIP3    H273805   3.671   3.875   0.904 -2.6464  1.0518 -0.6385
17464TIP3   OH273806   0.023   6.186   2.976 -0.0765 -0.4611  0.3614
17464TIP3    H173807   0.046   6.175   3.068  0.1658 -0.3566  0.3149
17464TIP3    H273808   0.093   6.241   2.940 -0.2647 -0.3545  0.1561
17465TIP3   OH273809   5.858   3.122  14.875 -0.0910  0.3098 -0.3758
17465TIP3    H173810   5.793   3.172  14.925 -1.8078 -0.1463 -2.0474
17465TIP3    H273811   5.807   3.073  14.811  1.9609  0.6582 -2.4142
17466TIP3   OH273812   6.678   2.769  10.680  0.3535 -0.0937 -0.2724
17466TIP3    H173813   6.727   2.822  10.742 -0.5847 -0.3520  0.7094
17466TIP3    H273814   6.696   2.679  10.706  0.4717 -0.2296 -0.7990
17467TIP3   OH273815   0.075   4.467  14.355  0.6779  0.2514  0.4254
17467TIP3    H173816   0.010   4.526  14.394  0.1678 -0.8890  1.3652
17467TIP3    H273817   0.063   4.385  14.402  2.0972 -0.2918 -0.1324
17468TIP3   OH273818   1.620   4.179   1.293  0.0677  0.0869 -0.1231
17468TIP3    H173819   1.609   4.084   1.288  0.9772 -0.0204 -0.2698
17468TIP3    H273820   1.715   4.192   1.300  0.2254  1.1031 -2.9726
17469TIP3   OH273821   1.200   6.564  16.593 -0.8536  0.3057  0.1077
17469TIP3    H173822   1.131   6.506  16.627 -0.3002 -0.5193 -0.1370
17469TIP3    H273823   1.162   6.602  16.514  0.0273 -2.6383 -1.9069
17470TIP3   OH273824   3.074   0.931  16.148 -0.1366 -0.8146  0.2874
17470TIP3    H173825   2.995   0.944  16.095  0.8539  0.9911 -0.8393
17470TIP3    H273826   3.068   0.996  16.217 -0.1621 -1.4396  0.8868
17471TIP3   OH273827   4.177   3.054  12.614  0.1263  0.0443  0.3952
17471TIP3    H173828   4.226   2.976  12.589  1.2905  0.5474  1.0316
17471TIP3    H273829   4.244   3.120  12.631 -0.7719  0.7170  1.4475
17472TIP3   OH273830   5.819   3.185   1.745  0.0651 -0.3287  0.6487
17472TIP3    H173831   5.855   3.182   1.834  0.2327  1.2254  0.6648
17472TIP3    H273832   5.727   3.162   1.756 -0.2262  1.0690  1.4469
17473TIP3   OH273833   0.238   2.407  12.670 -0.1791 -0.5387  0.2615
17473TIP3    H173834   0.200   2.324  12.699 -1.0757 -0.2384 -0.0360
17473TIP3    H273835   0.189   2.474  12.717  1.6053 -0.1991  1.7315
17474TIP3   OH273836   2.159   2.992  13.831 -0.4631 -0.4576  0.3722
17474TIP3    H173837   2.138   2.924  13.894 -0.3494  0.4757  1.4475
17474TIP3    H273838   2.206   2.946  13.761 -2.4093 -1.8598 -0.0838
17475TIP3   OH273839   6.212   6.121   4.799  0.1934  0.2630 -0.0054
17475TIP3    H173840   6.307   6.131   4.794 -0.0514  2.5590 -1.3119
17475TIP3    H273841   6.189   6.070   4.720  0.5384 -3.1592  1.9145
17476TIP3   OH273842   3.616   3.403   0.718 -0.6218 -0.2098 -0.2098
17476TIP3    H173843   3.637   3.496   0.725 -1.8328  0.0817 -0.1306
17476TIP3    H273844   3.555   3.397   0.644 -4.5198 -0.1123  2.6667
17477TIP3   OH273845   6.096   1.213  14.977 -0.4341  0.7072  0.0348
17477TIP3    H173846   6.131   1.212  14.888  1.1397  1.4862  0.6091
17477TIP3    H273847   6.027   1.280  14.974  0.0956  1.2482 -0.4399
17478TIP3   OH273848   4.469   3.624  15.954 -0.4607  0.4646  0.7317
17478TIP3    H173849   4.444   3.532  15.964 -0.8339  0.6333  1.4287
17478TIP3    H273850   4.564   3.623  15.960 -0.2177 -0.1911 -2.0033
17479TIP3   OH273851   2.095   6.370  15.585  0.1637 -0.2210 -0.2176
17479TIP3    H173852   2.143   6.435  15.635  0.9320  0.3951 -1.6755
17479TIP3    H273853   2.088   6.294  15.643  1.5998  0.2112  0.5675
17480TIP3   OH273854   5.154   5.834  16.734 -0.0883 -0.2081  0.5200
17480TIP3    H173855   5.208   5.815  16.657  2.8077  1.0861  2.0620
17480TIP3    H273856   5.093   5.902  16.705 -0.5398 -1.2415 -1.1154
17481TIP3   OH273857   6.345   3.270   0.639 -0.0717  0.2668  0.0662
17481TIP3    H173858   6.328   3.342   0.700  0.3294  0.4653 -0.0536
17481TIP3    H273859   6.428   3.293   0.597 -0.4250  0.2149 -0.6783
17482TIP3   OH273860   0.789   6.425   2.407  0.0950  0.1364 -0.7607
17482TIP3    H173861   0.763   6.517   2.412  0.7387  0.2797  0.2281
17482TIP3    H273862   0.880   6.426   2.377 -0.1945 -0.2391 -1.6992
17483TIP3   OH273863   2.530   2.494  13.925 -0.2211 -0.5670  0.0018
17483TIP3    H173864   2.612   2.444  13.931 -0.4348 -0.9776 -0.4440
17483TIP3    H273865   2.548   2.560  13.858 -0.0643 -0.2702  0.3270
17484TIP3   OH273866   5.898   4.172  14.463  0.5981 -0.7555  0.2666
17484TIP3    H173867   5.946   4.111  14.520  1.8465  0.6380  0.7512
17484TIP3    H273868   5.950   4.252  14.464 -1.0044  0.3334 -0.3663
17485TIP3   OH273869   5.726   3.848   5.367 -0.3670 -0.3001 -0.0412
17485TIP3    H173870   5.793   3.791   5.404  2.2227  1.8279 -1.0547
17485TIP3    H273871   5.734   3.930   5.417 -2.0607  0.0965 -0.3713
17486TIP3   OH273872   1.930   2.041  15.737  0.0019 -0.3143 -0.0149
17486TIP3    H173873   1.992   2.057  15.808  0.2703 -1.4220  0.0288
17486TIP3    H273874   1.916   1.946  15.739 -0.7180 -0.2370 -0.8376
17487TIP3   OH273875   5.444   3.294  16.145 -0.0392 -0.0356 -0.1527
17487TIP3    H173876   5.513   3.235  16.112 -0.7218 -1.1066  0.2686
17487TIP3    H273877   5.404   3.331  16.067  0.1038 -0.4825 -0.4407
17488TIP3   OH273878   5.185   1.947   3.420 -0.0429 -0.1927 -0.2443
17488TIP3    H173879   5.172   1.913   3.509 -1.5368 -0.9912 -0.7225
17488TIP3    H273880   5.153   1.877   3.363  2.1561 -0.2803 -1.5029
17489TIP3   OH273881   6.420   4.183  11.193 -0.3530 -0.0846 -0.1787
17489TIP3    H173882   6.435   4.088  11.192  0.2258  0.0011  0.1876
17489TIP3    H273883   6.485   4.219  11.133 -0.5741  0.0857 -0.3201
17490TIP3   OH273884   0.879   3.266  12.777 -0.2281 -0.8802 -0.4583
17490TIP3    H173885   0.820   3.305  12.712 -0.9917 -1.6521 -0.2480
17490TIP3    H273886   0.844   3.295  12.861  0.6527 -0.0296 -0.3679
17491TIP3   OH273887   6.743   4.082  15.322 -0.2440  0.3421  0.5701
17491TIP3    H173888   6.749   4.088  15.227  1.3692  0.0189  0.6169
17491TIP3    H273889   6.745   3.988  15.340  2.1239  0.4139  1.0008
17492TIP3   OH273890   0.243   0.566   1.917  0.0289  0.1055  0.1904
17492TIP3    H173891   0.302   0.492   1.927  1.4918  1.4647  2.6911
17492TIP3    H273892   0.180   0.557   1.988 -0.2522  0.8203  0.0430
17493TIP3   OH273893   2.594   4.313  16.798 -0.2446  0.3855 -0.1099
17493TIP3    H173894   2.500   4.322  16.813 -0.6912 -0.2902 -2.1727
17493TIP3    H273895   2.604   4.315  16.703  1.9778  1.6151  0.0546
17494TIP3   OH273896   3.744   4.153   0.179 -0.2909  0.1416  0.2277
17494TIP3    H173897   3.836   4.138   0.159 -0.6314  1.5570 -3.0100
17494TIP3    H273898   3.697   4.106   0.110 -1.9852  0.2701  1.2396
17495TIP3   OH273899   6.636   3.252  11.538  0.5722  0.7023  0.4952
17495TIP3    H173900   6.629   3.300  11.620 -1.1889 -2.1697  2.1970
17495TIP3    H273901   6.549   3.215  11.524  1.8373 -2.2652 -0.3983
17496TIP3   OH273902   6.292   2.560   2.556  0.2393 -0.2811  0.3560
17496TIP3    H173903   6.315   2.472   2.588 -1.4239 -1.0869 -0.5514
17496TIP3    H273904   6.197   2.557   2.542  0.5807  0.5649 -2.9134
17497TIP3   OH273905   5.422   1.125  12.687 -0.1672  0.2320  0.0375
17497TIP3    H173906   5.394   1.131  12.779 -0.1698  2.0541 -0.0355
17497TIP3    H273907   5.517   1.132  12.690 -0.1394 -0.0714 -0.0834
17498TIP3   OH273908   0.497   3.023  15.376 -0.4462 -0.5457 -0.6707
17498TIP3    H173909   0.570   2.992  15.429 -0.4011  0.2140 -0.2713
17498TIP3    H273910   0.463   2.945  15.333 -0.9910 -1.3325  1.0886
17499TIP3   OH273911   6.201   0.116   4.321  0.1935  0.2617  0.1492
17499TIP3    H173912   6.178   0.025   4.344  1.7652  0.2413  1.8859
17499TIP3    H273913   6.188   0.165   4.402  0.7654  1.2999 -0.3702
17500TIP3   OH273914   2.866   6.029   3.538  0.0680  0.5960  0.0181
17500TIP3    H173915   2.805   6.012   3.467  0.2796 -0.4327  0.0710
17500TIP3    H273916   2.812   6.028   3.617  0.1525 -0.4930  0.0834
17501TIP3   OH273917   5.194   0.582  12.099  0.5436 -0.7534 -0.0518
17501TIP3    H173918   5.167   0.662  12.145  3.1601  0.6728 -0.7884
17501TIP3    H273919   5.253   0.538  12.160  0.4003 -1.2686 -0.2832
17502TIP3   OH273920   3.213   6.020  17.240 -0.2188  0.4465 -0.8161
17502TIP3    H173921   3.234   5.932  17.207  3.3044 -0.0422  2.1248
17502TIP3    H273922   3.245   6.079  17.172  2.0522 -0.5856 -0.7541
17503TIP3   OH273923   5.605   2.719  16.590 -0.1818 -0.0599  0.1303
17503TIP3    H173924   5.678   2.689  16.644 -0.9971 -1.2452  0.6022
17503TIP3    H273925   5.601   2.658  16.517 -1.5469 -0.8933  0.8447
17504TIP3   OH273926   6.231   6.525   6.256  0.5675  0.2997  0.1927
17504TIP3    H173927   6.169   6.596   6.242  0.2781 -0.4353 -2.9701
17504TIP3    H273928   6.316   6.569   6.265  0.3363  1.1068 -1.3013
17505TIP3   OH273929   4.730   3.795  15.314 -0.4693 -0.0523 -0.0958
17505TIP3    H173930   4.759   3.874  15.360 -0.0692  1.1676 -2.2655
17505TIP3    H273931   4.798   3.731  15.331  1.5419  1.4899 -1.7724
17506TIP3   OH273932   5.721   0.657   1.205  0.4244 -0.0714  0.2809
17506TIP3    H173933   5.804   0.687   1.168  0.3536  0.6367  0.6758
17506TIP3    H273934   5.730   0.671   1.299  0.0747 -0.5265  0.3854
17507TIP3   OH273935   4.365   3.769  14.274  0.2927 -0.1953 -0.5377
17507TIP3    H173936   4.419   3.804  14.203  0.7436 -0.9930 -0.6036
17507TIP3    H273937   4.352   3.843  14.333  1.0835  0.1185 -0.7476
17508TIP3   OH273938   3.566   4.142  16.496  0.0926 -0.2942  0.2754
17508TIP3    H173939   3.656   4.122  16.468 -0.2335 -1.6618  0.1358
17508TIP3    H273940   3.515   4.140  16.415 -0.0232  0.8275  0.3068
17509TIP3   OH273941   2.026   0.882   4.796  0.2699  0.3340  0.1460
17509TIP3    H173942   2.005   0.963   4.750 -0.0791  0.7464  1.0060
17509TIP3    H273943   2.106   0.902   4.844  0.6690 -0.1163 -0.3144
17510TIP3   OH273944   0.966   6.646   1.637 -0.9854  0.4130  0.0452
17510TIP3    H173945   0.917   6.680   1.562 -0.0058  1.5480 -0.1144
17510TIP3    H273946   1.057   6.643   1.608 -0.7899 -0.5667  0.7075
17511TIP3   OH273947   0.440   4.932   5.655 -0.0349 -0.3977  0.0371
17511TIP3    H173948   0.416   4.844   5.627 -1.0354  0.0939 -0.7048
17511TIP3    H273949   0.357   4.978   5.666  0.4735  0.4783  0.3504
17512TIP3   OH273950   3.781   4.885  15.007  0.1721 -0.1181  0.9162
17512TIP3    H173951   3.761   4.974  14.977 -0.8712  0.0470  1.9949
17512TIP3    H273952   3.868   4.892  15.047 -0.2426  0.6127  1.7126
17513TIP3   OH273953   2.630   2.294   4.753  0.2955 -0.1487 -0.4075
17513TIP3    H173954   2.648   2.386   4.734  0.6612 -0.3006 -0.8132
17513TIP3    H273955   2.572   2.265   4.683  2.1445 -0.8761 -1.7098
17514TIP3   OH273956   6.032   0.013  11.090 -0.2333 -0.2217  0.2588
17514TIP3    H173957   6.128   0.014  11.096  0.0002  2.0746 -2.1179
17514TIP3    H273958   6.012  -0.073  11.054  0.8964 -0.8710  1.1126
17515TIP3   OH273959   0.797   0.311   5.174 -0.0877 -0.2196  0.3699
17515TIP3    H173960   0.844   0.287   5.094  1.4881  0.7207  0.9899
17515TIP3    H273961   0.738   0.237   5.189  0.0753 -0.7253 -1.2768
17516TIP3   OH273962   0.285   6.367  17.021 -0.2292 -0.0472  0.2225
17516TIP3    H173963   0.286   6.463  17.022 -1.6391 -0.0029 -0.4643
17516TIP3    H273964   0.226   6.345  16.949 -0.5847 -1.4324  0.9238
17517TIP3   OH273965   2.551   4.137  15.439 -0.2772  0.0571 -0.4267
17517TIP3    H173966   2.464   4.178  15.437 -0.1456  0.4538  0.9573
17517TIP3    H273967   2.567   4.111  15.348 -2.2943 -0.9986 -0.5517
17518TIP3   OH273968   4.659   0.323  15.348  0.1428 -0.3026 -0.2441
17518TIP3    H173969   4.571   0.287  15.359  0.5548 -0.7076  2.9622
17518TIP3    H273970   4.705   0.297  15.428  2.7929  1.0301 -1.2041
17519TIP3   OH273971   5.176   4.709  15.126 -0.2682 -0.0359  0.3225
17519TIP3    H173972   5.135   4.697  15.040  1.1743 -0.8047 -0.2841
17519TIP3    H273973   5.250   4.649  15.126 -0.6606 -0.5964  2.4034
17520TIP3   OH273974   2.562   1.981  14.982 -0.6752 -0.0696 -0.2819
17520TIP3    H173975   2.473   1.973  14.947 -0.9345 -0.5679  0.4621
17520TIP3    H273976   2.553   1.958  15.074  0.0608  0.8422  0.0323
17521TIP3   OH273977   3.262   3.011   1.673 -0.0297 -0.2288  0.3041
17521TIP3    H173978   3.333   3.022   1.610  0.3800 -0.7625  0.6732
17521TIP3    H273979   3.238   3.101   1.698  1.1820 -0.0658  0.9313
17522TIP3   OH273980   0.629   3.383  12.723  0.2520 -0.6056 -0.3189
17522TIP3    H173981   0.604   3.474  12.713 -0.2480 -0.8239 -1.1916
17522TIP3    H273982   0.549   3.334  12.704  0.2388 -1.2059  1.1818
17523TIP3   OH273983   6.041   4.617  15.264 -0.2270  0.1476  0.3286
17523TIP3    H173984   6.045   4.710  15.238  1.2510 -0.2657 -1.1450
17523TIP3    H273985   5.994   4.575  15.192 -0.5839 -0.2903  0.8197
17524TIP3   OH273986   2.088   1.397  14.388  0.3657  0.2991  0.2775
17524TIP3    H173987   2.044   1.323  14.431  1.4104  0.2661  1.3199
17524TIP3    H273988   2.177   1.395  14.422  1.1671  0.4685 -1.6900
17525TIP3   OH273989   4.543   1.937   4.045  0.3267  0.2331 -0.6392
17525TIP3    H173990   4.579   2.007   3.991 -1.6817  1.2708 -0.7165
17525TIP3    H273991   4.449   1.956   4.050 -0.2426 -2.2688 -0.3806
17526TIP3   OH273992   2.035   5.045  15.781  0.9592 -0.0403 -0.1999
17526TIP3    H173993   2.019   4.959  15.820  1.4316  0.2132  0.5773
17526TIP3    H273994   1.956   5.094  15.799  1.1160  0.0282  0.3356
17527TIP3   OH273995   2.636   3.277  14.242 -0.0960 -0.2281 -0.0878
17527TIP3    H173996   2.602   3.354  14.196 -0.2777 -0.1338  0.1989
17527TIP3    H273997   2.721   3.305  14.276  0.0602 -0.3131 -0.4037
17528TIP3   OH273998   0.259   2.806  13.726  0.1333  0.1900  0.4374
17528TIP3    H173999   0.266   2.868  13.799  0.9076  0.3988  0.1998
17528TIP3    H274000   0.202   2.851  13.663  1.4967  1.1536 -0.1808
17529TIP3   OH274001   2.636   1.201   3.134 -0.8405  0.4210  0.6945
17529TIP3    H174002   2.720   1.191   3.090 -1.2351 -0.8745  0.1877
17529TIP3    H274003   2.657   1.206   3.227 -0.0269  2.7407  0.4549
17530TIP3   OH274004   6.722   5.153   3.841  0.3180  0.6824  0.4151
17530TIP3    H174005   6.756   5.113   3.760 -0.9597 -0.2503  0.2993
17530TIP3    H274006   6.799   5.165   3.896  0.8675 -1.4913  0.2326
17531TIP3   OH274007   2.565   6.782   0.791  0.0072  0.5727 -0.4333
17531TIP3    H174008   2.476   6.783   0.756 -0.8059 -0.6420  1.4335
17531TIP3    H274009   2.611   6.850   0.742 -2.1428  1.7543 -0.9262
17532TIP3   OH274010   3.047   0.199   4.700  0.5191  0.2309  0.2636
17532TIP3    H174011   3.091   0.115   4.716 -0.8206 -0.9019 -1.5243
17532TIP3    H274012   3.068   0.221   4.609  1.1788  2.0804  0.8299
17533TIP3   OH274013   2.954   2.712   0.286  0.1871 -0.2781 -0.5408
17533TIP3    H174014   2.973   2.734   0.377 -1.5164  1.1774 -0.4676
17533TIP3    H274015   3.015   2.766   0.235  1.9427 -1.9538 -0.3085
17534TIP3   OH274016   1.262   6.467  15.785  0.3414 -0.7522 -0.2082
17534TIP3    H174017   1.329   6.417  15.833 -2.1568 -3.4601  0.7550
17534TIP3    H274018   1.231   6.532  15.849  0.4048 -1.0881  0.1684
17535TIP3   OH274019   6.495   0.595  12.928 -0.0038  0.8100  0.2019
17535TIP3    H174020   6.418   0.568  12.978  0.0693 -1.2991 -0.7029
17535TIP3    H274021   6.465   0.596  12.837  0.8851  0.4645 -0.1113
17536TIP3   OH274022   0.331   0.975   2.456 -0.2696  0.2132  0.4040
17536TIP3    H174023   0.344   0.906   2.391  0.2357  1.6099 -1.0355
17536TIP3    H274024   0.372   0.940   2.536  0.0825 -1.0851 -0.3144
17537TIP3   OH274025   0.248   2.732   1.365  0.0252  0.0988  0.0522
17537TIP3    H174026   0.304   2.804   1.395  1.5287 -1.7366  1.9271
17537TIP3    H274027   0.164   2.746   1.408 -0.4831  1.8933 -1.3755
17538TIP3   OH274028   5.992   2.463   4.899 -0.5727 -0.2093  0.0855
17538TIP3    H174029   5.998   2.559   4.902 -2.7457 -0.0205  2.5946
17538TIP3    H274030   6.069   2.433   4.948  0.9601  0.0862 -1.9935
17539TIP3   OH274031   1.442   5.194  14.594 -0.2667 -0.4337  0.4610
17539TIP3    H174032   1.398   5.161  14.516  1.0722  0.2819 -0.6429
17539TIP3    H274033   1.535   5.192  14.571  0.0481  1.3928  1.3812
17540TIP3   OH274034   0.265   6.539   5.611  0.0947 -0.0889 -0.1497
17540TIP3    H174035   0.252   6.625   5.650 -0.9341 -0.6617  0.8236
17540TIP3    H274036   0.305   6.487   5.681  0.7911 -0.4000 -0.7591
17541TIP3   OH274037   1.007   2.466   4.740  0.0186  0.1813  0.5354
17541TIP3    H174038   1.035   2.390   4.689  0.2180 -0.8500  2.1271
17541TIP3    H274039   1.088   2.504   4.773 -0.1932 -0.7819  2.2984
17542TIP3   OH274040   6.352   5.865  13.216 -0.3216  0.3823 -0.3196
17542TIP3    H174041   6.315   5.953  13.225 -1.5756 -0.1357 -0.1492
17542TIP3    H274042   6.278   5.806  13.231  0.6501 -0.7245  0.3062
17543TIP3   OH274043   3.002   5.782  14.882 -0.0073  0.1840 -0.3678
17543TIP3    H174044   3.030   5.718  14.817 -1.9319  1.6357 -2.8097
17543TIP3    H274045   3.080   5.836  14.898  1.7630 -2.7989  2.0297
17544TIP3   OH274046   1.440   0.805  11.006  1.0293 -0.5698 -0.0886
17544TIP3    H174047   1.406   0.775  10.922  2.2302 -0.6054 -0.5916
17544TIP3    H274048   1.462   0.897  10.992 -0.7495  0.0497  0.8518
17545TIP3   OH274049   3.686   1.227   5.157 -0.0929 -0.2974 -0.0701
17545TIP3    H174050   3.655   1.274   5.080 -0.5693 -0.8544 -0.2268
17545TIP3    H274051   3.645   1.140   5.150  1.6823 -1.1527 -0.4161
17546TIP3   OH274052   4.223   4.259   1.637 -0.3508  0.4761  0.5180
17546TIP3    H174053   4.194   4.236   1.725  2.3253 -0.7026  1.2019
17546TIP3    H274054   4.176   4.198   1.580 -0.7487  0.0332  1.3029
17547TIP3   OH274055   6.368   3.433   6.475  0.0265 -0.3562 -0.4322
17547TIP3    H174056   6.340   3.342   6.486 -0.7668 -0.3201 -1.9119
17547TIP3    H274057   6.461   3.427   6.454  0.0924 -0.7806 -0.0430
17548TIP3   OH274058   4.513   4.000   1.003 -0.0895  0.0104  0.4844
17548TIP3    H174059   4.455   4.071   1.029  2.8289  2.4909  0.8024
17548TIP3    H274060   4.563   4.036   0.929  0.1494 -2.4796 -0.6514
17549TIP3   OH274061   5.967   5.316  14.424  0.8117 -0.7022 -0.1397
17549TIP3    H174062   5.975   5.358  14.338  2.5669 -0.6017  0.0292
17549TIP3    H274063   5.951   5.388  14.484  4.0517 -0.0791  0.1846
17550TIP3   OH274064   1.382   2.360   4.316  0.1084 -0.0592 -0.2118
17550TIP3    H174065   1.450   2.349   4.383  1.4732 -0.1586 -1.5593
17550TIP3    H274066   1.368   2.455   4.312 -0.9658 -0.1222  1.1031
17551TIP3   OH274067   1.098   5.271  12.711  0.6740  0.4336 -0.5348
17551TIP3    H174068   1.100   5.298  12.803  3.1649  3.1899 -1.2465
17551TIP3    H274069   1.009   5.290  12.683  0.2357  0.7766  0.9744
17552TIP3   OH274070   2.742   1.263   5.936 -0.7523  0.3888  0.5213
17552TIP3    H174071   2.813   1.319   5.904 -0.4792 -0.8572 -1.1762
17552TIP3    H274072   2.664   1.317   5.926 -0.3569  0.8862 -0.0036
17553TIP3   OH274073   4.811   2.128   1.816  0.2988  0.4707 -0.1791
17553TIP3    H174074   4.789   2.041   1.786 -1.2562  1.3304 -1.6996
17553TIP3    H274075   4.759   2.140   1.896 -1.0382  0.6765 -1.0448
17554TIP3   OH274076   2.099   6.280   3.369 -0.1515 -0.0858 -0.6116
17554TIP3    H174077   2.040   6.261   3.441 -0.7802  1.8050 -0.5865
17554TIP3    H274078   2.179   6.231   3.390 -1.0248 -1.1940  0.2883
17555TIP3   OH274079   3.626   1.660  11.555  0.0324  0.0623  0.2947
17555TIP3    H174080   3.683   1.691  11.626 -0.4054 -0.0575  0.7047
17555TIP3    H274081   3.675   1.679  11.475  0.1923  0.9451  0.5836
17556TIP3   OH274082   5.521   3.596  13.352 -0.4314 -0.6126 -0.0169
17556TIP3    H174083   5.519   3.574  13.259  0.9303  1.5381 -0.6205
17556TIP3    H274084   5.537   3.690  13.354  0.0586 -0.6924  2.4032
17557TIP3   OH274085   4.810   1.847  11.083  0.1024 -0.1714  0.0710
17557TIP3    H174086   4.775   1.902  11.012 -0.0270 -0.3246  0.0147
17557TIP3    H274087   4.878   1.900  11.123 -0.8784  0.5483  0.8361
17558TIP3   OH274088   0.779   1.361   5.015  0.3622 -0.2095 -0.8241
17558TIP3    H174089   0.689   1.383   4.993 -0.0354 -0.7886  0.1793
17558TIP3    H274090   0.788   1.269   4.991  0.8575 -0.0244 -1.3964
17559TIP3   OH274091   1.784   4.837  15.439 -0.1451 -0.3524  0.4160
17559TIP3    H174092   1.849   4.769  15.454  0.1008 -0.2803 -0.2789
17559TIP3    H274093   1.700   4.792  15.448  0.0107 -0.6133  0.5644
17560TIP3   OH274094   6.155   4.662   1.124 -0.6622  0.0439  0.1182
17560TIP3    H174095   6.115   4.579   1.150 -2.2788  0.6812 -0.2104
17560TIP3    H274096   6.115   4.683   1.040  1.8710 -0.2266 -1.2551
17561TIP3   OH274097   3.133   1.016  11.863 -0.1702  0.1332 -0.1108
17561TIP3    H174098   3.224   1.045  11.872  0.3613 -0.8571 -1.8632
17561TIP3    H274099   3.138   0.937  11.809 -1.9903 -0.5536  0.6295
17562TIP3   OH274100   5.262   6.223  16.768 -0.1842 -0.3036 -0.2659
17562TIP3    H174101   5.349   6.258  16.786 -0.2597 -0.8609  1.3721
17562TIP3    H274102   5.229   6.277  16.697  0.7782  1.1566  0.3438
17563TIP3   OH274103   1.882   1.027  16.896 -0.3071 -1.1246 -0.0199
17563TIP3    H174104   1.861   1.097  16.835 -1.6085 -1.7935 -0.3873
17563TIP3    H274105   1.837   0.950  16.860 -1.6334 -1.4095  2.0654
17564TIP3   OH274106   4.171   0.446  13.551 -0.3801  0.2545 -0.0699
17564TIP3    H174107   4.101   0.501  13.515 -1.1209  0.6483  1.8519
17564TIP3    H274108   4.143   0.356  13.532  0.7632  0.3938 -3.0951
17565TIP3   OH274109   4.979   3.821   3.112 -0.1352 -0.3745  0.1605
17565TIP3    H174110   5.061   3.861   3.083 -0.8249  2.5968  1.8527
17565TIP3    H274111   4.933   3.798   3.031  1.3172  0.1987 -0.8633
17566TIP3   OH274112   6.433   1.434   0.690 -0.3317  0.4081  0.2175
17566TIP3    H174113   6.412   1.479   0.771  3.2281 -0.1981  1.6804
17566TIP3    H274114   6.393   1.347   0.699 -0.6292  0.6223  0.9631
17567TIP3   OH274115   4.809   4.659  16.970 -0.7395  0.4730 -0.2356
17567TIP3    H174116   4.862   4.715  17.027 -1.6127  1.0022  0.0981
17567TIP3    H274117   4.866   4.635  16.898  1.4644 -2.7102  2.2701
17568TIP3   OH274118   0.904   5.190   0.305 -0.1678 -0.6372  0.0121
17568TIP3    H174119   0.911   5.105   0.261  1.6148  1.1443 -3.6224
17568TIP3    H274120   0.949   5.177   0.388  1.3940 -2.9171 -1.0689
17569TIP3   OH274121   4.365   1.998   1.190 -0.0480  0.1293  0.4670
17569TIP3    H174122   4.429   2.065   1.213  1.0136 -0.5791 -0.3561
17569TIP3    H274123   4.400   1.917   1.227  0.4718 -0.5910 -1.4820
17570TIP3   OH274124   5.050   1.386   5.700  0.2634 -0.1764 -0.6785
17570TIP3    H174125   5.085   1.330   5.770 -1.4219  0.2909  0.6050
17570TIP3    H274126   5.076   1.475   5.725  0.8749 -0.1410 -1.4243
17571TIP3   OH274127   5.886   2.714  14.799 -0.4837 -0.3341  0.6362
17571TIP3    H174128   5.949   2.647  14.772 -1.7546 -0.4040 -2.5555
17571TIP3    H274129   5.801   2.680  14.770 -1.4746  1.5758  1.1290
17572TIP3   OH274130   3.094   2.538  14.751 -0.0292 -0.1293  0.1608
17572TIP3    H174131   3.156   2.606  14.724 -0.5008 -0.3629 -1.6745
17572TIP3    H274132   3.116   2.520  14.842  1.1628  1.3316  0.1988
17573TIP3   OH274133   0.337   1.035   0.800 -0.2035  0.0230  0.4460
17573TIP3    H174134   0.397   1.006   0.869 -0.7921  1.4689  1.6099
17573TIP3    H274135   0.250   1.025   0.838 -0.6372 -0.5023 -0.6337
17574TIP3   OH274136   4.834   5.885   1.897 -0.0261  0.0474 -0.4143
17574TIP3    H174137   4.829   5.966   1.846 -0.0676  1.1093  1.1886
17574TIP3    H274138   4.893   5.828   1.847 -0.3644  0.8778 -1.8110
17575TIP3   OH274139   4.149   3.237  13.638 -0.1739 -0.4700 -0.4019
17575TIP3    H174140   4.085   3.178  13.599 -0.0556 -0.5009 -0.5488
17575TIP3    H274141   4.234   3.198  13.618 -0.1269 -0.7681  0.3361
17576TIP3   OH274142   0.559   2.810   1.552  0.4857  0.4390 -0.3127
17576TIP3    H174143   0.575   2.783   1.461 -1.0277  0.7767 -0.6992
17576TIP3    H274144   0.530   2.730   1.595 -0.3656  0.6170 -0.5384
17577TIP3   OH274145   4.417   3.151  15.039 -0.3596  0.1941  0.6014
17577TIP3    H174146   4.443   3.178  15.128 -1.7210  2.8600  0.3154
17577TIP3    H274147   4.489   3.180  14.983 -0.1730 -0.1314  0.6703
17578TIP3   OH274148   3.040   2.924   4.641 -0.3070 -0.0237 -0.2397
17578TIP3    H174149   3.025   2.925   4.735  1.9621  1.5113  0.1794
17578TIP3    H274150   3.031   2.831   4.617 -1.0047 -0.4352  1.4467
17579TIP3   OH274151   6.491   0.049   4.077 -0.0545 -0.0382  0.0290
17579TIP3    H174152   6.412   0.100   4.063 -1.3648 -1.8678  0.3042
17579TIP3    H274153   6.552   0.109   4.119 -1.8364  1.0307  1.2331
17580TIP3   OH274154   5.099   5.416  11.980 -0.1067 -0.6556 -0.3997
17580TIP3    H174155   5.190   5.443  11.967  0.1512 -1.0408  0.5536
17580TIP3    H274156   5.088   5.413  12.075 -1.7003  1.3339 -0.4486
17581TIP3   OH274157   5.703   1.857  12.945 -0.0025 -0.1625 -0.2812
17581TIP3    H174158   5.718   1.947  12.918 -1.6875  0.4064  0.5243
17581TIP3    H274159   5.678   1.812  12.865 -1.4852  0.6771 -0.3272
17582TIP3   OH274160   4.863   4.613   0.444  0.4082  0.1361  0.2642
17582TIP3    H174161   4.915   4.548   0.395 -0.9395 -0.5982 -0.2444
17582TIP3    H274162   4.902   4.697   0.422 -0.1507 -0.1680 -2.1254
17583TIP3   OH274163   4.451   3.830  12.778 -0.4292  0.0517  0.0311
17583TIP3    H174164   4.369   3.790  12.750  0.3671 -2.2030  0.7659
17583TIP3    H274165   4.473   3.890  12.706 -1.9468 -0.3760 -0.8512
17584TIP3   OH274166   6.318   6.594  11.860  0.8272 -0.6365 -0.2187
17584TIP3    H174167   6.376   6.616  11.787  0.7466  0.2872 -0.0233
17584TIP3    H274168   6.377   6.576  11.933  0.8865 -0.6180 -0.2622
17585TIP3   OH274169   2.108   2.373   4.801  0.1283 -0.7306 -0.0358
17585TIP3    H174170   2.044   2.353   4.732  0.4652  2.0357 -1.3234
17585TIP3    H274171   2.061   2.433   4.859  0.0328 -2.6195  1.9369
17586TIP3   OH274172   5.656   6.563   2.874  0.6444  0.0773 -0.1109
17586TIP3    H174173   5.710   6.628   2.918  1.1650  0.2277 -0.9471
17586TIP3    H274174   5.693   6.557   2.786 -0.9381  0.4586 -0.8359
17587TIP3   OH274175   2.164   2.676   4.257 -0.0858  0.7278 -0.1749
17587TIP3    H174176   2.093   2.613   4.257  0.4562  0.0711 -1.8625
17587TIP3    H274177   2.216   2.655   4.335 -1.9162  1.5121  1.3501
17588TIP3   OH274178   1.052   6.230   4.315  0.3164  0.4983  0.3778
17588TIP3    H174179   1.045   6.317   4.274  1.7940  0.2952 -0.4051
17588TIP3    H274180   1.070   6.248   4.407  1.6390  1.0695  0.0308
17589TIP3   OH274181   0.235   1.679   1.755  0.6008  0.2476  0.1750
17589TIP3    H174182   0.259   1.598   1.799 -2.0709 -1.0588 -0.5762
17589TIP3    H274183   0.215   1.741   1.825  0.3490 -0.4992  0.7616
17590TIP3   OH274184   5.842   3.672   4.840 -0.0366 -0.7664  0.1161
17590TIP3    H174185   5.907   3.659   4.909 -0.2875 -0.5883  0.3938
17590TIP3    H274186   5.855   3.762   4.811  0.8121 -1.1838 -0.8662
17591TIP3   OH274187   3.867   6.576   5.491 -0.1197 -0.1113 -0.2046
17591TIP3    H174188   3.865   6.627   5.410  0.2324  1.1969  0.5793
17591TIP3    H274189   3.818   6.496   5.470  0.9826 -0.3633 -2.0481
17592TIP3   OH274190   5.292   0.383   0.051  1.1745  0.1530  0.4573
17592TIP3    H174191   5.376   0.343   0.030  0.8753 -0.5869  0.6586
17592TIP3    H274192   5.244   0.316   0.099  0.2193  0.3219 -0.2150
17593TIP3   OH274193   0.565   3.302  15.438  0.5602 -0.9034 -0.3484
17593TIP3    H174194   0.552   3.328  15.529  1.3227 -1.6316 -0.0175
17593TIP3    H274195   0.513   3.222  15.428  1.6780 -1.6803 -0.1022
17594TIP3   OH274196   0.050   1.970   5.223  0.3694  0.1723 -0.2051
17594TIP3    H174197   0.024   1.965   5.131  1.1009 -0.0635 -0.4088
17594TIP3    H274198   0.137   2.010   5.221  0.6326 -0.3550  0.3409
17595TIP3   OH274199   5.212   5.861  12.833  0.1264 -0.1022  0.2761
17595TIP3    H174200   5.234   5.786  12.777  1.5629  0.9251 -0.6309
17595TIP3    H274201   5.219   5.828  12.922 -0.0873 -1.2483 -0.1240
17596TIP3   OH274202   2.521   2.115   4.564  0.1012 -0.1828  0.0999
17596TIP3    H174203   2.545   2.023   4.562 -0.0543 -0.2170 -0.9674
17596TIP3    H274204   2.445   2.121   4.506 -2.5734 -0.0827  3.3098
17597TIP3   OH274205   6.512   0.147  14.001 -0.0772 -0.2601  0.2438
17597TIP3    H174206   6.455   0.199  13.944  0.9237  0.8573  0.2407
17597TIP3    H274207   6.460   0.132  14.080 -0.6044  0.1858 -0.0125
17598TIP3   OH274208   5.095   0.539  10.795  0.1534  0.2516  0.0912
17598TIP3    H174209   5.038   0.611  10.771 -0.7624  0.1279  1.7223
17598TIP3    H274210   5.163   0.538  10.728 -1.1684  1.0639 -1.3162
17599TIP3   OH274211   0.158   5.616   2.389 -0.7673 -0.4005 -0.5106
17599TIP3    H174212   0.104   5.660   2.455 -0.8014 -0.0296 -0.7835
17599TIP3    H274213   0.105   5.616   2.310 -0.8705 -1.1704 -0.4472
17600TIP3   OH274214   5.827   6.134  14.970  0.5454  0.1591  0.2066
17600TIP3    H174215   5.922   6.146  14.976  0.6194 -0.4191  0.3018
17600TIP3    H274216   5.790   6.220  14.987  1.1172  0.8860 -1.8732
17601TIP3   OH274217   3.940   3.115  13.512 -0.0769  0.2091  0.0293
17601TIP3    H174218   3.848   3.129  13.533 -0.2473  1.0388 -1.2160
17601TIP3    H274219   3.949   3.139  13.420  1.6778  1.6016  0.4887
17602TIP3   OH274220   5.746   4.880  12.999  0.1112 -0.1998 -0.0307
17602TIP3    H174221   5.804   4.804  13.000 -1.3503 -1.3674  0.1619
17602TIP3    H274222   5.721   4.893  13.090  0.1807  0.3840 -0.0895
17603TIP3   OH274223   5.549   5.499   2.167  0.1245  0.4267 -0.4495
17603TIP3    H174224   5.518   5.545   2.245  1.1749 -0.0995  0.3024
17603TIP3    H274225   5.639   5.529   2.156  1.3285 -2.3327  0.8510
17604TIP3   OH274226   1.454   4.085  12.575 -0.3792 -0.7208  0.2657
17604TIP3    H174227   1.510   4.065  12.649 -1.5462  0.3097  1.4828
17604TIP3    H274228   1.505   4.059  12.498  1.6254 -0.0723  1.3134
17605TIP3   OH274229   1.859   4.143  16.062  0.0528  0.2493  0.4514
17605TIP3    H174230   1.802   4.182  15.996 -0.8586  0.4141  1.3120
17605TIP3    H274231   1.933   4.203  16.068 -0.0853  0.4789 -0.0821
17606TIP3   OH274232   2.077   5.809   4.462  0.0947 -0.6839 -0.4905
17606TIP3    H174233   2.060   5.903   4.456 -0.3882 -0.7520 -0.2129
17606TIP3    H274234   2.140   5.800   4.533  0.1190 -0.5709 -0.4979
17607TIP3   OH274235   6.071   6.079   2.221  0.6525  0.0021 -0.5093
17607TIP3    H174236   5.999   6.090   2.284  0.7898  0.1606 -0.3774
17607TIP3    H274237   6.134   6.147   2.245  0.6785  0.1042 -0.8603
17608TIP3   OH274238   0.453   3.257  13.908 -0.3993 -0.7117  0.2749
17608TIP3    H174239   0.357   3.268  13.907 -0.3060  0.1687  0.3080
17608TIP3    H274240   0.485   3.323  13.847  0.3411  0.7379  2.1338
17609TIP3   OH274241   5.392   6.690  15.400 -0.0879 -0.3443 -0.4768
17609TIP3    H174242   5.302   6.689  15.432 -0.4088  1.4169 -1.2251
17609TIP3    H274243   5.399   6.611  15.347 -1.0575 -0.7152 -0.0847
17610TIP3   OH274244   0.143   0.198   1.398  0.0543 -0.4807 -0.2486
17610TIP3    H174245   0.142   0.257   1.323 -1.8273 -0.4391 -0.2387
17610TIP3    H274246   0.061   0.215   1.444  0.9713 -0.7815  1.6242
17611TIP3   OH274247   5.784   0.716  16.418  0.4293  0.3745  0.9179
17611TIP3    H174248   5.766   0.627  16.385  1.7741  1.1384 -2.3374
17611TIP3    H274249   5.874   0.711  16.449  1.1534  0.8959 -0.9323
17612TIP3   OH274250   6.000   2.948  14.498  0.2948 -0.7580 -0.7018
17612TIP3    H174251   5.934   2.929  14.565  1.4568 -0.0808  0.6884
17612TIP3    H274252   5.949   2.955  14.417 -1.1171 -1.8976  0.0285
17613TIP3   OH274253   2.697   5.696  14.326 -0.1869 -0.5217 -0.0835
17613TIP3    H174254   2.715   5.633  14.396 -0.6689 -1.1495 -0.5081
17613TIP3    H274255   2.623   5.658  14.278 -0.8237  0.6348 -0.0399
17614TIP3   OH274256   1.830   0.487   0.828 -0.7650  0.4087 -0.0758
17614TIP3    H174257   1.813   0.544   0.903  0.4737 -1.0172  1.3685
17614TIP3    H274258   1.780   0.408   0.847  1.2343 -0.8126  0.3929
17615TIP3   OH274259   4.542   5.283   2.570  0.5153 -0.5664 -0.5344
17615TIP3    H174260   4.458   5.323   2.593  1.0607 -0.2239  1.0202
17615TIP3    H274261   4.597   5.299   2.647  1.4500 -2.3392 -0.7827
17616TIP3   OH274262   0.200   4.354  11.575 -0.5506 -0.4333  0.4399
17616TIP3    H174263   0.295   4.348  11.586 -0.4156  1.3710  0.6126
17616TIP3    H274264   0.168   4.265  11.591  1.1435 -1.1710 -0.0990
17617TIP3   OH274265   0.971   6.691   3.178  0.1236  0.1085 -0.4975
17617TIP3    H174266   0.962   6.676   3.273  1.0352 -0.9829 -0.5599
17617TIP3    H274267   0.987   6.785   3.170  0.2353  0.1829  0.4464
17618TIP3   OH274268   6.108   2.064  11.188 -0.1951 -0.0077  0.0839
17618TIP3    H174269   6.101   2.136  11.251  0.1125  0.5850 -0.5442
17618TIP3    H274270   6.111   2.107  11.103  0.0906 -0.7665 -0.2981
17619TIP3   OH274271   1.891   2.940   3.836  0.2404  0.5603 -0.4566
17619TIP3    H174272   1.872   3.029   3.866 -1.3133  0.2463 -0.4162
17619TIP3    H274273   1.887   2.945   3.741  0.4603  0.5958 -0.4641
17620TIP3   OH274274   1.613   2.663   1.884 -0.2666  0.3181  0.8717
17620TIP3    H174275   1.677   2.596   1.909  1.3949  1.4406 -0.1904
17620TIP3    H274276   1.648   2.745   1.919 -0.5123  1.1298 -0.7020
17621TIP3   OH274277   2.785   2.647  10.918 -0.0056 -0.0328  0.3115
17621TIP3    H174278   2.790   2.593  10.840  1.2149  0.9143 -0.2877
17621TIP3    H274279   2.711   2.706  10.902  1.2186  1.2398 -0.8709
17622TIP3   OH274280   2.848   4.509  13.216  0.7688  0.3406 -0.9072
17622TIP3    H174281   2.811   4.478  13.299 -1.2204  0.9441 -1.5247
17622TIP3    H274282   2.845   4.432  13.159  2.8146 -0.2802 -0.2733
17623TIP3   OH274283   6.353   6.012  14.400 -0.3587 -0.1209  0.2452
17623TIP3    H174284   6.399   6.058  14.330 -0.4324  1.9832  1.4733
17623TIP3    H274285   6.264   6.046  14.397 -0.3401  0.0859  1.3875
17624TIP3   OH274286   2.305   5.054   0.973  0.1575  0.6778 -0.1416
17624TIP3    H174287   2.373   5.026   0.912  0.9006 -0.3471  1.0934
17624TIP3    H274288   2.353   5.085   1.050 -0.7534  0.1441  0.6637
17625TIP3   OH274289   5.696   3.693  11.412 -0.2260  0.1474  0.2149
17625TIP3    H174290   5.779   3.647  11.418 -0.2515  0.0698  0.0052
17625TIP3    H274291   5.673   3.689  11.319 -0.1160  0.7872  0.1547
17626TIP3   OH274292   1.568   1.308  16.621  0.2060  0.0048  0.6612
17626TIP3    H174293   1.595   1.308  16.713 -1.1680 -0.3848  1.0838
17626TIP3    H274294   1.473   1.294  16.624 -0.0759  1.4506 -0.7583
17627TIP3   OH274295   0.282   1.013   2.038  0.1135 -0.0161  0.2546
17627TIP3    H174296   0.203   0.988   1.991  0.0659 -0.4618  0.5559
17627TIP3    H274297   0.294   0.943   2.103 -0.0148  0.7489  1.1251
17628TIP3   OH274298   6.101   4.134   5.060  0.6317  0.2836 -0.0840
17628TIP3    H174299   6.022   4.182   5.035  1.0800  0.9327 -0.2903
17628TIP3    H274300   6.077   4.089   5.141  0.0467  0.4751 -0.1475
17629TIP3   OH274301   3.090   3.381  13.440  0.2840 -0.0939  0.0587
17629TIP3    H174302   3.091   3.293  13.403 -0.5919  0.5537 -1.5915
17629TIP3    H274303   3.089   3.439  13.364 -0.4529  1.3240  1.1029
17630TIP3   OH274304   5.637   5.615   0.917 -0.2935 -0.6067  0.3129
17630TIP3    H174305   5.686   5.637   0.838  0.8084  0.0883  1.1551
17630TIP3    H274306   5.546   5.632   0.895 -0.1507 -1.6023 -1.1866
17631TIP3   OH274307   5.318   3.115   4.549 -0.0226  0.5802  0.0085
17631TIP3    H174308   5.264   3.187   4.582 -1.1902 -0.6747  0.9660
17631TIP3    H274309   5.405   3.132   4.585  0.1190  2.3368 -1.0844
17632TIP3   OH274310   5.891   0.359   3.766 -0.4638  0.3758 -0.3922
17632TIP3    H174311   5.863   0.329   3.680  0.6656  0.2212 -0.7226
17632TIP3    H274312   5.813   0.350   3.821 -1.1404  0.2820 -1.3430
17633TIP3   OH274313   4.581   4.151   3.633 -0.0695  0.2814  0.3756
17633TIP3    H174314   4.620   4.230   3.671  1.0653  0.1539 -0.4824
17633TIP3    H274315   4.569   4.172   3.541 -0.1392 -0.4061  0.2243
17634TIP3   OH274316   0.396   5.941   4.356 -0.5989 -0.3962  0.1542
17634TIP3    H174317   0.314   5.954   4.403 -0.3728 -0.5395  0.5964
17634TIP3    H274318   0.375   5.879   4.286 -0.2389 -2.8278  2.0744
17635TIP3   OH274319   3.897   4.896   3.909  0.2870  0.2241  0.4048
17635TIP3    H174320   3.966   4.832   3.891  1.9126  1.3199  2.3592
17635TIP3    H274321   3.872   4.928   3.823  2.8307  0.3806 -0.3652
17636TIP3   OH274322   2.840   6.637  10.451 -0.0022 -0.2011  0.6843
17636TIP3    H174323   2.889   6.717  10.475  0.1483 -0.7757  2.4627
17636TIP3    H274324   2.749   6.657  10.473 -0.1788 -0.0741 -0.1228
17637TIP3   OH274325   0.350   1.597   5.874 -0.0861 -0.2235 -0.0223
17637TIP3    H174326   0.418   1.624   5.811 -0.7823  0.8389 -0.3461
17637TIP3    H274327   0.384   1.623   5.959 -0.5233  1.3019 -0.2828
17638TIP3   OH274328   6.282   0.928   2.267 -0.4054  0.4429 -0.4055
17638TIP3    H174329   6.362   0.889   2.232 -1.1108 -1.2502 -0.2514
17638TIP3    H274330   6.304   0.953   2.356 -0.3363 -1.1536  0.0641
17639TIP3   OH274331   1.310   0.687   1.301 -0.2639  0.6441  0.0740
17639TIP3    H174332   1.327   0.724   1.387  1.9345  1.3094 -0.5890
17639TIP3    H274333   1.388   0.636   1.280 -1.7481 -1.5192 -0.5524
17640TIP3   OH274334   1.635   0.100  15.379  0.2153  0.2123 -0.0805
17640TIP3    H174335   1.592   0.179  15.414 -1.4994 -0.6909 -0.0362
17640TIP3    H274336   1.567   0.033  15.383  0.9802 -0.7374 -2.1343
17641TIP3   OH274337   5.549   2.830  13.375  0.2453 -0.0054 -0.2530
17641TIP3    H174338   5.568   2.738  13.392 -1.2130 -0.1537  0.7341
17641TIP3    H274339   5.469   2.829  13.322 -0.2807  0.6981  0.5051
17642TIP3   OH274340   0.449   2.597   5.983 -0.5886  0.3898 -0.0587
17642TIP3    H174341   0.421   2.593   6.075 -1.2305  1.2216 -0.2032
17642TIP3    H274342   0.371   2.572   5.933  0.1778 -1.5872 -0.3596
17643TIP3   OH274343   3.866   0.709   4.344  0.6095  0.2000  0.0803
17643TIP3    H174344   3.911   0.703   4.429 -0.4144  1.3438  0.7345
17643TIP3    H274345   3.774   0.693   4.365  0.3235  0.6551 -0.7932
17644TIP3   OH274346   3.736   6.129  16.550  0.4522 -0.3378  0.0097
17644TIP3    H174347   3.807   6.132  16.485  1.7918 -0.1595  1.4290
17644TIP3    H274348   3.778   6.097  16.630 -1.0926 -0.2473  0.8895
17645TIP3   OH274349   6.503   1.677   4.294  0.3645 -0.4575 -0.5276
17645TIP3    H174350   6.451   1.684   4.374  0.9350 -0.9255 -0.1092
17645TIP3    H274351   6.470   1.599   4.250 -1.0456  0.6754 -1.5719
17646TIP3   OH274352   4.266   5.755   4.292 -0.5228  0.5126 -0.5081
17646TIP3    H174353   4.205   5.779   4.223  0.0414  1.8175 -0.5815
17646TIP3    H274354   4.254   5.661   4.304 -2.3476  0.6961 -0.7020
17647TIP3   OH274355   1.371   6.763   1.409 -0.2328 -0.1813 -1.2948
17647TIP3    H174356   1.389   6.842   1.460  1.3915 -0.7026 -1.0057
17647TIP3    H274357   1.330   6.703   1.472  0.6429 -0.3753 -0.8796
17648TIP3   OH274358   1.095   1.736  15.480  0.3996 -0.1438  0.1372
17648TIP3    H174359   1.123   1.813  15.529  0.1519  0.3812 -0.5421
17648TIP3    H274360   1.046   1.771  15.406  1.2833 -0.9020 -0.8317
17649TIP3   OH274361   5.857   1.934  11.310  0.0073  0.6373 -0.1527
17649TIP3    H174362   5.864   1.990  11.387  0.3442  0.8309 -0.3213
17649TIP3    H274363   5.937   1.951  11.260  0.4329 -0.4836  0.1155
17650TIP3   OH274364   5.054   1.471  15.266  0.4758 -0.5810 -0.0763
17650TIP3    H174365   5.053   1.494  15.359 -0.7179  1.2079 -0.4862
17650TIP3    H274366   5.147   1.466  15.244  1.0507  4.5951  0.0145
17651TIP3   OH274367   1.566   4.974  12.289  0.0942 -0.4374 -0.0753
17651TIP3    H174368   1.643   5.012  12.333  0.2251 -1.5090  0.6619
17651TIP3    H274369   1.586   4.982  12.196  0.6932  0.1074  0.0855
17652TIP3   OH274370   5.393   1.823  15.774  0.4519  0.1197  0.0110
17652TIP3    H174371   5.431   1.750  15.823 -1.0398 -0.8423 -0.2055
17652TIP3    H274372   5.408   1.802  15.682 -0.1928 -0.0463 -0.0613
17653TIP3   OH274373   6.763   1.480  16.135  0.3067  0.5275 -0.3365
17653TIP3    H174374   6.677   1.508  16.105  0.5007  1.5081 -0.0099
17653TIP3    H274375   6.763   1.497  16.229  0.9261  0.7585 -0.3713
17654TIP3   OH274376   4.542   4.857  16.399  0.3946 -0.2757  0.1090
17654TIP3    H174377   4.605   4.879  16.467  0.3118  1.7652 -0.4327
17654TIP3    H274378   4.475   4.924  16.405 -0.2867 -0.8101 -1.1600
17655TIP3   OH274379   2.692   0.969   1.061  0.6468 -0.5977 -0.6627
17655TIP3    H174380   2.639   0.891   1.047  2.5562 -2.0008 -0.3801
17655TIP3    H274381   2.781   0.937   1.074  1.5267  1.6342 -0.6277
17656TIP3   OH274382   1.739   0.718   4.389  0.6786  0.4290 -0.5457
17656TIP3    H174383   1.756   0.629   4.358  0.3567 -0.2324  1.0646
17656TIP3    H274384   1.825   0.754   4.410  0.8974  0.8781 -2.0930
17657TIP3   OH274385   3.347   2.496   0.370 -0.2376 -0.1982  0.1856
17657TIP3    H174386   3.355   2.520   0.278  0.0447  0.0272  0.2678
17657TIP3    H274387   3.319   2.577   0.414  0.0631 -0.1867  0.3620
17658TIP3   OH274388   5.493   1.177  16.658 -0.2265 -0.1495  0.1774
17658TIP3    H174389   5.500   1.104  16.720 -2.0741  0.4699  1.1908
17658TIP3    H274390   5.520   1.140  16.574 -0.0493 -1.6871  0.8785
17659TIP3   OH274391   5.618   6.483   3.904  0.1564 -0.5208  0.2185
17659TIP3    H174392   5.610   6.415   3.971 -1.3945 -1.0602 -0.4672
17659TIP3    H274393   5.690   6.453   3.848  2.8363  0.9125  2.6573
17660TIP3   OH274394   5.981   2.776  11.531  0.3057 -0.8537 -0.1129
17660TIP3    H174395   6.049   2.742  11.589  0.1045  0.2446  0.8076
17660TIP3    H274396   5.948   2.855  11.575  0.0930 -0.0025 -1.6926
17661TIP3   OH274397   4.672   1.419  12.787 -0.6538 -0.2594 -0.6460
17661TIP3    H174398   4.645   1.405  12.878  1.5428 -0.6661 -0.0090
17661TIP3    H274399   4.619   1.493  12.758 -0.4098  0.8077  1.4348
17662TIP3   OH274400   1.446   0.958   0.653  0.4272  0.6132  0.0124
17662TIP3    H174401   1.422   1.027   0.591  0.4256  1.8518  1.3378
17662TIP3    H274402   1.406   0.985   0.736  1.3100 -0.4523  0.8211
17663TIP3   OH274403   5.526   6.394  11.675 -0.3372  0.2567 -0.1785
17663TIP3    H174404   5.555   6.304  11.668 -0.3300  0.3130 -0.9502
17663TIP3    H274405   5.603   6.442  11.704 -0.3953 -0.0104  0.4335
17664TIP3   OH274406   6.129   1.032   4.653 -0.4598 -0.2552  0.0799
17664TIP3    H174407   6.137   1.097   4.583 -1.2366  1.0788  1.1972
17664TIP3    H274408   6.035   1.020   4.665 -0.3382 -0.2033  1.1416
17665TIP3   OH274409   6.252   6.382   1.793 -0.4834 -0.0585 -0.4551
17665TIP3    H174410   6.186   6.405   1.728 -1.2419  0.1461  0.3699
17665TIP3    H274411   6.295   6.305   1.756 -0.2165  0.6422 -1.6572
17666TIP3   OH274412   0.483   6.222   0.758  0.3327  0.3980  0.1042
17666TIP3    H174413   0.447   6.297   0.711  1.9580  1.5288  0.5380
17666TIP3    H274414   0.460   6.238   0.850  1.9471  1.2197  0.4096
17667TIP3   OH274415   4.141   2.158  11.617  0.1267 -0.4855 -0.1518
17667TIP3    H174416   4.175   2.163  11.528 -0.9125  0.8567 -0.5025
17667TIP3    H274417   4.196   2.217  11.667 -0.6738  0.4900 -0.3948
17668TIP3   OH274418   5.823   0.942   5.456  0.0552  0.3339  0.1170
17668TIP3    H174419   5.884   0.875   5.424  0.9546  1.2471 -0.1264
17668TIP3    H274420   5.777   0.900   5.529 -0.4120 -1.0269 -0.9089
17669TIP3   OH274421   5.156   1.725  14.383 -0.1016  0.4252 -0.4372
17669TIP3    H174422   5.060   1.731  14.379 -0.1341  0.6422  0.4650
17669TIP3    H274423   5.182   1.695  14.296 -1.0774 -0.7689 -0.3377
17670TIP3   OH274424   3.944   1.362  12.630 -0.5395 -0.4932  0.3770
17670TIP3    H174425   4.003   1.431  12.661 -0.4546 -0.0881 -0.6532
17670TIP3    H274426   3.898   1.333  12.709  0.1492  0.0347  0.9928
17671TIP3   OH274427   1.364   3.872  14.409 -0.0344 -0.0282  0.3479
17671TIP3    H174428   1.362   3.956  14.453  0.6430  0.3343 -0.2916
17671TIP3    H274429   1.457   3.856  14.390 -0.0409 -1.3499  1.2713
17672TIP3   OH274430   1.466   4.222   4.056  0.2845 -0.0062 -0.2746
17672TIP3    H174431   1.521   4.276   4.113  0.7083 -0.4341 -0.2707
17672TIP3    H274432   1.386   4.207   4.107  0.7911 -0.6551  0.3451
17673TIP3   OH274433   4.212   5.710   4.587  0.0293 -0.2755 -0.3428
17673TIP3    H174434   4.143   5.714   4.521  0.1467  0.1977 -0.4402
17673TIP3    H274435   4.272   5.643   4.555  0.2324  0.1501 -0.8625
17674TIP3   OH274436   6.161   0.104   0.663  0.0138 -0.2778  0.3011
17674TIP3    H174437   6.128   0.042   0.599  0.7805 -1.5944  1.1397
17674TIP3    H274438   6.244   0.135   0.626 -0.1653 -0.0654  0.0762
17675TIP3   OH274439   0.724   0.872  12.195 -0.1147 -0.2295 -0.2086
17675TIP3    H174440   0.663   0.885  12.268 -0.0806  0.3410 -0.2803
17675TIP3    H274441   0.742   0.960  12.162  1.0241 -0.3443  0.0357
17676TIP3   OH274442   5.156   2.988   3.873  0.2310 -0.5523 -0.1262
17676TIP3    H174443   5.104   2.971   3.951  0.1633 -1.9857 -0.4521
17676TIP3    H274444   5.241   2.949   3.892  0.3227 -0.6086 -0.6317
17677TIP3   OH274445   2.304   4.326  15.407 -0.1216 -0.2727  0.2842
17677TIP3    H174446   2.259   4.405  15.375 -0.0284 -1.2693 -2.6032
17677TIP3    H274447   2.363   4.302  15.336  3.5757 -0.2218  3.0667
17678TIP3   OH274448   6.458   6.072   3.301 -0.2413 -0.5297 -0.2120
17678TIP3    H174449   6.521   6.107   3.365  0.5595 -1.2695 -0.5809
17678TIP3    H274450   6.497   6.093   3.216 -1.0335 -0.0420 -0.4677
17679TIP3   OH274451   2.635   0.058   1.090  0.0074 -0.1100  0.5699
17679TIP3    H174452   2.612  -0.015   1.033 -0.3846  0.0428  0.5238
17679TIP3    H274453   2.614   0.136   1.038 -4.5872  0.1685  2.3719
17680TIP3   OH274454   0.755   5.829   5.317 -0.8077 -0.7199 -0.1234
17680TIP3    H174455   0.729   5.921   5.327 -0.8746 -0.7066 -0.4047
17680TIP3    H274456   0.781   5.802   5.405  0.0123 -0.1950 -0.1965
17681TIP3   OH274457   0.862   4.141  14.509  0.5898  0.4586 -0.0062
17681TIP3    H174458   0.878   4.187  14.591 -1.8763  1.1229  0.1943
17681TIP3    H274459   0.870   4.049  14.531 -0.6629  0.5961  1.1823
17682TIP3   OH274460   3.676   5.076  17.205 -0.2795  0.0562 -0.1986
17682TIP3    H174461   3.677   5.149  17.143 -1.0091  0.2723  0.0297
17682TIP3    H274462   3.764   5.075  17.243  0.2117 -0.1381 -1.2898
17683TIP3   OH274463   5.659   3.325   1.261 -0.4507 -0.1657 -0.0561
17683TIP3    H174464   5.632   3.327   1.353  0.0337 -0.2040  0.0913
17683TIP3    H274465   5.580   3.301   1.213 -0.7628  0.0740  0.3297
17684TIP3   OH274466   0.817   2.575  13.317 -0.1440  0.1610  0.3165
17684TIP3    H174467   0.788   2.635  13.249 -1.5761 -0.2846  0.4858
17684TIP3    H274468   0.861   2.504  13.270 -0.3961  0.2629 -0.0726
17685TIP3   OH274469   3.363   0.555  11.819 -0.8354 -0.5647 -0.7825
17685TIP3    H174470   3.370   0.498  11.742  0.2185 -0.9528 -0.4174
17685TIP3    H274471   3.454   0.572  11.844 -1.1461 -1.4993  1.1468
17686TIP3   OH274472   0.785   0.376  13.821 -0.4544 -0.5538  0.2650
17686TIP3    H174473   0.823   0.289  13.834  0.8146  0.2194  2.1265
17686TIP3    H274474   0.772   0.410  13.909  0.6368  1.7849 -0.3962
17687TIP3   OH274475   4.661   5.255   2.006 -0.6272  0.7095 -0.2093
17687TIP3    H174476   4.725   5.229   2.073 -1.6497  0.5124  0.7153
17687TIP3    H274477   4.662   5.184   1.942  1.0204  1.3154 -0.9290
17688TIP3   OH274478   4.642   1.842  16.557  0.5097 -0.2216  0.3664
17688TIP3    H174479   4.552   1.813  16.539  0.1689  0.9082  0.1332
17688TIP3    H274480   4.661   1.903  16.485  1.3272 -0.1632  0.6291
17689TIP3   OH274481   1.510   4.035  14.780  0.7002 -0.2635 -1.0211
17689TIP3    H174482   1.587   4.013  14.728  0.8370  0.4036 -1.1052
17689TIP3    H274483   1.458   4.093  14.724  0.2335 -0.5432 -0.8875
17690TIP3   OH274484   0.447   1.185   3.591  0.1325  0.7584  0.0568
17690TIP3    H174485   0.402   1.120   3.537  3.6484 -0.7203 -1.3564
17690TIP3    H274486   0.467   1.257   3.531  1.6172  0.3505  0.0293
17691TIP3   OH274487   5.975   3.698   5.087 -0.8119 -0.1357  0.2655
17691TIP3    H174488   6.017   3.758   5.148 -0.0919 -0.5724  0.2144
17691TIP3    H274489   6.015   3.613   5.105 -0.5857 -0.2760 -0.8070
17692TIP3   OH274490   5.900   2.900   4.164  0.3184  0.1649  0.2385
17692TIP3    H174491   5.923   2.808   4.180 -1.5389 -0.5790 -1.0167
17692TIP3    H274492   5.940   2.920   4.079  0.4622  0.4346  0.3678
17693TIP3   OH274493   5.548   2.760  14.784 -0.0003  0.1077  0.5193
17693TIP3    H174494   5.597   2.715  14.852  1.2624 -1.5310 -1.3872
17693TIP3    H274495   5.510   2.690  14.731 -0.3651  1.3075 -0.8665
17694TIP3   OH274496   4.791   4.397  12.997  0.4374  0.5082 -0.2128
17694TIP3    H174497   4.841   4.429  13.072  0.4621 -0.0421  0.0107
17694TIP3    H274498   4.819   4.453  12.924  3.0303 -1.1211 -0.6079
17695TIP3   OH274499   1.452   3.590  14.531 -0.4649 -0.0569 -0.2563
17695TIP3    H174500   1.380   3.649  14.552  0.3653  0.4363  1.4229
17695TIP3    H274501   1.436   3.563  14.440 -2.0422  1.0264 -0.3391
17696TIP3   OH274502   6.533   5.403  17.196 -0.3697 -0.0357  0.1542
17696TIP3    H174503   6.568   5.468  17.134  0.9753  0.0366  0.9530
17696TIP3    H274504   6.606   5.384  17.255 -1.7223  0.1761  1.9716
17697TIP3   OH274505   0.147   3.749  16.034 -0.0246 -0.2822 -0.0027
17697TIP3    H174506   0.191   3.832  16.052  2.4733 -1.3303 -0.8215
17697TIP3    H274507   0.110   3.723  16.118  0.5634  0.8888  0.6430
17698TIP3   OH274508   4.724   5.671  17.155  0.2722  0.2231 -0.6630
17698TIP3    H174509   4.761   5.727  17.087  0.5006  1.1185  0.1846
17698TIP3    H274510   4.648   5.720  17.188 -0.3029 -0.5563 -0.7881
17699TIP3   OH274511   4.409   5.181   5.934  0.5904 -0.8172  0.2927
17699TIP3    H174512   4.492   5.185   5.980  0.1306 -1.5691  1.2327
17699TIP3    H274513   4.369   5.266   5.949  0.9956 -0.6115  0.2124
17700TIP3   OH274514   1.388   1.588   1.680  0.2503  0.3692 -0.2113
17700TIP3    H174515   1.367   1.523   1.613  0.5990  0.6135 -0.5582
17700TIP3    H274516   1.407   1.668   1.631 -1.4537  1.1051  0.2567
17701TIP3   OH274517   2.601   0.884   5.806  0.3318  0.0776  0.6262
17701TIP3    H174518   2.601   0.979   5.791 -0.4426 -0.0003  0.1300
17701TIP3    H274519   2.639   0.875   5.894 -1.3108  0.9850  1.4818
17702TIP3   OH274520   0.182   3.714   1.948  0.2480  0.2332 -0.1464
17702TIP3    H174521   0.154   3.626   1.922  1.4665 -0.5666  1.1388
17702TIP3    H274522   0.117   3.772   1.907 -0.9066 -1.2716 -0.5695
17703TIP3   OH274523   6.399   2.529   5.000  0.0162 -0.2234 -0.1405
17703TIP3    H174524   6.431   2.597   4.942  0.9618  0.0370  0.6597
17703TIP3    H274525   6.419   2.561   5.088 -0.7929 -0.8998  0.3080
17704TIP3   OH274526   0.794   6.126   0.961 -0.5712  0.2595  0.1880
17704TIP3    H174527   0.749   6.185   1.022 -1.0315 -0.4249  0.5209
17704TIP3    H274528   0.735   6.051   0.953  0.6731 -0.8504  0.9499
17705TIP3   OH274529   6.533   6.607   5.995  0.0814 -0.5925 -0.2444
17705TIP3    H174530   6.555   6.699   5.983 -1.9395 -0.3137 -2.7025
17705TIP3    H274531   6.496   6.602   6.083 -2.6428  1.6605 -1.1132
17706TIP3   OH274532   0.029   4.303  13.032  0.1392 -0.1023  0.8824
17706TIP3    H174533  -0.014   4.268  13.109  0.6015  1.2433  1.7901
17706TIP3    H274534  -0.027   4.376  13.005  1.8711  1.8214  2.2180
17707TIP3   OH274535   1.705   2.791   5.722 -0.1465 -0.2530 -0.0996
17707TIP3    H174536   1.646   2.851   5.767 -1.1554 -1.2139 -0.0961
17707TIP3    H274537   1.779   2.782   5.782  0.6872  2.0091 -0.7050
17708TIP3   OH274538   1.423   0.789  16.509  0.1402  0.1274  0.3146
17708TIP3    H174539   1.431   0.883  16.492 -0.8726  0.1317 -0.1848
17708TIP3    H274540   1.353   0.782  16.574  1.1774 -0.1897  1.4254
17709TIP3   OH274541   6.460   3.412  17.019  0.2327 -0.2468 -0.9107
17709TIP3    H174542   6.438   3.490  17.069  1.7740 -0.5794  0.3535
17709TIP3    H274543   6.533   3.439  16.962 -0.0813 -0.4407 -1.4170
17710TIP3   OH274544   5.532   3.270  11.261  0.0245 -0.4183  0.3888
17710TIP3    H174545   5.543   3.265  11.356  0.2291  0.1908  0.4007
17710TIP3    H274546   5.597   3.334  11.233  0.6420 -1.3015 -0.2815
17711TIP3   OH274547   1.856   4.025   5.529  0.0371  0.0523 -0.2420
17711TIP3    H174548   1.844   4.037   5.623 -2.7548 -0.9189 -0.3744
17711TIP3    H274549   1.830   4.109   5.490  2.3280  0.8722 -0.1891
17712TIP3   OH274550   1.859   0.650   0.144  0.0900  0.1581  0.1213
17712TIP3    H174551   1.866   0.745   0.134  0.3119  0.1258 -0.0344
17712TIP3    H274552   1.805   0.638   0.223 -0.3138  0.4116 -0.1139
17713TIP3   OH274553   0.079   0.786   2.602  0.8192 -0.0297  0.4788
17713TIP3    H174554   0.009   0.742   2.650  0.2338  1.3628  0.9354
17713TIP3    H274555   0.034   0.846   2.542  1.5810 -0.6163 -0.7384
17714TIP3   OH274556   0.165   6.371   1.794 -0.4616  0.0826  0.1985
17714TIP3    H174557   0.230   6.351   1.861 -1.3795 -0.8893  0.8370
17714TIP3    H274558   0.185   6.311   1.722 -0.1502  0.3616  0.0507
17715TIP3   OH274559   0.456   0.657   1.073  0.0135  0.3895 -0.1673
17715TIP3    H174560   0.514   0.729   1.046  0.4982 -0.2046 -0.7341
17715TIP3    H274561   0.409   0.633   0.993  0.6199 -0.6148 -0.2439
17716TIP3   OH274562   6.414   1.081   5.673 -0.0659  0.3717 -0.0431
17716TIP3    H174563   6.505   1.056   5.689  0.4278  1.2860 -1.2566
17716TIP3    H274564   6.382   1.017   5.610 -0.8101 -0.9288  1.5818
17717TIP3   OH274565   5.064   5.301  16.278  0.3926  0.2741 -0.4528
17717TIP3    H174566   5.155   5.274  16.269  0.0580 -1.2614  0.2360
17717TIP3    H274567   5.049   5.303  16.373 -0.0854  1.2505 -0.5412
17718TIP3   OH274568   6.664   4.722  11.891  0.2040  0.1297 -0.5683
17718TIP3    H174569   6.623   4.694  11.973  1.6323 -1.6516 -0.4094
17718TIP3    H274570   6.703   4.807  11.912  1.6247 -0.8529  1.0318
17719TIP3   OH274571   2.829   1.977  13.918  0.5463 -0.4511  0.0347
17719TIP3    H174572   2.921   1.951  13.919  0.9870  0.9888  1.5801
17719TIP3    H274573   2.832   2.072  13.908 -0.7773 -0.3876  0.1057
17720TIP3   OH274574   3.658   0.285   4.919 -0.1510 -0.4195  0.1912
17720TIP3    H174575   3.604   0.230   4.862 -0.5886 -0.6587  0.8321
17720TIP3    H274576   3.637   0.256   5.008  1.7497 -1.1956  0.4249
17721TIP3   OH274577   4.067   0.561   4.926 -0.3865  0.4942  0.0650
17721TIP3    H174578   4.126   0.545   4.999 -0.7614 -1.6261 -0.0532
17721TIP3    H274579   3.994   0.610   4.964 -2.0700 -3.0681  1.9391
17722TIP3   OH274580   1.603   2.314   2.407  0.3953  0.1426  0.3134
17722TIP3    H174581   1.614   2.409   2.413 -2.7365  0.5131  2.0678
17722TIP3    H274582   1.569   2.287   2.492 -0.3857 -2.2997 -0.6600
17723TIP3   OH274583   2.702   1.818  14.616  0.7190 -0.3256  0.1395
17723TIP3    H174584   2.724   1.877  14.543  0.3724 -0.2323  0.1079
17723TIP3    H274585   2.607   1.826  14.625  0.5904 -1.2756 -0.2096
17724TIP3   OH274586   1.757   2.381   3.474 -0.1702  0.0369  0.2055
17724TIP3    H174587   1.733   2.471   3.452  0.7273  0.3093  0.3066
17724TIP3    H274588   1.821   2.356   3.407  0.1623 -0.2500  0.6232
17725TIP3   OH274589   1.177   0.093  16.206 -0.5697  0.0087 -0.3759
17725TIP3    H174590   1.161   0.054  16.292 -0.3121  0.7932  0.0375
17725TIP3    H274591   1.232   0.029  16.160 -0.9902 -0.5682 -0.0917
17726TIP3   OH274592   3.939   5.790  14.447 -0.2519 -0.1582 -0.7274
17726TIP3    H174593   3.988   5.757  14.372 -1.6965 -0.4960 -1.5577
17726TIP3    H274594   3.866   5.839  14.409  0.1300  1.4214  0.4851
17727TIP3   OH274595   2.768   3.120   3.405  0.8652 -0.6323 -0.5232
17727TIP3    H174596   2.808   3.041   3.442  2.3397 -0.6496 -2.0163
17727TIP3    H274597   2.822   3.192   3.437  1.3459 -0.5321 -1.5185
17728TIP3   OH274598   1.538   6.528  13.289  0.1812  0.1219 -0.7575
17728TIP3    H174599   1.550   6.475  13.368 -0.1469  0.4393 -0.4910
17728TIP3    H274600   1.503   6.467  13.224  2.0209 -0.5465 -1.1900
17729TIP3   OH274601   2.740   2.278   2.082  0.0046  0.3686  0.0974
17729TIP3    H174602   2.667   2.334   2.056  0.3559  0.8378  0.1117
17729TIP3    H274603   2.812   2.306   2.026  0.3167  0.2688  0.4476
17730TIP3   OH274604   6.353   3.215   2.490  0.1875  0.0202  0.3955
17730TIP3    H174605   6.404   3.164   2.553 -0.0192  0.1351  0.6571
17730TIP3    H274606   6.263   3.186   2.502  0.4065 -1.6432 -1.4476
17731TIP3   OH274607   1.554   6.090  16.816  1.3391 -0.3897 -0.8971
17731TIP3    H174608   1.572   6.072  16.908  0.8759 -1.6736 -1.0438
17731TIP3    H274609   1.468   6.052  16.800  1.1172  0.4129 -1.7005
17732TIP3   OH274610   4.067   2.136  13.729 -0.1971 -0.0394  0.4334
17732TIP3    H174611   4.138   2.200  13.725  0.0236 -0.2863 -3.7948
17732TIP3    H274612   4.112   2.051  13.727 -0.4938 -0.1958 -1.1169
17733TIP3   OH274613   4.332   6.784   3.555  0.6006  0.1436 -0.5766
17733TIP3    H174614   4.293   6.712   3.505 -0.6908  1.5672 -1.7273
17733TIP3    H274615   4.422   6.791   3.521  0.7172 -0.8552 -0.5054
17734TIP3   OH274616   2.171   3.822   1.821 -0.0151  0.1918  0.2279
17734TIP3    H174617   2.253   3.867   1.802 -0.8406  1.5005 -0.3622
17734TIP3    H274618   2.173   3.807   1.916  0.6418  0.7364  0.3059
17735TIP3   OH274619   0.291   2.331   5.557 -0.7056 -0.4473 -0.3346
17735TIP3    H174620   0.339   2.361   5.480 -0.3200 -0.4225 -0.0853
17735TIP3    H274621   0.199   2.345   5.534 -0.5427  0.9802 -0.2084
17736TIP3   OH274622   0.583   4.285   3.626 -0.4094  0.3152 -0.3340
17736TIP3    H174623   0.503   4.322   3.663 -0.0321 -0.0221  0.8468
17736TIP3    H274624   0.654   4.335   3.667  0.0829 -1.2836  0.8326
17737TIP3   OH274625   4.640   4.421  11.716 -0.1543  0.3183 -0.7739
17737TIP3    H174626   4.610   4.483  11.782  1.0360  1.2744 -1.0921
17737TIP3    H274627   4.729   4.450  11.694  0.5287 -1.6379 -0.7824
17738TIP3   OH274628   5.300   3.294  14.872  0.3206  0.1990 -0.7428
17738TIP3    H174629   5.284   3.348  14.949  0.2567  0.4220 -0.9085
17738TIP3    H274630   5.239   3.220  14.881 -1.4013  1.4196 -1.7284
17739TIP3   OH274631   3.270   1.363   4.606 -0.3047  1.1880  0.0950
17739TIP3    H174632   3.280   1.378   4.700  0.0513 -1.7372  0.6337
17739TIP3    H274633   3.359   1.344   4.576 -0.7629 -0.8840 -0.1294
17740TIP3   OH274634   2.741   4.076  16.625  0.3623  0.0336  0.2449
17740TIP3    H174635   2.827   4.114  16.643 -0.0922  0.7516  0.9321
17740TIP3    H274636   2.734   4.076  16.530  1.4452 -0.7724  0.1438
17741TIP3   OH274637   2.382   3.854  13.777 -0.1140 -0.4060  0.6205
17741TIP3    H174638   2.301   3.825  13.734  0.5028  0.7692 -1.4822
17741TIP3    H274639   2.369   3.948  13.791  1.5219  0.1841 -1.4036
17742TIP3   OH274640   0.404   5.791  13.253 -0.7216  0.3762 -0.7393
17742TIP3    H174641   0.351   5.834  13.186  0.1341  2.1560 -0.3234
17742TIP3    H274642   0.407   5.853  13.325  0.0259 -0.6703  0.1652
17743TIP3   OH274643   6.746   4.896   0.189  0.4469 -0.0164 -0.1700
17743TIP3    H174644   6.725   4.854   0.106  1.6009  0.6809 -0.8429
17743TIP3    H274645   6.666   4.942   0.214 -0.4502 -1.5900 -0.0285
17744TIP3   OH274646   4.130   3.941  11.672 -0.2926  0.0540  0.0166
17744TIP3    H174647   4.142   3.982  11.757 -1.6750  0.4653  0.0300
17744TIP3    H274648   4.056   3.987  11.633  0.7901  0.4185 -1.7565
17745TIP3   OH274649   4.105   4.684   3.806 -0.7107 -0.6529  0.0376
17745TIP3    H174650   4.074   4.612   3.862 -1.5206 -0.1331  0.2661
17745TIP3    H274651   4.200   4.681   3.815 -0.7377 -1.5894  0.1791
17746TIP3   OH274652   1.335   3.657   2.065  0.5278 -0.1293 -0.2104
17746TIP3    H174653   1.334   3.598   1.990  0.9527  0.2636 -0.5281
17746TIP3    H274654   1.243   3.671   2.086  0.4236 -0.7760 -0.2349
17747TIP3   OH274655   0.149   0.772  11.389 -0.0705 -0.0041 -0.3924
17747TIP3    H174656   0.055   0.763  11.406  0.3015  0.5537  2.5790
17747TIP3    H274657   0.181   0.681  11.382 -0.6979 -0.2219 -0.4564
17748TIP3   OH274658   5.547   1.698   3.819  0.2971  0.1939 -0.1322
17748TIP3    H174659   5.593   1.709   3.736  0.2084 -0.6131 -0.3046
17748TIP3    H274660   5.584   1.764   3.877  0.0530  1.0556 -0.9439
17749TIP3   OH274661   1.176   2.054  11.308  0.0322  0.2150  0.0538
17749TIP3    H174662   1.262   2.044  11.348 -0.7509 -3.6643  1.2158
17749TIP3    H274663   1.191   2.037  11.215  0.7214  1.3608 -0.0664
17750TIP3   OH274664   2.822   1.315  16.964 -0.2123 -0.8532 -0.2161
17750TIP3    H174665   2.761   1.389  16.956 -0.7261 -0.9546  2.1432
17750TIP3    H274666   2.909   1.356  16.957 -0.3917  0.4698  3.3071
17751TIP3   OH274667   5.336   0.418   6.006  0.1805  0.7006  0.4333
17751TIP3    H174668   5.413   0.394   6.057  0.1713  1.3628  0.7599
17751TIP3    H274669   5.353   0.381   5.919  1.0565  1.1929  0.3870
17752TIP3   OH274670   4.838   2.766   0.168  0.1416 -0.5447  0.1535
17752TIP3    H174671   4.767   2.716   0.208 -0.4394 -0.0241 -0.1949
17752TIP3    H274672   4.802   2.855   0.158  0.7331 -0.3484 -0.3028
17753TIP3   OH274673   5.077   6.610   6.429 -0.0393 -0.4843  0.3250
17753TIP3    H174674   5.153   6.551   6.438 -0.0047 -0.5839 -0.5117
17753TIP3    H274675   5.115   6.698   6.437  0.2882 -0.5099 -0.7999
17754TIP3   OH274676   6.446   2.584  15.310 -0.0200 -0.4282 -0.1721
17754TIP3    H174677   6.497   2.647  15.362  1.3133 -2.0693  0.5791
17754TIP3    H274678   6.373   2.560  15.367  0.4748 -0.9143  0.2633
17755TIP3   OH274679   0.081   1.428  12.166 -0.0037 -1.1229  0.4157
17755TIP3    H174680   0.018   1.378  12.217 -0.7061  1.3597  2.1649
17755TIP3    H274681   0.076   1.389  12.078 -3.2371 -1.6911  0.7141
17756TIP3   OH274682   4.014   2.973   3.869 -0.1889  0.0858 -0.0270
17756TIP3    H174683   4.070   2.952   3.944  0.4243 -0.3450 -0.5955
17756TIP3    H274684   4.042   3.060   3.842  0.7133 -0.4078 -0.7432
17757TIP3   OH274685   0.373   1.305   4.489  0.2384 -0.1872  0.2925
17757TIP3    H174686   0.375   1.258   4.573  0.7736 -1.5800 -0.4728
17757TIP3    H274687   0.460   1.346   4.484  0.7075 -1.2093 -0.1723
17758TIP3   OH274688   4.496   1.519   2.596 -0.1044 -0.9734  0.0880
17758TIP3    H174689   4.475   1.571   2.519  0.9236 -4.1223 -2.5178
17758TIP3    H274690   4.590   1.530   2.608  0.0763 -2.0373 -0.3362
17759TIP3   OH274691   2.030   2.269   0.557 -0.2638  0.1682  0.5402
17759TIP3    H174692   1.964   2.296   0.493  0.8838  0.5830 -0.5098
17759TIP3    H274693   2.036   2.174   0.546  0.6491  0.3490 -0.7251
17760TIP3   OH274694   3.289   3.357   3.874  0.5463  0.2485  0.2580
17760TIP3    H174695   3.242   3.284   3.914  0.4312  0.4872  0.5598
17760TIP3    H274696   3.322   3.408   3.948  2.2865 -0.5398  0.0797
17761TIP3   OH274697   2.560   4.994  15.108  0.6129 -0.2033 -0.3835
17761TIP3    H174698   2.564   5.004  15.204 -0.4082  1.4169 -0.4715
17761TIP3    H274699   2.466   4.988  15.089  0.8185 -0.6747 -1.2766
17762TIP3   OH274700   6.768   2.222   6.120 -0.0859 -0.4412  0.4396
17762TIP3    H174701   6.680   2.249   6.143  0.8947  2.4900  1.2194
17762TIP3    H274702   6.812   2.206   6.204  0.5568 -0.2994  0.1425
17763TIP3   OH274703   5.473   4.597  10.840 -0.5743 -0.0384  0.3289
17763TIP3    H174704   5.560   4.573  10.872 -0.1105  1.2023  0.0562
17763TIP3    H274705   5.484   4.686  10.806 -2.1835  0.5390  1.2343
17764TIP3   OH274706   0.043   1.012   2.421 -0.2299 -0.1839 -0.4061
17764TIP3    H174707  -0.006   1.056   2.491 -0.2510 -0.7815 -0.0424
17764TIP3    H274708   0.134   1.034   2.439 -0.2608 -0.0861 -0.3658
17765TIP3   OH274709   3.136   2.964   5.922 -0.2404 -0.0056 -0.7678
17765TIP3    H174710   3.207   2.941   5.862  0.2432 -0.1253 -0.1560
17765TIP3    H274711   3.106   2.880   5.956 -0.0464  0.1090 -0.3137
17766TIP3   OH274712   1.940   6.720  13.414  0.2317  0.1223 -0.2043
17766TIP3    H174713   1.907   6.645  13.364 -0.9743  0.2979  0.2860
17766TIP3    H274714   1.871   6.786  13.406 -0.2160  0.0067  1.9951
17767TIP3   OH274715   3.583   6.687  16.188  0.3881 -0.0451  0.3982
17767TIP3    H174716   3.508   6.703  16.131 -0.5554 -0.6444  1.4441
17767TIP3    H274717   3.649   6.750  16.158 -0.5398  0.5412 -0.4968
17768TIP3   OH274718   0.580   2.039  15.155  0.1168  0.2396  0.3174
17768TIP3    H174719   0.487   2.055  15.170 -0.2256 -0.3170 -1.1235
17768TIP3    H274720   0.622   2.123  15.178 -0.9268  1.0707 -0.6854
17769TIP3   OH274721   1.576   6.638  14.279  0.3143  0.0575  0.0186
17769TIP3    H174722   1.500   6.644  14.337  0.5899 -2.2192  0.7301
17769TIP3    H274723   1.647   6.677  14.329  0.5217 -1.7786  1.2735
17770TIP3   OH274724   6.436   0.425  14.917  0.3105 -0.1131 -0.1737
17770TIP3    H174725   6.389   0.342  14.927  0.5728 -0.4670 -1.6687
17770TIP3    H274726   6.385   0.474  14.852 -0.9255  1.7455  2.0523
17771TIP3   OH274727   1.602   3.804  13.174  0.3429 -0.3595 -0.3611
17771TIP3    H174728   1.530   3.853  13.133  0.4876 -0.4561 -0.7341
17771TIP3    H274729   1.678   3.823  13.118  1.1506  1.5488  1.2561
17772TIP3   OH274730   3.934   1.215   1.444  0.8660 -0.3067 -0.5365
17772TIP3    H174731   4.000   1.182   1.383 -0.6984  0.4481 -2.7754
17772TIP3    H274732   3.854   1.222   1.392 -0.6338  0.2090  1.6842
17773TIP3   OH274733   2.399   5.368  14.510  0.0155  0.2297 -0.7923
17773TIP3    H174734   2.319   5.419  14.494 -0.4182 -0.3482 -0.4972
17773TIP3    H274735   2.434   5.404  14.592 -1.7003 -1.6348  0.8572
17774TIP3   OH274736   0.039   6.313  14.820 -0.6576  0.1411  0.6374
17774TIP3    H174737   0.033   6.283  14.911  1.5484  1.7234  1.3983
17774TIP3    H274738   0.078   6.240  14.773  0.6648  0.2188  1.5582
17775TIP3   OH274739   3.134   1.213  15.890  0.3656  0.0066 -0.0226
17775TIP3    H174740   3.163   1.267  15.816  1.6492 -1.1752 -0.4239
17775TIP3    H274741   3.045   1.187  15.866  0.5900  0.0341 -0.9501
17776TIP3   OH274742   4.431   0.387   0.446  0.2463  0.0915 -0.0239
17776TIP3    H174743   4.473   0.330   0.511 -0.5038 -0.7253 -0.2346
17776TIP3    H274744   4.358   0.427   0.493  0.5204  0.5686  0.0054
17777TIP3   OH274745   2.380   0.717   4.238 -0.1019  0.5148  0.5052
17777TIP3    H174746   2.437   0.793   4.230  0.4902  0.2130  1.6942
17777TIP3    H274747   2.430   0.646   4.197 -1.1826  0.9708 -1.7853
17778TIP3   OH274748   0.987   3.969   2.874  0.8833 -0.1056 -0.8513
17778TIP3    H174749   0.967   3.889   2.922  0.9276  0.6311  0.4529
17778TIP3    H274750   0.965   3.949   2.783 -3.1694 -0.3110 -0.0201
17779TIP3   OH274751   1.664   1.541  15.706 -0.4925  0.5582 -0.0777
17779TIP3    H174752   1.646   1.557  15.799 -1.1817  0.3694 -0.1743
17779TIP3    H274753   1.580   1.512  15.670 -0.2733  0.8122 -0.8044
17780TIP3   OH274754   3.213   1.277   5.888  0.4833  0.3969 -0.0220
17780TIP3    H174755   3.287   1.306   5.835 -1.0428  1.7812 -1.5123
17780TIP3    H274756   3.252   1.248   5.971  2.6388  1.2914 -0.6703
17781TIP3   OH274757   3.473   1.192   4.087 -0.0167  0.2395 -0.5620
17781TIP3    H174758   3.494   1.215   3.996 -0.9912  1.2954 -0.5436
17781TIP3    H274759   3.509   1.104   4.098  0.8901  0.4376 -1.6995
17782TIP3   OH274760   6.529   5.064  15.972 -0.4613  0.0021 -0.6960
17782TIP3    H174761   6.520   5.158  15.954  1.7751  0.7813  1.5608
17782TIP3    H274762   6.453   5.043  16.026 -1.6677  0.1451 -2.2741
17783TIP3   OH274763   3.673   4.044   5.219 -0.3522  0.0683 -0.0729
17783TIP3    H174764   3.705   3.983   5.152 -0.1803 -0.8812  0.8503
17783TIP3    H274765   3.582   4.020   5.232 -0.1498 -0.3461  0.6521
17784TIP3   OH274766   0.194   0.338   2.763 -1.1588 -0.2145 -0.0818
17784TIP3    H174767   0.154   0.263   2.718 -1.8127 -0.2183  0.4907
17784TIP3    H274768   0.138   0.353   2.839  1.0846 -1.6027  2.0169
17785TIP3   OH274769   3.538   0.515   2.235 -0.6767  0.0185 -0.2640
17785TIP3    H174770   3.609   0.556   2.285 -0.4800  0.1957 -0.6797
17785TIP3    H274771   3.539   0.561   2.151  0.4799 -1.7527 -1.2847
17786TIP3   OH274772   3.560   5.062  14.790  0.2897  0.3027  0.5297
17786TIP3    H174773   3.564   5.137  14.850  1.5970  0.9994 -0.3694
17786TIP3    H274774   3.652   5.042  14.771 -0.0504 -1.3244  0.4680
17787TIP3   OH274775   5.984   5.714  13.514  0.1484  0.2339 -0.5596
17787TIP3    H174776   5.903   5.669  13.489  0.1751 -0.4641  0.5539
17787TIP3    H274777   5.958   5.805  13.528 -0.1221  0.3532 -1.7696
17788TIP3   OH274778   3.779   5.695  16.152  0.1553  0.1756 -0.4229
17788TIP3    H174779   3.786   5.729  16.063 -1.2187  1.0074 -0.2430
17788TIP3    H274780   3.851   5.738  16.199  0.5935  0.0954 -1.0024
17789TIP3   OH274781   4.151   1.865  11.547  0.1913  0.3961  0.3928
17789TIP3    H174782   4.096   1.923  11.493  1.0256  1.0241  0.1894
17789TIP3    H274783   4.130   1.890  11.637  0.0955  0.5928  0.3182
17790TIP3   OH274784   3.430   3.282   0.306  0.1813  0.6207 -0.2245
17790TIP3    H174785   3.359   3.262   0.246  2.2783  0.5363 -2.8926
17790TIP3    H274786   3.462   3.196   0.335 -1.0700  0.6692  1.3970
17791TIP3   OH274787   2.638   0.497  13.631 -0.0887 -0.2584  0.0425
17791TIP3    H174788   2.654   0.527  13.721  0.7867  0.8957 -0.4744
17791TIP3    H274789   2.699   0.424  13.619  1.1455  0.7966 -0.2146
17792TIP3   OH274790   5.217   1.078   1.931 -0.6425  0.3956 -0.0579
17792TIP3    H174791   5.215   1.093   2.025 -0.4051  0.4389 -0.0586
17792TIP3    H274792   5.307   1.051   1.913 -1.0950 -1.2396 -0.0299
17793TIP3   OH274793   4.831   5.640   3.547 -0.4480 -0.2381  0.2299
17793TIP3    H174794   4.820   5.568   3.485  0.6954  0.3611 -0.6982
17793TIP3    H274795   4.741   5.666   3.567 -0.8803 -1.6967  0.3404
17794TIP3   OH274796   0.364   3.392  13.498  0.1059 -0.1959  0.1643
17794TIP3    H174797   0.412   3.321  13.455  0.5371  0.2438 -0.0972
17794TIP3    H274798   0.282   3.352  13.527 -0.9903 -0.1516 -2.5419
17795TIP3   OH274799   1.310   0.831   5.455  0.3392 -0.1343  0.3587
17795TIP3    H174800   1.391   0.875   5.478  0.8016 -1.0128  0.4427
17795TIP3    H274801   1.241   0.885   5.494  0.6416  2.2437 -2.1055
17796TIP3   OH274802   5.234   2.341   1.252 -0.1999 -0.4039 -0.3209
17796TIP3    H174803   5.289   2.311   1.324 -0.5937 -0.6289 -0.1076
17796TIP3    H274804   5.275   2.421   1.221  0.0349 -0.3691  0.0820
17797TIP3   OH274805   6.676   3.789  12.616 -0.6361  0.4065  0.0674
17797TIP3    H174806   6.613   3.717  12.613  0.1531 -0.2833 -1.2225
17797TIP3    H274807   6.761   3.747  12.600 -0.3052  1.7630 -2.2151
17798TIP3   OH274808   3.390   0.527   3.523  0.2813 -0.3184 -0.1032
17798TIP3    H174809   3.446   0.536   3.446  0.1620  0.1652 -0.1335
17798TIP3    H274810   3.409   0.439   3.556 -1.0714 -1.3018 -1.7925
17799TIP3   OH274811   3.069   4.979  15.739 -0.3859  0.2701 -0.7631
17799TIP3    H174812   3.060   5.066  15.779  1.5567 -1.0374  3.0824
17799TIP3    H274813   3.145   4.988  15.681 -1.2412  1.4919 -1.7406
17800TIP3   OH274814   2.223   6.132  11.939 -0.1403  0.4047  0.3363
17800TIP3    H174815   2.127   6.141  11.940 -0.2754 -0.7888  0.7943
17800TIP3    H274816   2.241   6.083  11.859 -0.1419 -1.1513  1.2387
17801TIP3   OH274817   6.357   1.137  11.802 -0.2747 -0.1008 -0.2706
17801TIP3    H174818   6.336   1.197  11.730  2.6507  1.1019 -0.2345
17801TIP3    H274819   6.318   1.178  11.879  2.1277  2.2382 -0.1381
17802TIP3   OH274820   2.954   2.117   3.016 -0.1916  0.6583  0.1213
17802TIP3    H174821   3.013   2.042   3.028 -0.2610  0.8192  1.7323
17802TIP3    H274822   2.875   2.093   3.064 -0.7809  1.1570 -0.5879
17803TIP3   OH274823   4.195   3.775   3.409  0.6611  0.5940  0.2101
17803TIP3    H174824   4.191   3.682   3.386  1.7776  0.1837  1.4958
17803TIP3    H274825   4.104   3.801   3.423  0.3853 -0.5693  0.7366
17804TIP3   OH274826   2.413   1.642  15.433  0.1351 -0.2312 -0.3894
17804TIP3    H174827   2.452   1.610  15.351  1.3909  0.0645  0.0761
17804TIP3    H274828   2.321   1.658  15.410  0.0877 -1.6478 -1.3196
17805TIP3   OH274829   0.144   1.893  12.923 -1.1743 -0.2219  0.1621
17805TIP3    H174830   0.094   1.814  12.903 -2.1403  0.4566 -0.1832
17805TIP3    H274831   0.115   1.917  13.012  0.5561 -1.3063  1.0792
17806TIP3   OH274832   1.897   3.428  17.105 -0.5302  0.0911 -0.3376
17806TIP3    H174833   1.819   3.401  17.154 -1.0115  1.2995 -0.3994
17806TIP3    H274834   1.928   3.347  17.064 -2.5049 -0.2297 -1.3741
17807TIP3   OH274835   3.043   4.844  11.431  0.3256 -0.1275 -0.2783
17807TIP3    H174836   2.993   4.772  11.393 -0.8319 -0.0552  1.0091
17807TIP3    H274837   3.125   4.804  11.459  0.1092 -0.7322 -0.4817
17808TIP3   OH274838   3.012   0.287  14.376  0.3840  0.0251  0.2381
17808TIP3    H174839   3.079   0.349  14.402  1.1647 -0.6593 -0.1110
17808TIP3    H274840   2.929   0.329  14.401  0.9911  0.2784  1.9411
17809TIP3   OH274841   5.227   2.444   2.853  0.3931 -0.3613 -0.3691
17809TIP3    H174842   5.225   2.535   2.823  0.5717  0.4466  1.8822
17809TIP3    H274843   5.140   2.410   2.831  0.2786  0.3691 -1.1164
17810TIP3   OH274844   0.733   2.280  14.400 -0.4373 -0.0637 -0.2497
17810TIP3    H174845   0.693   2.201  14.363  0.6834 -1.0845  0.6139
17810TIP3    H274846   0.796   2.246  14.464  1.4056  1.4699 -1.1717
17811TIP3   OH274847   2.488   6.194  14.055  0.1171  0.2370 -0.5851
17811TIP3    H174848   2.546   6.249  14.107  1.5447 -0.3671 -1.4857
17811TIP3    H274849   2.403   6.238  14.059  0.7982  1.5274  0.1780
17812TIP3   OH274850   4.560   4.959  12.840 -0.4077 -0.1774  0.1397
17812TIP3    H174851   4.518   5.019  12.779 -1.3413 -0.7791  0.1692
17812TIP3    H274852   4.509   4.878  12.834  0.8741 -1.0084  0.0379
17813TIP3   OH274853   5.345   4.121   6.819  0.0870  0.1033  0.1403
17813TIP3    H174854   5.412   4.057   6.841  0.1833  0.5480  1.2101
17813TIP3    H274855   5.264   4.084   6.855  0.1059  0.4782  0.5722
17814TIP3   OH274856   6.278   0.522  13.688 -0.8243 -0.1054 -0.4710
17814TIP3    H174857   6.272   0.452  13.754 -1.9417  0.2150 -0.2079
17814TIP3    H274858   6.346   0.492  13.627 -1.0166 -1.2451 -0.1474
17815TIP3   OH274859   6.166   5.991   5.790  0.5059  0.5223 -0.7319
17815TIP3    H174860   6.222   6.068   5.775  2.5844 -0.9361 -0.9512
17815TIP3    H274861   6.200   5.925   5.730 -0.7007 -0.8208  0.0089
17816TIP3   OH274862   2.913   0.113   3.539  0.0938  0.4614  0.1383
17816TIP3    H174863   2.840   0.055   3.562  0.4474 -0.1020 -0.1502
17816TIP3    H274864   2.949   0.075   3.459  1.4379  0.0480  0.9144
17817TIP3   OH274865   3.523   3.771   0.832 -0.3231 -0.6331 -0.5208
17817TIP3    H174866   3.511   3.830   0.757  0.2231  0.0190 -0.1033
17817TIP3    H274867   3.456   3.703   0.820 -0.5968 -0.2354 -1.3048
17818TIP3   OH274868   0.209   0.548  15.402 -0.6181 -0.1535  0.5680
17818TIP3    H174869   0.114   0.553  15.411 -0.8244  0.0004 -1.2854
17818TIP3    H274870   0.241   0.621  15.455 -1.4312 -0.8741  2.1240
17819TIP3   OH274871   2.739   4.807  15.051 -0.4664 -0.1231  0.4636
17819TIP3    H174872   2.758   4.793  15.144  1.9700  2.4617  0.4881
17819TIP3    H274873   2.687   4.888  15.049  1.5498  1.2444 -0.4305
17820TIP3   OH274874   5.621   0.229  15.937 -0.6421 -0.7416 -0.1686
17820TIP3    H174875   5.647   0.137  15.931 -0.2988 -0.6621  0.0862
17820TIP3    H274876   5.544   0.228  15.992 -0.2679 -0.8094  0.3610
17821TIP3   OH274877   4.395   1.697   0.309 -0.3180 -0.0235  0.1049
17821TIP3    H174878   4.358   1.613   0.282 -0.4108  0.2146 -0.5252
17821TIP3    H274879   4.484   1.676   0.337 -1.1303 -0.7458  2.4501
17822TIP3   OH274880   3.433   3.826   4.187 -0.0321  0.9228 -0.2506
17822TIP3    H174881   3.478   3.870   4.260 -3.1870  1.1947  1.7722
17822TIP3    H274882   3.490   3.838   4.112  2.7021  2.0336  1.8413
17823TIP3   OH274883   3.841   3.354  15.335 -0.2170  0.4097  0.1320
17823TIP3    H174884   3.920   3.395  15.369  0.0100 -1.7743  2.5800
17823TIP3    H274885   3.770   3.411  15.365  0.2182  0.2327  1.6144
17824TIP3   OH274886   5.396   4.608  13.028  0.0065  0.6692  0.1499
17824TIP3    H174887   5.487   4.607  13.057  0.3343  0.9478 -0.8020
17824TIP3    H274888   5.356   4.679  13.078 -0.2345 -0.7155  2.0381
17825TIP3   OH274889   1.356   1.029   4.201 -0.1925  0.4729 -0.0646
17825TIP3    H174890   1.362   1.069   4.115  2.4104  0.3658  0.0062
17825TIP3    H274891   1.441   0.988   4.216 -1.5292 -2.0886  1.3535
17826TIP3   OH274892   5.132   0.415  11.221 -0.3383 -0.0205  0.1079
17826TIP3    H174893   5.124   0.508  11.200 -2.4050 -0.0501  0.5474
17826TIP3    H274894   5.137   0.372  11.136  3.4191  0.5946 -0.1259
17827TIP3   OH274895   4.006   5.250  12.004  0.5476  0.6033  0.4692
17827TIP3    H174896   3.966   5.249  11.917  2.2101  0.9168 -0.3369
17827TIP3    H274897   3.957   5.318  12.051  1.8860  3.0117 -1.3949
17828TIP3   OH274898   3.971   4.467   3.509  0.1822  0.1794 -0.5413
17828TIP3    H174899   4.060   4.459   3.474  0.0267 -0.0554 -0.8796
17828TIP3    H274900   3.976   4.429   3.597  1.0070  2.3514  0.4465
17829TIP3   OH274901   5.863   1.352   3.819 -0.1595 -0.3375  0.2324
17829TIP3    H174902   5.878   1.385   3.907 -1.6038 -1.8415  1.0985
17829TIP3    H274903   5.924   1.279   3.809 -0.2886 -0.4363  0.1514
17830TIP3   OH274904   3.897   2.926  16.457  0.2719 -0.1691 -0.2505
17830TIP3    H174905   3.918   3.000  16.515  0.7999 -0.8775  0.4933
17830TIP3    H274906   3.839   2.870  16.509 -0.7185  0.0682 -1.0703
17831TIP3   OH274907   0.233   6.525  13.371  0.0543 -0.0018  0.0861
17831TIP3    H174908   0.326   6.528  13.348 -0.1759 -1.1651 -1.1310
17831TIP3    H274909   0.195   6.463  13.309 -1.4918  0.2329  0.7497
17832TIP3   OH274910   1.202   3.906  15.573 -0.1575  0.3087 -0.3417
17832TIP3    H174911   1.265   3.929  15.641 -0.2726 -0.7127  0.1314
17832TIP3    H274912   1.159   3.827  15.606 -0.6925  0.1877 -1.2935
17833TIP3   OH274913   5.068   2.537  16.048  0.4046 -0.2555 -0.0228
17833TIP3    H174914   5.163   2.528  16.041  0.6443  2.2192 -1.0806
17833TIP3    H274915   5.055   2.591  16.126 -0.0529  0.1385 -0.3617
17834TIP3   OH274916   5.064   2.368   5.286  0.3754  0.7950  0.2143
17834TIP3    H174917   5.066   2.432   5.214  0.1997  1.5478  0.8609
17834TIP3    H274918   5.149   2.378   5.329 -0.2830  1.8404  1.3526
17835TIP3   OH274919   4.889   2.363  15.662  0.0434  0.0673 -0.4222
17835TIP3    H174920   4.965   2.392  15.612 -0.1905  0.8974 -0.3146
17835TIP3    H274921   4.921   2.353  15.751 -0.3432  2.1531 -0.0024
17836TIP3   OH274922   0.892   3.353  12.184 -0.2495 -0.4963 -0.5548
17836TIP3    H174923   0.830   3.391  12.121 -0.4978 -0.5648 -0.3577
17836TIP3    H274924   0.977   3.386  12.157 -0.6549  2.0500  0.8996
17837TIP3   OH274925   0.788   5.615  14.979 -0.0783 -0.6178 -0.2152
17837TIP3    H174926   0.734   5.646  15.052 -1.2313 -0.8741 -0.9200
17837TIP3    H274927   0.875   5.602  15.017 -0.5154 -0.2405  0.9781
17838TIP3   OH274928   4.648   0.740  13.154 -0.7708  0.4995  0.1195
17838TIP3    H174929   4.668   0.657  13.110  0.0058  0.1416  1.1241
17838TIP3    H274930   4.564   0.767  13.117 -0.6095 -0.2856 -0.8641
17839TIP3   OH274931   0.359   5.044  16.219  0.5915  0.2371 -0.5237
17839TIP3    H174932   0.384   5.070  16.131 -0.1387  2.0104 -0.2485
17839TIP3    H274933   0.324   5.123  16.259 -0.6619 -0.9156  0.8018
17840TIP3   OH274934   5.459   4.443   4.468 -0.0372  0.2744  0.4545
17840TIP3    H174935   5.523   4.373   4.483  0.5069  0.0735 -2.3659
17840TIP3    H274936   5.502   4.521   4.504  3.1287  0.6591 -3.4042
17841TIP3   OH274937   1.657   6.232   1.614 -0.4975 -0.0641 -0.6787
17841TIP3    H174938   1.662   6.137   1.628  1.8149  0.1788  0.5538
17841TIP3    H274939   1.738   6.266   1.650 -0.8493  2.3227 -1.9522
17842TIP3   OH274940   4.601   1.643  15.655  0.0167  0.1065  0.4467
17842TIP3    H174941   4.625   1.621  15.745  0.1332 -0.4928  0.2731
17842TIP3    H274942   4.507   1.629  15.651  0.1986 -1.1105  0.1365
17843TIP3   OH274943   0.638   4.711  15.795 -0.2135  0.4269 -0.2806
17843TIP3    H174944   0.640   4.692  15.889  1.5631  0.2697 -0.3150
17843TIP3    H274945   0.634   4.807  15.790 -0.7128  0.4202 -0.0550
17844TIP3   OH274946   0.447   4.102   0.821 -0.3691 -0.0978  0.0693
17844TIP3    H174947   0.456   4.161   0.896 -1.9920  1.1088 -0.6143
17844TIP3    H274948   0.357   4.070   0.827 -0.0365 -1.1893 -0.5371
17845TIP3   OH274949   5.258   4.354   2.855 -0.2435 -0.0394  0.4283
17845TIP3    H174950   5.315   4.278   2.851  1.0004  0.8450  0.8679
17845TIP3    H274951   5.298   4.412   2.920 -1.1890  0.9779  0.1489
17846TIP3   OH274952   0.409   3.216  16.265 -0.4283 -0.3312  0.3266
17846TIP3    H174953   0.504   3.202  16.261 -0.1731  1.2463  0.0512
17846TIP3    H274954   0.377   3.186  16.180  0.1695  1.2191 -0.4862
17847TIP3   OH274955   1.562   2.941  14.597  0.3858 -0.0159  0.2369
17847TIP3    H174956   1.567   2.999  14.673  0.3519 -0.2015  0.3825
17847TIP3    H274957   1.482   2.967  14.551 -0.2834 -0.7398  0.9563
17848TIP3   OH274958   1.105   0.890   2.257 -0.0256 -0.3060  0.7324
17848TIP3    H174959   1.030   0.830   2.246 -2.3084  2.7333 -2.3493
17848TIP3    H274960   1.097   0.921   2.347 -1.1211 -1.7213  1.1652
17849TIP3   OH274961   5.075   5.894   2.359  0.0686  0.3931 -0.6149
17849TIP3    H174962   5.036   5.820   2.311  0.2751  0.5025 -0.9515
17849TIP3    H274963   5.019   5.904   2.436 -0.7379  0.7211 -1.2309
17850TIP3   OH274964   5.408   0.918   5.738  0.6601 -0.4482 -0.1859
17850TIP3    H174965   5.353   0.840   5.753  1.7299 -1.4471 -1.2696
17850TIP3    H274966   5.434   0.946   5.826 -1.6943  0.1903  0.3972
17851TIP3   OH274967   5.424   3.730  17.076  0.7061  0.0756  0.5234
17851TIP3    H174968   5.477   3.727  16.997 -0.6719 -0.5634 -0.4031
17851TIP3    H274969   5.418   3.824  17.097  0.8133  0.2702 -0.3050
17852TIP3   OH274970   3.486   6.757  13.678  0.2669  0.3232  0.0750
17852TIP3    H174971   3.412   6.809  13.648 -0.8321  0.4515  2.7734
17852TIP3    H274972   3.461   6.666  13.660 -0.7242  0.3455  1.2552
17853TIP3   OH274973   2.273   5.212  11.477 -0.0765 -0.2595 -0.0694
17853TIP3    H174974   2.332   5.142  11.451  1.8246  1.1316  0.2617
17853TIP3    H274975   2.304   5.240  11.563 -1.9519 -0.2103  0.6385
17854TIP3   OH274976   6.533   5.423  13.334  0.0440 -0.0257  0.1283
17854TIP3    H174977   6.570   5.508  13.308  1.4046 -0.1014  1.6492
17854TIP3    H274978   6.557   5.414  13.426 -1.8240 -1.1731  0.5490
17855TIP3   OH274979   3.181   1.411  12.830 -0.2246 -0.0261  0.3306
17855TIP3    H174980   3.130   1.483  12.866 -2.0175 -1.1638  0.2019
17855TIP3    H274981   3.147   1.333  12.873  1.8507 -0.8163  0.6645
17856TIP3   OH274982   2.574   0.500  14.295  0.0972 -0.8116  0.2416
17856TIP3    H174983   2.658   0.546  14.303  0.0675 -0.8731  1.0412
17856TIP3    H274984   2.545   0.487  14.386 -1.9691  1.3797 -0.0169
17857TIP3   OH274985   3.937   1.817   4.050  0.7626 -0.5896 -0.1254
17857TIP3    H174986   3.984   1.860   3.979  1.3797 -1.6961 -0.4028
17857TIP3    H274987   3.873   1.761   4.006  0.3538 -0.4100  0.2239
17858TIP3   OH274988   1.768   5.749  15.581  0.1209 -0.2814 -0.0031
17858TIP3    H174989   1.735   5.713  15.499  0.2278  0.1449 -0.2327
17858TIP3    H274990   1.762   5.844  15.571 -1.9551 -0.2108  1.3213
17859TIP3   OH274991   3.132   0.492   4.239 -0.0895  0.0364 -0.1335
17859TIP3    H174992   3.115   0.439   4.162 -0.8858 -1.1049  0.7959
17859TIP3    H274993   3.054   0.483   4.293  0.3485  1.0046  0.7126
17860TIP3   OH274994   3.754   6.127   4.513  0.3725 -0.8715 -0.0059
17860TIP3    H174995   3.843   6.114   4.546 -0.7385 -3.9470  2.1645
17860TIP3    H274996   3.716   6.192   4.573  0.6770 -0.7261  0.0315
17861TIP3   OH274997   1.755   5.885   5.240 -0.3279 -0.2264  0.1126
17861TIP3    H174998   1.798   5.805   5.210  1.3284  1.3487 -2.0837
17861TIP3    H274999   1.827   5.945   5.259 -1.4868  1.8849 -1.7384
17862TIP3   OH275000   5.802   3.607  14.711 -0.5761  0.6129  0.2081
17862TIP3    H175001   5.858   3.530  14.698  0.2426  0.6588  2.8197
17862TIP3    H275002   5.856   3.681  14.681 -1.2743  0.2847 -2.0821
17863TIP3   OH275003   3.400   2.993   3.655  0.1045  0.3373 -0.2282
17863TIP3    H175004   3.350   3.069   3.625  0.9513  0.2533 -1.9523
17863TIP3    H275005   3.335   2.924   3.663 -0.5038  0.9565  0.3321
17864TIP3   OH275006   5.510   1.494  15.368  0.1795 -0.1198 -0.1139
17864TIP3    H175007   5.535   1.468  15.456 -0.2102  1.1007  0.3680
17864TIP3    H275008   5.577   1.455  15.312  0.7363 -0.4515  0.7678
17865TIP3   OH275009   6.364   4.005   0.965 -0.4012 -0.3442  0.3243
17865TIP3    H175010   6.315   3.925   0.945 -1.7765  0.5284  0.0724
17865TIP3    H275011   6.400   3.990   1.052 -1.0652 -1.0457  0.4921
17866TIP3   OH275012   4.894   6.678  16.077 -0.3228  0.4845 -0.0372
17866TIP3    H175013   4.808   6.662  16.039  0.2541 -0.1314 -1.1277
17866TIP3    H275014   4.916   6.767  16.049 -0.8414  0.8623  0.7321
17867TIP3   OH275015   6.714   2.848  12.432  0.5003  0.0506  0.2374
17867TIP3    H175016   6.743   2.932  12.467 -0.1492  0.3106  0.1683
17867TIP3    H275017   6.619   2.855  12.428  0.4958 -0.3646 -0.6063
17868TIP3   OH275018   1.791   2.023   2.329 -0.1114  0.3130 -0.2498
17868TIP3    H175019   1.843   2.103   2.322 -1.3043  1.1965  0.6179
17868TIP3    H275020   1.714   2.049   2.380  0.4663 -1.8820  1.8962
17869TIP3   OH275021   3.237   1.601   2.640  0.2885  0.5334  0.3667
17869TIP3    H175022   3.325   1.616   2.674  0.2547 -0.5247  0.9767
17869TIP3    H275023   3.246   1.525   2.583 -0.2925  0.1820  0.7269
17870TIP3   OH275024   0.285   2.147  14.773 -0.2693  0.4264 -0.4404
17870TIP3    H175025   0.351   2.087  14.807  0.1264  0.2847 -1.4372
17870TIP3    H275026   0.331   2.202  14.710 -0.8913  0.9692 -0.4350
17871TIP3   OH275027   2.307   2.666  11.979  0.2896 -0.0902 -0.2347
17871TIP3    H175028   2.280   2.576  11.957  0.9373 -0.9734  2.2170
17871TIP3    H275029   2.390   2.678  11.934 -1.0263  0.3152 -2.7127
17872TIP3   OH275030   5.592   3.234  13.678  0.0253  0.8111  0.1465
17872TIP3    H175031   5.596   3.330  13.681 -1.7278  0.9994 -1.7334
17872TIP3    H275032   5.499   3.214  13.685  0.5281 -1.0126  3.7907
17873TIP3   OH275033   0.468   1.733   3.138 -0.6254  0.2104 -0.4765
17873TIP3    H175034   0.477   1.784   3.219 -2.9665 -0.0591  0.0129
17873TIP3    H275035   0.555   1.694   3.125  0.5595  2.3361  0.4511
17874TIP3   OH275036   2.635   2.451   1.908 -0.0867  0.5817  0.0760
17874TIP3    H175037   2.698   2.466   1.838 -1.0845  2.1257 -0.5444
17874TIP3    H275038   2.618   2.539   1.944 -2.6592  0.3938 -0.5003
17875TIP3   OH275039   2.764   1.167   1.547  0.0740 -0.1172 -0.1218
17875TIP3    H175040   2.830   1.236   1.542  0.7741 -0.4586  2.5638
17875TIP3    H275041   2.680   1.213   1.536  0.5681  1.0562  0.7557
17876TIP3   OH275042   2.120   3.657  11.749 -0.3642  0.2277  0.4883
17876TIP3    H175043   2.212   3.667  11.774 -0.4949 -1.0607  1.5952
17876TIP3    H275044   2.091   3.746  11.730  1.0203  0.6977  0.4379
17877TIP3   OH275045   3.038   2.522   4.236  0.3896  0.0015 -0.2267
17877TIP3    H175046   3.117   2.555   4.278  0.8131 -1.4987  0.2331
17877TIP3    H275047   3.031   2.571   4.155  0.9247  1.2362  0.4575
17878TIP3   OH275048   6.587   2.185   4.618  0.5988  0.0410  0.3882
17878TIP3    H175049   6.602   2.270   4.660 -0.5684 -1.2430  3.6988
17878TIP3    H275050   6.675   2.152   4.601  1.1989  0.4953  2.2977
17879TIP3   OH275051   4.960   2.609  11.720  0.1984 -0.2709 -0.2609
17879TIP3    H175052   4.957   2.634  11.627  0.0198 -2.7467 -0.9852
17879TIP3    H275053   5.044   2.644  11.751 -0.2924  1.6710 -0.9889
17880TIP3   OH275054   2.014   0.754   4.479  0.3514 -0.0436 -0.1548
17880TIP3    H175055   2.031   0.809   4.555 -0.4575  1.0367 -0.7174
17880TIP3    H275056   2.041   0.808   4.404  0.7741 -0.9369 -0.6590
17881TIP3   OH275057   2.083   1.019  12.814  1.1441  0.2612  0.4817
17881TIP3    H175058   2.104   0.946  12.872 -1.5107  0.3877  1.7299
17881TIP3    H275059   2.066   0.978  12.729  0.8923 -0.4326  0.8634
17882TIP3   OH275060   5.350   1.998   3.199 -0.5545  0.1719  0.2394
17882TIP3    H175061   5.284   1.975   3.133 -0.7164 -0.6991  0.6948
17882TIP3    H275062   5.313   1.967   3.282  0.5747 -0.6368  0.4589
17883TIP3   OH275063   2.926   3.033  15.480 -0.2920 -0.0582  0.2275
17883TIP3    H175064   2.867   2.962  15.455  1.0527 -0.8610 -0.7983
17883TIP3    H275065   2.912   3.043  15.574 -1.8200 -0.4259  0.0669
17884TIP3   OH275066   0.029   2.356  12.462 -0.2933 -0.0662  0.4802
17884TIP3    H175067   0.116   2.376  12.497  0.7301  0.4962 -2.2190
17884TIP3    H275068  -0.008   2.440  12.439 -0.9446 -0.4177  0.2248
17885TIP3   OH275069   5.160   3.272  14.603 -0.3780 -0.2946 -0.4342
17885TIP3    H175070   5.161   3.310  14.515 -0.1955  1.3766  0.2384
17885TIP3    H275071   5.252   3.269  14.629 -0.4634 -0.3148 -0.1274
17886TIP3   OH275072   6.301   2.077  12.772  0.2575 -0.3729 -0.5682
17886TIP3    H175073   6.291   2.142  12.842 -0.5861 -0.6319 -0.4383
17886TIP3    H275074   6.219   2.027  12.774  1.1381 -1.8556 -0.2565
17887TIP3   OH275075   5.541   0.810   4.734 -0.2565  0.8031 -0.5782
17887TIP3    H175076   5.627   0.797   4.775 -0.0312 -0.7499 -1.4435
17887TIP3    H275077   5.490   0.858   4.800  1.0437  1.1124  0.2428
17888TIP3   OH275078   4.307   0.277  13.237 -0.4647  0.0064 -0.7174
17888TIP3    H175079   4.351   0.230  13.308 -0.8703  0.5196 -0.1151
17888TIP3    H275080   4.332   0.368  13.251 -1.0228  0.1842 -0.8843
17889TIP3   OH275081   3.517   3.827  13.467  0.2652  0.1587  0.5480
17889TIP3    H175082   3.501   3.733  13.464 -1.7126  0.4676 -0.0266
17889TIP3    H275083   3.610   3.835  13.492  0.3099 -1.9040  1.2403
17890TIP3   OH275084   0.440   1.942  16.859 -0.4072  0.2082 -0.1717
17890TIP3    H175085   0.429   2.037  16.854  0.3442  0.2579 -1.4318
17890TIP3    H275086   0.532   1.928  16.836 -0.0556 -0.7146  1.6436
17891TIP3   OH275087   0.509   3.340  14.191 -0.3143  0.3478 -0.2740
17891TIP3    H175088   0.455   3.289  14.251  0.1926 -1.3929 -1.2183
17891TIP3    H275089   0.477   3.317  14.104  2.2064 -1.1891 -0.9172
17892TIP3   OH275090   2.016   0.101  13.630 -0.1013  0.1490 -0.8134
17892TIP3    H175091   1.986   0.047  13.557 -1.0787  1.0859 -1.1408
17892TIP3    H275092   2.107   0.077  13.643 -0.3171 -1.0451 -1.4107
17893TIP3   OH275093   3.855   0.577   1.023  0.4379 -0.0318  0.2175
17893TIP3    H175094   3.850   0.649   1.085  0.3947  0.6850 -0.5944
17893TIP3    H275095   3.881   0.618   0.940  1.8682 -1.1572  0.0667
17894TIP3   OH275096   0.037   1.500  13.615 -0.1473  0.8464 -0.5980
17894TIP3    H175097   0.082   1.583  13.627  0.0763  0.4785  1.4301
17894TIP3    H275098  -0.043   1.523  13.568 -0.3285  2.2960  0.3604
17895TIP3   OH275099   2.725   0.494   4.034 -0.8118 -0.1533 -0.0671
17895TIP3    H175100   2.777   0.570   4.061  0.4785 -1.3462  0.8926
17895TIP3    H275101   2.769   0.462   3.955 -0.1570 -1.0899  0.6722
17896TIP3   OH275102   5.232   3.438   4.617 -0.2946  0.2307 -0.3332
17896TIP3    H175103   5.324   3.418   4.634 -0.6011 -0.9994  0.0014
17896TIP3    H275104   5.231   3.530   4.593  0.8381  0.6815  1.2105
17897TIP3   OH275105   2.355   0.688  12.189  0.1572 -0.0108  0.4345
17897TIP3    H175106   2.290   0.743  12.232  1.0136  1.7827 -0.4458
17897TIP3    H275107   2.315   0.663  12.106  0.4254  0.8541  0.0229
17898TIP3   OH275108   5.902   3.815  12.158 -0.2941  0.2836  0.1511
17898TIP3    H175109   5.903   3.788  12.249  2.1126 -0.3851 -0.0044
17898TIP3    H275110   5.812   3.844  12.142 -1.2831 -1.4939  2.1326
17899TIP3   OH275111   4.855   2.842   3.424  0.8595  0.3116 -0.6524
17899TIP3    H175112   4.912   2.833   3.348 -0.7575  1.0630 -2.0213
17899TIP3    H275113   4.852   2.754   3.462 -0.0215 -0.6443 -2.7808
17900TIP3   OH275114   1.174   6.135   2.639 -0.3295 -0.1293  0.4216
17900TIP3    H175115   1.192   6.080   2.563  0.3916 -1.9676  1.8397
17900TIP3    H275116   1.260   6.147   2.680 -0.6528  1.1698  0.7309
17901TIP3   OH275117   0.905   5.530  13.630 -0.8647  0.0735 -0.0032
17901TIP3    H175118   0.862   5.612  13.653  0.6935  0.5503  1.3313
17901TIP3    H275119   0.889   5.472  13.705  1.0036  0.3501  0.6423
17902TIP3   OH275120   1.358   5.202  11.223 -0.3205 -0.2466 -0.5245
17902TIP3    H175121   1.409   5.172  11.149 -0.0061  0.0372 -0.4274
17902TIP3    H275122   1.342   5.123  11.275  0.7484 -0.2173 -0.1164
17903TIP3   OH275123   2.060   4.293   0.109  0.4016  0.7365  0.4218
17903TIP3    H175124   2.055   4.296   0.204  0.6041  0.7058  0.4326
17903TIP3    H275125   1.973   4.323   0.080 -0.0626 -0.3577  0.6285
17904TIP3   OH275126   0.766   4.740  15.258  0.2438 -0.0024 -0.1245
17904TIP3    H175127   0.759   4.830  15.228 -0.3222  0.3442  0.9950
17904TIP3    H275128   0.698   4.693  15.210  0.3351  0.2268 -0.4797
17905TIP3   OH275129   0.758   3.348  14.852  0.0401 -0.0766  0.3025
17905TIP3    H175130   0.720   3.427  14.812 -0.8163  0.1492  1.4898
17905TIP3    H275131   0.808   3.308  14.782  2.0528  2.4882  0.1102
17906TIP3   OH275132   1.700   2.486  17.183  0.0113 -0.3404  0.3793
17906TIP3    H175133   1.767   2.544  17.220  0.7685  0.2385 -1.7361
17906TIP3    H275134   1.618   2.534  17.193  0.5864  0.9892 -1.0577
17907TIP3   OH275135   6.705   2.549  15.154 -0.2399  0.0283  0.8370
17907TIP3    H175136   6.742   2.609  15.090  1.6642  0.0887  1.9171
17907TIP3    H275137   6.726   2.462  15.120 -0.0960  0.0371  0.9054
17908TIP3   OH275138   3.750   5.937  13.772  0.0127  0.1103 -0.0179
17908TIP3    H175139   3.788   5.934  13.860  1.0039 -2.1475 -0.4480
17908TIP3    H275140   3.804   6.000  13.725 -0.2378  0.9929  0.8475
17909TIP3   OH275141   1.538   1.855   1.187  0.2101 -0.4363  0.0223
17909TIP3    H175142   1.539   1.860   1.092  1.5525 -1.6572 -0.0588
17909TIP3    H275143   1.590   1.929   1.217  3.3842 -2.3052 -0.4092
17910TIP3   OH275144   1.397   1.881  11.430 -0.5340 -0.2849 -0.1539
17910TIP3    H175145   1.408   1.810  11.367 -0.8863  0.4538 -1.0787
17910TIP3    H275146   1.361   1.839  11.508 -0.6031 -1.1362 -0.6331
17911TIP3   OH275147   1.134   6.662   3.713  0.2373  0.0370  0.2839
17911TIP3    H175148   1.134   6.640   3.807  0.6087 -1.8024 -0.1025
17911TIP3    H275149   1.172   6.750   3.709 -0.1855  0.3178  1.8931
17912TIP3   OH275150   5.687   0.580   5.629  0.1542  0.2870  0.1186
17912TIP3    H175151   5.646   0.570   5.543  0.0205 -0.0243  0.2169
17912TIP3    H275152   5.705   0.490   5.658  0.8332  0.4207  0.1123
17913TIP3   OH275153   6.790   0.441   0.417 -0.0746  0.5823 -0.8727
17913TIP3    H175154   6.767   0.503   0.349 -0.5138 -1.8353 -3.0780
17913TIP3    H275155   6.740   0.362   0.396  1.4237 -0.9724  1.0055
17914TIP3   OH275156   5.447   4.395   4.205  0.2360 -0.0506  0.1962
17914TIP3    H175157   5.441   4.376   4.298  0.7131 -0.7324  0.0919
17914TIP3    H275158   5.387   4.469   4.192  0.1493  0.0375  1.0329
17915TIP3   OH275159   5.559   2.820   0.491  0.0858  0.5245  0.4642
17915TIP3    H175160   5.546   2.779   0.406  0.7449  0.4083  0.4172
17915TIP3    H275161   5.538   2.752   0.555 -2.1517  1.1186  0.4395
17916TIP3   OH275162   4.062   2.764   6.237 -0.0565  0.6218  0.1275
17916TIP3    H175163   4.027   2.813   6.312 -0.6613  0.6169 -0.1400
17916TIP3    H275164   4.064   2.828   6.166  0.0306  0.4967  0.0176
17917TIP3   OH275165   5.793   4.140  12.138 -0.1875  0.1552  0.4506
17917TIP3    H175166   5.867   4.201  12.145 -0.1345  0.1659 -0.1448
17917TIP3    H275167   5.830   4.064  12.093 -0.1187 -0.5461  1.6386
17918TIP3   OH275168   2.261   6.217   1.617 -0.5550 -0.0457 -0.6579
17918TIP3    H175169   2.215   6.190   1.697  1.9956  0.7462  1.2245
17918TIP3    H275170   2.274   6.137   1.567 -1.7025 -0.6562  0.0011
17919TIP3   OH275171   4.774   6.590  14.759 -0.4187 -0.0026  1.1063
17919TIP3    H175172   4.848   6.615  14.814 -1.1035 -0.1737  2.1423
17919TIP3    H275173   4.727   6.672  14.742 -0.8177 -0.0949  1.7198
17920TIP3   OH275174   3.416   2.989   3.207 -0.3921 -0.2185  0.2802
17920TIP3    H175175   3.370   3.065   3.242  0.0392 -0.3094  1.0792
17920TIP3    H275176   3.462   2.952   3.283 -0.8001 -1.4242 -0.0366
17921TIP3   OH275177   0.230   6.313   1.358  0.0796 -0.0117 -0.3631
17921TIP3    H175178   0.226   6.250   1.430  1.2192  0.1374 -0.1599
17921TIP3    H275179   0.145   6.305   1.315 -0.4074 -0.5049  0.6565
17922TIP3   OH275180   2.097   0.154  11.613  0.2341 -0.4590 -0.2446
17922TIP3    H175181   2.106   0.078  11.671  0.7962 -1.0298 -1.0698
17922TIP3    H275182   2.114   0.229  11.671 -0.0709 -0.9632  0.5213
17923TIP3   OH275183   1.994   2.879  12.338 -0.2536  0.3104 -0.3665
17923TIP3    H175184   2.020   2.794  12.375 -0.1325 -0.9348 -3.0822
17923TIP3    H275185   2.012   2.871  12.244 -0.1584  3.4102 -0.7126
17924TIP3   OH275186   1.779   2.358   5.628  0.2858  0.0124  0.8632
17924TIP3    H175187   1.738   2.381   5.545  2.5411 -0.4773 -0.4515
17924TIP3    H275188   1.718   2.391   5.694 -1.8161 -0.0317 -0.9414
17925TIP3   OH275189   3.806   4.663   1.704 -0.0686 -0.2801  0.4341
17925TIP3    H175190   3.825   4.743   1.754 -0.1158  0.7327 -1.1148
17925TIP3    H275191   3.715   4.643   1.725 -0.5765  1.0195 -0.3706
17926TIP3   OH275192   1.404   0.552   0.686 -0.5708 -0.0452  0.1252
17926TIP3    H175193   1.362   0.605   0.754 -2.1275 -0.4440 -0.4766
17926TIP3    H275194   1.357   0.575   0.606  1.2073  0.3989 -0.8516
17927TIP3   OH275195   2.174   0.875  12.267  0.0623  0.0155  0.5801
17927TIP3    H175196   2.211   0.959  12.295  0.8628 -0.8998  2.3966
17927TIP3    H275197   2.120   0.897  12.191  3.7533  1.5186 -1.8489
17928TIP3   OH275198   3.639   5.921   1.347  0.7349 -0.0329 -0.1498
17928TIP3    H175199   3.586   5.926   1.427 -0.6940  1.5978 -1.1058
17928TIP3    H275200   3.718   5.971   1.367  0.9421 -0.6433  0.6064
17929TIP3   OH275201   5.243   0.685   3.014 -0.6173 -0.2038 -0.1537
17929TIP3    H175202   5.181   0.729   2.956 -0.4160  0.7918  0.3738
17929TIP3    H275203   5.190   0.655   3.087 -0.5898  0.0242 -0.0412
17930TIP3   OH275204   1.866   5.901  14.653 -0.4881  0.3571 -0.6919
17930TIP3    H175205   1.926   5.845  14.604  0.7034  0.1111  0.9503
17930TIP3    H275206   1.868   5.867  14.742  0.5413  3.1215  0.4726
17931TIP3   OH275207   4.431   4.314   1.266 -0.5177  0.1638  0.1574
17931TIP3    H175208   4.347   4.299   1.222  1.0599 -3.7967 -2.1055
17931TIP3    H275209   4.494   4.325   1.194  1.1547  1.2826  1.7193
17932TIP3   OH275210   1.011   5.586   3.950  0.0166  0.2279  0.2006
17932TIP3    H175211   0.953   5.605   3.877 -0.4373 -1.1126  0.1755
17932TIP3    H275212   0.952   5.554   4.019  0.6276 -0.2777  0.4995
17933TIP3   OH275213   0.312   2.954   5.544  0.0691 -0.0483 -0.4751
17933TIP3    H175214   0.241   2.911   5.497 -0.0345  0.6516 -0.9803
17933TIP3    H275215   0.320   2.905   5.626  0.1615 -1.1971 -1.1521
17934TIP3   OH275216   0.805   4.190   3.205  0.0154  0.0161  1.0034
17934TIP3    H175217   0.740   4.125   3.179  0.1513 -0.0715  0.8848
17934TIP3    H275218   0.778   4.270   3.159  1.4219 -0.6321 -1.0828
17935TIP3   OH275219   2.514   5.028   1.747  0.0700  0.4890 -0.1653
17935TIP3    H175220   2.453   5.076   1.692 -0.8868  1.4779  1.6611
17935TIP3    H275221   2.472   5.025   1.833  0.4489 -2.9411  0.0558
17936TIP3   OH275222   0.238   0.025   5.714 -0.4121  0.1171  0.4139
17936TIP3    H175223   0.236   0.016   5.809 -0.7878  0.2379  0.4199
17936TIP3    H275224   0.298   0.098   5.698  0.8016 -0.8414  0.4763
17937TIP3   OH275225   0.712   6.647  12.864  0.8840  0.5621 -0.0690
17937TIP3    H175226   0.751   6.732  12.883  1.9971  0.7708 -2.8862
17937TIP3    H275227   0.724   6.635  12.770 -1.2131 -1.7585 -0.1404
17938TIP3   OH275228   5.409   5.768  12.639  0.1516  0.3156 -0.0950
17938TIP3    H175229   5.432   5.846  12.689 -0.1452  0.0059  0.5354
17938TIP3    H275230   5.416   5.796  12.547  1.4008  0.6768  0.1017
17939TIP3   OH275231   4.649   4.770  12.369  0.1252  0.2742  0.8170
17939TIP3    H175232   4.728   4.723  12.344  0.0707  0.9294 -0.6433
17939TIP3    H275233   4.669   4.863  12.354 -2.3130  0.3174 -4.1347
17940TIP3   OH275234   0.961   4.068  11.552  0.0915 -0.0530 -0.1668
17940TIP3    H175235   1.023   4.062  11.625 -2.2403  0.1097  1.9458
17940TIP3    H275236   0.929   3.979  11.540  0.1199  0.0047 -0.6945
17941TIP3   OH275237   0.643   5.393   6.366 -0.7370 -0.1314  0.0318
17941TIP3    H175238   0.617   5.307   6.397 -0.9694  0.0604  0.3846
17941TIP3    H275239   0.596   5.405   6.284 -0.1574 -0.6266 -0.3768
17942TIP3   OH275240   6.354   3.131   5.306 -0.0021  0.5028  0.2735
17942TIP3    H175241   6.315   3.165   5.226  0.8433 -0.5700 -0.6159
17942TIP3    H275242   6.445   3.160   5.304  0.6859 -1.5292 -0.4026
17943TIP3   OH275243   6.708   6.495  13.017  0.2399 -0.8007 -0.6321
17943TIP3    H175244   6.619   6.478  12.988 -0.2829 -0.5223  0.7386
17943TIP3    H275245   6.721   6.435  13.091  1.0205 -0.5067 -0.5235
17944TIP3   OH275246   3.710   1.697  14.660 -0.3559  0.1815 -0.0452
17944TIP3    H175247   3.660   1.706  14.740 -1.9589  0.7250 -1.0640
17944TIP3    H275248   3.650   1.653  14.599  0.6149  0.2953 -1.1186
17945TIP3   OH275249   4.290   3.042   3.870  0.2565 -0.2849 -0.1496
17945TIP3    H175250   4.282   2.984   3.946 -0.0898  0.6287  0.5277
17945TIP3    H275251   4.384   3.056   3.860  0.2331  1.1423  1.3310
17946TIP3   OH275252   4.133   5.833  14.857  0.3207 -0.1583  0.4676
17946TIP3    H175253   4.044   5.802  14.871  0.0267  0.7046  0.5668
17946TIP3    H275254   4.135   5.920  14.897  1.7250 -0.8672  2.1127
17947TIP3   OH275255   6.634   3.930   5.267 -0.2921 -0.7769  0.0632
17947TIP3    H175256   6.547   3.910   5.231 -0.4375 -1.2551  0.6660
17947TIP3    H275257   6.669   3.996   5.207 -1.5403  0.3059  0.4606
17948TIP3   OH275258   2.367   6.033   4.487  0.0431 -0.2360  1.0222
17948TIP3    H175259   2.456   6.061   4.467  0.6892  0.0901  3.9033
17948TIP3    H275260   2.311   6.091   4.435  1.4976  0.6826  0.4225
17949TIP3   OH275261   3.656   2.192  12.392 -0.0213  0.3706 -0.8210
17949TIP3    H175262   3.573   2.222  12.429 -0.9158 -0.4430 -2.0827
17949TIP3    H275263   3.721   2.216  12.457 -1.2662  0.8420  0.3032
17950TIP3   OH275264   4.426   5.431   4.686  0.3953  0.5552  0.0770
17950TIP3    H175265   4.334   5.432   4.715  0.3387  1.2815 -0.1121
17950TIP3    H275266   4.442   5.340   4.661  0.4834 -0.1795  2.4922
17951TIP3   OH275267   2.993   2.865  14.056  0.0988 -0.0847  0.0630
17951TIP3    H175268   2.931   2.844  14.126 -0.6126  0.3651 -0.4198
17951TIP3    H275269   3.018   2.780  14.019 -0.5365 -0.2493  0.0073
17952TIP3   OH275270   1.715   0.059   4.321  0.2716  0.5531  0.0246
17952TIP3    H175271   1.646   0.018   4.373  0.7039  1.2616  1.2226
17952TIP3    H275272   1.780   0.086   4.386  1.8810 -0.4544 -1.1033
17953TIP3   OH275273   0.277   0.135   3.482 -0.4533  0.5293  0.2713
17953TIP3    H175274   0.210   0.154   3.548 -0.0798 -0.5537  0.9910
17953TIP3    H275275   0.347   0.197   3.502 -1.3666  1.9705 -0.7584
17954TIP3   OH275276   3.841   6.460  17.105  0.2390  0.0626 -0.0807
17954TIP3    H175277   3.746   6.463  17.105  0.1796 -0.2116  1.9868
17954TIP3    H275278   3.866   6.488  17.017 -1.7688 -1.6274 -1.2781
17955TIP3   OH275279   4.707   0.120   2.590  0.1103  0.2225  0.6661
17955TIP3    H175280   4.733   0.052   2.652 -0.5878  1.4339  2.3743
17955TIP3    H275281   4.617   0.098   2.567 -0.5611  1.1585  2.1886
17956TIP3   OH275282   1.811   4.779   1.547 -0.0193  0.4061 -0.3889
17956TIP3    H175283   1.799   4.689   1.518  2.3063 -0.2894  0.6066
17956TIP3    H275284   1.768   4.832   1.480 -0.1958 -1.3863 -1.7457
17957TIP3   OH275285   2.025   0.868   5.487 -0.1585  0.0934  0.1349
17957TIP3    H175286   2.106   0.898   5.529 -0.2696 -1.8766  1.9222
17957TIP3    H275287   2.052   0.841   5.399  0.7860  0.9901  0.1328
17958TIP3   OH275288   2.027   4.543   1.677 -1.1228 -0.5192  0.0440
17958TIP3    H175289   2.097   4.609   1.671 -0.2185 -1.5503 -1.8437
17958TIP3    H275290   1.951   4.592   1.710 -0.0143  1.0562  0.3962
17959TIP3   OH275291   5.844   3.985   2.050  0.7730  0.0551 -0.2429
17959TIP3    H175292   5.924   3.941   2.020  0.6831 -0.1602 -0.1668
17959TIP3    H275293   5.875   4.068   2.086  0.7851  0.8104 -1.8970
17960TIP3   OH275294   4.134   5.319  15.810  0.0471 -0.5927  0.1952
17960TIP3    H175295   4.118   5.410  15.835  1.5263  0.3114 -1.8246
17960TIP3    H275296   4.219   5.298  15.850  0.4554 -0.5228 -0.6106
17961TIP3   OH275297   6.307   1.841   5.602 -0.9111 -0.2002  0.0457
17961TIP3    H175298   6.297   1.746   5.606 -0.0132 -0.2839  0.6952
17961TIP3    H275299   6.332   1.859   5.511 -0.7272 -0.6210  0.0109
17962TIP3   OH275300   3.304   5.645  14.460  0.7694 -0.5071  0.1463
17962TIP3    H175301   3.378   5.684  14.507 -0.0619  1.9301 -0.4606
17962TIP3    H275302   3.281   5.709  14.393 -2.2030 -0.9602  0.6150
17963TIP3   OH275303   3.360   1.947   3.258  0.4818 -0.1383  0.4460
17963TIP3    H175304   3.386   1.888   3.187 -0.0241 -0.6586  0.6934
17963TIP3    H275305   3.320   2.022   3.213  2.4613  0.7500  0.0396
17964TIP3   OH275306   3.861   5.523  10.931 -0.1443 -0.1472 -0.5009
17964TIP3    H175307   3.941   5.477  10.953  0.3011  1.1576  0.7895
17964TIP3    H275308   3.889   5.598  10.879 -0.6076 -0.1006 -0.6949
17965TIP3   OH275309   1.866   4.671   6.675 -0.5831 -0.2572 -0.1516
17965TIP3    H175310   1.791   4.714   6.635 -0.1719 -0.0217 -0.6917
17965TIP3    H275311   1.934   4.739   6.678  0.0935 -0.8642 -1.0661
17966TIP3   OH275312   6.438   6.159  15.260  0.5343  0.0664  0.5847
17966TIP3    H175313   6.398   6.237  15.222 -1.8694 -0.4944  1.7989
17966TIP3    H275314   6.461   6.184  15.349 -1.3216 -0.8593  1.3787
17967TIP3   OH275315   5.864   2.566  15.926  0.8406 -0.3512  0.1301
17967TIP3    H175316   5.824   2.653  15.933 -0.1933 -0.8622  0.9969
17967TIP3    H275317   5.948   2.574  15.970  1.0326  0.3639 -0.3524
17968TIP3   OH275318   2.283   1.936  14.915 -0.0597 -0.7367 -0.1266
17968TIP3    H175319   2.216   1.894  14.968 -3.0749 -0.1248 -3.1389
17968TIP3    H275320   2.254   2.027  14.907  0.8739 -0.5387 -1.8298
17969TIP3   OH275321   2.429   2.848  16.583 -0.8710 -0.3702 -0.0403
17969TIP3    H175322   2.504   2.886  16.537 -0.1552 -0.3634  1.0846
17969TIP3    H275323   2.406   2.914  16.649 -1.2510 -0.7950  0.2585
17970TIP3   OH275324   3.871   4.375   2.070  0.0004 -0.0415  0.0739
17970TIP3    H175325   3.913   4.377   1.984  1.9414  1.9671  0.9576
17970TIP3    H275326   3.797   4.435   2.061 -0.2505 -0.4165 -0.3973
17971TIP3   OH275327   0.313   2.859  11.131 -0.3163  0.2187  0.2865
17971TIP3    H175328   0.360   2.846  11.048 -2.0434  0.2596 -0.7416
17971TIP3    H275329   0.270   2.775  11.147  0.3136  0.0908  1.3637
17972TIP3   OH275330   3.677   1.029   2.903  0.0185  0.3300  0.1623
17972TIP3    H175331   3.615   1.051   2.834 -1.1973 -2.1098  0.3766
17972TIP3    H275332   3.706   0.940   2.883  2.5500  0.9191  0.7692
17973TIP3   OH275333   3.390   6.387  15.402  0.0901  0.4679  0.6571
17973TIP3    H175334   3.325   6.358  15.338  0.5869  0.4179  0.1732
17973TIP3    H275335   3.339   6.403  15.482 -0.1891 -1.7553  0.9674
17974TIP3   OH275336   4.816   5.670  11.364  0.3348  1.0268  0.3430
17974TIP3    H175337   4.891   5.673  11.305 -1.1296 -0.7187 -1.7642
17974TIP3    H275338   4.783   5.580  11.358 -2.5101  1.9447  0.3901
17975TIP3   OH275339   5.249   5.974  14.256  0.2013  0.3076 -0.2512
17975TIP3    H175340   5.201   6.011  14.330 -0.8619 -1.1022 -0.1898
17975TIP3    H275341   5.285   6.050  14.210  0.4027  1.2406  1.3731
17976TIP3   OH275342   3.512   1.337   4.929  0.7258 -0.0157  0.0757
17976TIP3    H175343   3.563   1.294   4.860 -1.5330 -0.0763 -1.6985
17976TIP3    H275344   3.421   1.323   4.903 -0.2521 -0.0785  3.1699
17977TIP3   OH275345   1.875   1.988  13.438 -0.5508  0.0758  0.6208
17977TIP3    H175346   1.847   1.907  13.397 -0.5679  0.2893  0.2002
17977TIP3    H275347   1.812   2.054  13.407 -0.5228  0.2540  0.9333
17978TIP3   OH275348   2.318   2.667   1.355  0.1637  0.1274  0.3805
17978TIP3    H175349   2.253   2.598   1.363  1.1382 -0.6803  2.0491
17978TIP3    H275350   2.281   2.728   1.291 -1.5170 -1.0448  0.1618
17979TIP3   OH275351   5.391   4.051  14.290  0.6019  0.1477  0.2607
17979TIP3    H175352   5.433   4.087  14.211  2.0866  1.1350  1.4518
17979TIP3    H275353   5.463   4.033  14.349 -0.5774  0.7295  1.9411
17980TIP3   OH275354   4.503   4.460  12.934 -0.4615  0.2782  0.3217
17980TIP3    H175355   4.585   4.440  12.980 -0.5189  3.0816  1.8677
17980TIP3    H275356   4.435   4.443  12.999 -1.3606 -2.9655 -1.2433
17981TIP3   OH275357   0.261   1.708  14.935 -0.2934  0.2612  0.1853
17981TIP3    H175358   0.192   1.762  14.973  0.4056 -0.0578  2.0219
17981TIP3    H275359   0.215   1.645  14.879 -1.2506  1.6435 -0.6469
17982TIP3   OH275360   2.851   3.936   4.773 -0.3088  0.0993 -0.2758
17982TIP3    H175361   2.926   3.884   4.804  0.8090  1.4351 -0.6334
17982TIP3    H275362   2.775   3.887   4.803  0.6639  0.1591  2.6767
17983TIP3   OH275363   4.675   0.531  13.739 -0.5861  0.2750  0.1838
17983TIP3    H175364   4.607   0.482  13.787  0.3445  0.4554  1.7492
17983TIP3    H275365   4.708   0.469  13.675 -1.2807 -0.2703  0.3400
17984TIP3   OH275366   3.842   6.607   0.856  0.4686 -0.4528 -0.1082
17984TIP3    H175367   3.829   6.690   0.903  2.2942 -0.1392 -0.0869
17984TIP3    H275368   3.759   6.561   0.865 -1.0479  1.8637 -1.1403
17985TIP3   OH275369   0.428   6.585  12.553 -0.1294 -0.2208 -0.1104
17985TIP3    H175370   0.391   6.640  12.622 -2.8411 -0.4873 -1.2134
17985TIP3    H275371   0.513   6.624  12.534 -0.5200  1.5420  1.4499
17986TIP3   OH275372   6.688   0.366   0.817 -0.4353  0.0937 -0.3776
17986TIP3    H175373   6.639   0.299   0.770 -1.1661 -0.6389  1.3302
17986TIP3    H275374   6.637   0.381   0.897  1.1392  0.6953  0.5593
17987TIP3   OH275375   4.725   5.065   5.179  0.5552 -0.3542 -0.3116
17987TIP3    H175376   4.782   5.142   5.178 -1.3059  1.1331  0.9172
17987TIP3    H275377   4.645   5.095   5.221  0.0104 -3.1804  0.8943
17988TIP3   OH275378   6.600   3.740  12.891  0.4187 -0.3060 -0.0435
17988TIP3    H175379   6.645   3.744  12.806 -0.7919  3.0378 -0.6873
17988TIP3    H275380   6.527   3.679  12.877  1.2121 -1.1076 -0.8317
17989TIP3   OH275381   4.329   5.128   1.606  0.1604 -0.1802  0.4898
17989TIP3    H175382   4.382   5.186   1.660  0.8124 -0.5700  0.2860
17989TIP3    H275383   4.370   5.042   1.616  1.0724 -0.0506 -1.5703
17990TIP3   OH275384   2.141   5.264  15.440  0.0032 -0.0188  0.1258
17990TIP3    H175385   2.099   5.179  15.451  0.7137 -0.5562 -1.0808
17990TIP3    H275386   2.076   5.317  15.393 -0.0772 -0.1982  0.0351
17991TIP3   OH275387   0.554   4.500  16.600 -0.2237  0.5864 -0.0025
17991TIP3    H175388   0.508   4.514  16.518  0.8202  0.8015 -0.5614
17991TIP3    H275389   0.520   4.568  16.659  1.1638  2.3847 -1.1701
17992TIP3   OH275390   0.095   3.606  16.272  0.6926 -0.4209  0.0596
17992TIP3    H175391   0.095   3.582  16.365 -1.3268 -2.2577 -0.3181
17992TIP3    H275392   0.175   3.569  16.237  1.0477 -0.4590  0.8847
17993TIP3   OH275393   5.701   5.284  13.545  0.0069  0.2769 -0.1475
17993TIP3    H175394   5.661   5.218  13.602 -0.1765  1.8144  1.5763
17993TIP3    H275395   5.762   5.331  13.601  1.1312  0.7365 -1.6778
17994TIP3   OH275396   2.309   2.947  14.198  0.0497 -0.0774 -0.4697
17994TIP3    H175397   2.216   2.957  14.179 -0.7332 -0.1268  2.7087
17994TIP3    H275398   2.332   2.861  14.163 -1.5653 -0.8062  0.1691
17995TIP3   OH275399   0.123   5.473   3.003 -0.2664  0.1851  0.0984
17995TIP3    H175400   0.115   5.456   2.909  0.4261 -1.0298  0.2384
17995TIP3    H275401   0.209   5.437   3.026  0.1406  1.6219  0.9616
17996TIP3   OH275402   3.004   1.713  11.250  0.1631  0.0808  0.1462
17996TIP3    H175403   2.915   1.739  11.273  0.3378 -0.1102  1.0702
17996TIP3    H275404   2.993   1.638  11.193 -0.2927  0.8287 -0.7843
17997TIP3   OH275405   3.495   1.875   4.621 -0.3519  0.2743  0.2975
17997TIP3    H175406   3.498   1.839   4.532  1.2438 -0.9819  0.8272
17997TIP3    H275407   3.561   1.944   4.620 -0.8209  0.7268  0.3274
17998TIP3   OH275408   6.306   5.351  12.798 -0.0998 -0.3693  0.0475
17998TIP3    H175409   6.325   5.259  12.818 -0.1591 -0.3848  0.0328
17998TIP3    H275410   6.343   5.400  12.871 -0.8154 -0.4684  0.4800
17999TIP3   OH275411   3.085   4.125   3.527  0.2335  0.5009 -0.3107
17999TIP3    H175412   3.142   4.068   3.578  1.9589  0.6367 -1.9808
17999TIP3    H275413   3.047   4.067   3.460  1.1683  1.0551 -1.3539
18000TIP3   OH275414   1.112   0.169   4.892  0.4703 -0.1516 -0.0596
18000TIP3    H175415   1.146   0.170   4.981 -1.4383 -0.7939  0.7442
18000TIP3    H275416   1.067   0.253   4.883 -0.6174 -0.6925  0.1556
18001TIP3   OH275417   2.584   6.168   6.223  0.0114 -0.0468  0.2233
18001TIP3    H175418   2.502   6.198   6.262  0.9725  1.8444  0.9358
18001TIP3    H275419   2.637   6.139   6.297  0.9856  1.3680  0.1227
18002TIP3   OH275420   4.110   0.983   0.127 -0.2804 -0.0715  0.0996
18002TIP3    H175421   4.092   0.920   0.058 -4.3431  0.7847  0.0772
18002TIP3    H275422   4.103   0.933   0.208 -0.5531 -0.2117 -0.0076
18003TIP3   OH275423   5.334   2.348  12.699 -0.5489 -0.2479 -0.3455
18003TIP3    H175424   5.267   2.370  12.764  0.3574  0.5491  0.3583
18003TIP3    H275425   5.413   2.393  12.730  0.1932 -0.7668 -1.4094
18004TIP3   OH275426   5.861   5.524  13.004  0.0111 -0.3357 -0.4879
18004TIP3    H175427   5.777   5.553  12.969 -0.0537  0.0979  0.0181
18004TIP3    H275428   5.925   5.554  12.940  0.0962  2.2091  0.6770
18005TIP3   OH275429   2.282   1.512   0.461 -0.2392  0.3279 -0.1762
18005TIP3    H175430   2.222   1.438   0.448 -0.9144  0.2243  2.7065
18005TIP3    H275431   2.369   1.475   0.453 -0.5630 -0.1804 -1.4540
18006TIP3   OH275432   4.318   4.521   2.786  0.2174  0.2612  0.2999
18006TIP3    H175433   4.226   4.511   2.760  0.6914  0.6678 -1.7291
18006TIP3    H275434   4.331   4.455   2.854 -1.4642 -0.1166  0.3031
18007TIP3   OH275435   1.774   0.603   3.158  0.3737 -0.5499 -0.6123
18007TIP3    H175436   1.847   0.665   3.170 -1.0214  0.7456  2.0155
18007TIP3    H275437   1.815   0.517   3.160  1.9383  0.1672 -0.2527
18008TIP3   OH275438   4.464   0.449  11.964 -0.4173 -0.1473  0.1093
18008TIP3    H175439   4.374   0.459  11.995  0.2095 -0.3649  2.1518
18008TIP3    H275440   4.511   0.523  12.003  0.7642 -1.3958  1.1511
18009TIP3   OH275441   5.014   3.364  16.064 -0.4956 -0.1363 -0.0351
18009TIP3    H175442   5.040   3.276  16.092  2.1025  0.6688  0.3366
18009TIP3    H275443   4.991   3.409  16.146 -2.5578 -0.6179 -0.2915
18010TIP3   OH275444   4.629   5.022  13.827  0.2479  0.0288 -0.2651
18010TIP3    H175445   4.568   5.033  13.900 -0.8334  1.9097 -1.3647
18010TIP3    H275446   4.713   5.053  13.861 -0.4151  1.6428  0.0073
18011TIP3   OH275447   1.569   0.968   1.467  0.3601  0.7899 -0.1127
18011TIP3    H175448   1.552   0.898   1.530  0.9569 -0.0514 -0.8741
18011TIP3    H275449   1.578   1.047   1.521 -0.4782  0.3205  0.7398
18012TIP3   OH275450   5.539   4.161  14.060 -0.7415 -0.0669 -0.3297
18012TIP3    H175451   5.621   4.208  14.043  0.5917 -2.2595 -0.3601
18012TIP3    H275452   5.475   4.203  14.003  0.4357  1.4572 -0.6046
18013TIP3   OH275453   1.084   4.464  11.233  0.4475  0.1270 -0.0514
18013TIP3    H175454   1.099   4.557  11.216  2.2251  0.0141  0.6089
18013TIP3    H275455   1.053   4.460  11.323  1.3007  0.0344  0.2466
18014TIP3   OH275456   6.720   2.261  11.229 -0.2157  0.0006  0.3333
18014TIP3    H175457   6.673   2.325  11.175  0.5164  1.6665  1.5890
18014TIP3    H275458   6.812   2.274  11.208 -0.1176 -2.1449 -0.9229
18015TIP3   OH275459   2.795   1.735   2.911  0.5482  0.1841  0.4907
18015TIP3    H175460   2.814   1.680   2.987  1.9839  0.2130  0.1678
18015TIP3    H275461   2.865   1.716   2.849 -1.9536 -1.8029 -1.9777
18016TIP3   OH275462   1.214   3.991   4.933 -0.0722  0.1941  0.2938
18016TIP3    H175463   1.189   3.990   5.026  1.2042  0.5311  0.6517
18016TIP3    H275464   1.276   3.919   4.924  1.7212  1.6617  0.2814
18017TIP3   OH275465   3.201   6.718  16.834  0.6589 -0.3805  0.0191
18017TIP3    H175466   3.274   6.657  16.832  0.2638 -0.8511 -1.3329
18017TIP3    H275467   3.179   6.732  16.742  0.7091  1.7897  0.2723
18018TIP3   OH275468   5.190   6.686   0.813 -0.1173  0.3093 -0.1878
18018TIP3    H175469   5.131   6.756   0.787 -0.3941 -0.0853 -0.6383
18018TIP3    H275470   5.221   6.648   0.731 -0.4811 -0.5217  0.0501
18019TIP3   OH275471   5.407   0.296  14.011 -0.0233  0.4111 -0.0166
18019TIP3    H175472   5.313   0.314  14.008  0.0061  0.5583 -0.0698
18019TIP3    H275473   5.448   0.383  14.011  0.1226  0.3430 -0.2956
18020TIP3   OH275474   5.541   2.859   1.663  0.6971 -1.0242  0.7156
18020TIP3    H175475   5.494   2.777   1.675 -1.1128 -0.7725 -3.3007
18020TIP3    H275476   5.478   2.927   1.686  0.9332 -0.7129  0.4500
18021TIP3   OH275477   3.488   5.162  15.889 -0.5260 -0.7473  0.6570
18021TIP3    H175478   3.510   5.162  15.796 -0.8590 -0.8241  0.5747
18021TIP3    H275479   3.468   5.070  15.909 -2.5008 -0.4551  0.2906
18022TIP3   OH275480   2.830   6.044  12.104 -0.3159 -0.2413 -0.3144
18022TIP3    H175481   2.855   6.045  12.012 -0.1540  2.7889 -0.3595
18022TIP3    H275482   2.737   6.024  12.104 -0.6603  1.1830 -1.3410
18023TIP3   OH275483   3.349   5.744   5.303  0.4741  0.1883  0.0336
18023TIP3    H175484   3.440   5.773   5.298  0.3794  0.3234 -2.3839
18023TIP3    H275485   3.320   5.743   5.212 -1.2157 -2.2106  0.5081
18024TIP3   OH275486   5.434   6.319   1.326  0.4795 -0.0214  0.4381
18024TIP3    H175487   5.363   6.382   1.341  0.1911 -0.2386  0.0323
18024TIP3    H275488   5.449   6.322   1.231 -0.4617 -1.5194  0.1944
18025TIP3   OH275489   0.124   0.170  13.206  0.4666  0.0783 -0.0743
18025TIP3    H175490   0.036   0.136  13.219 -0.2575  1.5328 -0.9223
18025TIP3    H275491   0.114   0.239  13.140  1.9471  1.4427  1.0349
18026TIP3   OH275492   1.247   5.001  16.172 -0.0945  0.1923 -0.1808
18026TIP3    H175493   1.157   5.034  16.175 -0.1167  1.5393 -5.2382
18026TIP3    H275494   1.294   5.051  16.238 -2.3197  2.4396 -0.1297
18027TIP3   OH275495   0.113   3.415   3.718  0.3812  0.4082 -0.6462
18027TIP3    H175496   0.098   3.321   3.706 -1.2265  0.5040  0.4219
18027TIP3    H275497   0.113   3.428   3.813 -1.8047  1.8226 -0.7819
18028TIP3   OH275498   0.946   2.776   0.538 -0.2497 -0.4117 -0.0311
18028TIP3    H175499   0.946   2.831   0.617  0.4421  0.4205 -0.5915
18028TIP3    H275500   0.970   2.689   0.570 -0.6894 -0.2493  0.7732
18029TIP3   OH275501   3.711   1.474   3.386 -0.3010  0.4030 -0.1340
18029TIP3    H175502   3.683   1.385   3.361 -1.6467 -0.0466  2.6036
18029TIP3    H275503   3.636   1.529   3.363 -0.2946  0.4918  0.0616
18030TIP3   OH275504   5.284   6.712   5.175  0.2201 -0.0869  0.3609
18030TIP3    H175505   5.367   6.668   5.159  0.8859  1.2727 -0.1586
18030TIP3    H275506   5.226   6.680   5.106  0.9715  0.5169 -0.5734
18031TIP3   OH275507   4.911   6.603   5.136 -0.6993 -0.0003 -0.3741
18031TIP3    H175508   4.838   6.542   5.123 -0.4995 -0.4182  0.3771
18031TIP3    H275509   4.880   6.686   5.099 -2.4928  0.4657  1.8784
18032TIP3   OH275510   6.202   2.531   2.965  0.9844  0.3433 -0.2779
18032TIP3    H175511   6.172   2.553   3.053  0.8892  1.0615 -0.4846
18032TIP3    H275512   6.168   2.442   2.950 -0.1260  0.7231 -0.0955
18033TIP3   OH275513   3.412   2.523   1.700 -0.1176  0.0533 -0.4939
18033TIP3    H175514   3.506   2.510   1.687  0.4154  0.1966  2.5750
18033TIP3    H275515   3.400   2.617   1.695  0.0086  0.0843 -0.1738
18034TIP3   OH275516   1.248   4.340  14.346 -0.3225  0.7694  0.2555
18034TIP3    H175517   1.216   4.334  14.435 -1.0638  1.5453  0.0585
18034TIP3    H275518   1.236   4.253  14.309  0.8458  0.2023  1.1832
18035TIP3   OH275519   2.880   1.136   0.198 -0.1477 -0.1939 -0.1254
18035TIP3    H175520   2.843   1.052   0.169 -0.7627  0.2029 -0.5022
18035TIP3    H275521   2.850   1.199   0.133  0.4965  0.2838  0.0363
18036TIP3   OH275522   0.558   0.190   0.156 -0.0755  0.1937 -0.4191
18036TIP3    H175523   0.553   0.099   0.187  1.9075  0.2599  0.2578
18036TIP3    H275524   0.503   0.239   0.217 -0.0694 -0.3674  0.0457
18037TIP3   OH275525   3.414   5.212  16.487  0.0905 -0.6079 -0.1553
18037TIP3    H175526   3.490   5.179  16.438 -0.2013 -1.2344 -0.1937
18037TIP3    H275527   3.379   5.134  16.531  0.0543 -0.1414  0.6513
18038TIP3   OH275528   3.285   6.173  13.913  0.1193  0.3983  0.0062
18038TIP3    H175529   3.314   6.226  13.839 -3.2484  2.9835  0.2757
18038TIP3    H275530   3.210   6.123  13.879 -0.5620  0.5072  1.2674
18039TIP3   OH275531   4.437   2.317   0.307 -0.2759 -0.3048  0.3099
18039TIP3    H175532   4.484   2.387   0.351 -0.4295  0.0372 -0.0585
18039TIP3    H275533   4.483   2.306   0.223  0.6134 -1.6055  0.9284
18040TIP3   OH275534   5.831   3.756  12.622  0.2877 -0.0096  0.0332
18040TIP3    H175535   5.868   3.674  12.589  0.8447  0.6424 -1.0591
18040TIP3    H275536   5.874   3.824  12.569  1.2220  1.1352  2.1279
18041TIP3   OH275537   2.581   1.709  15.763  0.5581  0.1272 -0.3064
18041TIP3    H175538   2.503   1.653  15.765  0.4961  0.2172  0.4720
18041TIP3    H275539   2.599   1.724  15.670 -1.3132  1.4252 -0.5304
18042TIP3   OH275540   6.720   6.188   0.894  0.1058  0.2636 -0.1687
18042TIP3    H175541   6.807   6.213   0.862  0.4424  1.6828  1.6609
18042TIP3    H275542   6.659   6.231   0.835  0.6930  4.3963  1.8557
18043TIP3   OH275543   0.144   6.400  15.102 -0.4943  0.3176  0.0363
18043TIP3    H175544   0.203   6.390  15.177 -0.9128 -0.3567  0.2840
18043TIP3    H275545   0.103   6.314  15.093 -2.1672  1.0480  0.4693
18044TIP3   OH275546   6.182   1.130   5.485 -0.2510 -0.5101 -0.1840
18044TIP3    H175547   6.097   1.173   5.491 -0.8782 -1.8066  0.6878
18044TIP3    H275548   6.241   1.188   5.533 -0.6648  0.3429 -0.6920
18045TIP3   OH275549   0.280   6.120   5.781  0.1704 -0.4944  0.6568
18045TIP3    H175550   0.192   6.105   5.815 -1.0988  0.9140 -1.7931
18045TIP3    H275551   0.282   6.073   5.698  1.7303 -0.4042  0.6157
18046TIP3   OH275552   0.938   5.227   1.550 -0.3818  0.2927  0.8865
18046TIP3    H175553   0.925   5.151   1.607 -3.1630 -1.0935 -1.3027
18046TIP3    H275554   0.870   5.289   1.577 -1.7535 -0.3935 -0.7973
18047TIP3   OH275555   3.937   4.727   3.585  0.0541 -0.3294 -0.1113
18047TIP3    H175556   4.003   4.710   3.652 -0.3493 -1.4245  0.0207
18047TIP3    H275557   3.922   4.642   3.544 -0.7199  0.0605 -0.6485
18048TIP3   OH275558   3.345   1.665   4.747  0.3562 -0.1206 -0.0100
18048TIP3    H175559   3.264   1.672   4.797  0.4553  2.3140 -0.0873
18048TIP3    H275560   3.325   1.702   4.661  1.0496 -1.2835 -0.7016
18049TIP3   OH275561   1.211   4.420   4.718  0.5091 -0.5190 -0.0530
18049TIP3    H175562   1.152   4.494   4.735 -0.5730 -1.2782 -0.3814
18049TIP3    H275563   1.166   4.344   4.755  1.2641 -1.1290 -0.3542
18050TIP3   OH275564   3.433   3.697   1.315  0.0342  0.0288 -0.1745
18050TIP3    H175565   3.523   3.713   1.287  0.6910 -0.7342  1.3782
18050TIP3    H275566   3.425   3.601   1.313 -0.1768  0.0005  1.3153
18051TIP3   OH275567   3.327   2.619  13.420 -0.5427  0.1233 -0.0696
18051TIP3    H175568   3.403   2.672  13.439 -0.4953 -0.1398  0.4796
18051TIP3    H275569   3.299   2.647  13.332  3.0687 -3.0658 -2.5717
18052TIP3   OH275570   6.194   6.548  11.451 -0.0706  0.1526  0.0952
18052TIP3    H175571   6.106   6.523  11.423 -0.8425  0.5115  2.0577
18052TIP3    H275572   6.244   6.556  11.369 -1.6758 -0.6628 -1.0130
18053TIP3   OH275573   0.008   3.945   2.317  0.1526  0.5177 -0.5086
18053TIP3    H175574  -0.065   3.886   2.298  1.5403 -1.2944 -0.4897
18053TIP3    H275575   0.071   3.928   2.247  0.2949  2.5724 -0.9394
18054TIP3   OH275576   2.968   4.192  14.261  0.9831  0.4050  0.3945
18054TIP3    H175577   2.898   4.143  14.305 -0.7245  1.0383 -1.4668
18054TIP3    H275578   3.000   4.132  14.193  1.2619  0.6443  0.3131
18055TIP3   OH275579   5.863   4.940  14.573  0.2452  0.0232  0.0717
18055TIP3    H175580   5.820   4.994  14.639  1.0083  0.4052  0.2629
18055TIP3    H275581   5.791   4.895  14.529 -0.3862  1.0392  0.0326
18056TIP3   OH275582   3.129   3.369   5.433  0.2700 -0.5267 -0.0105
18056TIP3    H175583   3.044   3.325   5.430  0.4476 -0.9325  0.7197
18056TIP3    H275584   3.145   3.384   5.526  1.7868 -1.9975  0.0114
18057TIP3   OH275585   4.500   5.965  13.758  0.3328  0.4150  0.0342
18057TIP3    H175586   4.448   6.043  13.739  1.6677  1.1549 -0.7082
18057TIP3    H275587   4.436   5.899  13.785 -0.9925  1.2811 -0.8958
18058TIP3   OH275588   1.546   4.325   1.058 -0.2239 -0.2136 -0.2234
18058TIP3    H175589   1.468   4.276   1.034 -0.0955 -0.9493  0.7820
18058TIP3    H275590   1.571   4.290   1.144 -0.0883  1.5818  0.5028
18059TIP3   OH275591   2.273   1.315  15.790 -0.7386  0.7174 -0.3067
18059TIP3    H175592   2.369   1.320  15.797 -0.9456  2.6736  2.8884
18059TIP3    H275593   2.256   1.223  15.768  1.8259  0.2432 -0.6590
18060TIP3   OH275594   6.134   2.102  14.966 -0.4321 -0.2296  0.0952
18060TIP3    H175595   6.073   2.118  15.037  0.0004  0.1548  0.3846
18060TIP3    H275596   6.194   2.177  14.967  0.1565 -0.6809 -0.0643
18061TIP3   OH275597   0.103   2.141  12.765 -0.3267  0.0044  0.0203
18061TIP3    H175598   0.025   2.156  12.712  0.2935  0.9381 -0.6513
18061TIP3    H275599   0.081   2.064  12.818 -1.9449  0.6375  0.3288
18062TIP3   OH275600   5.598   3.289   1.515 -0.3129  0.6874 -0.3994
18062TIP3    H175601   5.513   3.248   1.531 -0.0237 -0.2505 -1.1080
18062TIP3    H275602   5.637   3.300   1.602 -1.7270  2.4693  0.0504
18063TIP3   OH275603   3.091   6.245  13.460  0.2382  0.3852  0.0584
18063TIP3    H175604   3.103   6.153  13.436  0.0239  0.4935 -0.4762
18063TIP3    H275605   3.178   6.284  13.449  0.2880  0.2865  0.1016
18064TIP3   OH275606   5.669   1.298   2.239 -0.1165 -0.0891  0.1398
18064TIP3    H175607   5.579   1.278   2.212 -0.3669  0.0584  0.8561
18064TIP3    H275608   5.664   1.384   2.279  0.7543  0.9547 -1.8208
18065TIP3   OH275609   3.933   0.678  16.388 -0.0251  0.3287 -0.2192
18065TIP3    H175610   4.006   0.676  16.451 -2.3155  0.6069  2.6915
18065TIP3    H275611   3.946   0.600  16.334  1.7146 -0.3607  1.0937
18066TIP3   OH275612   3.120   6.247  12.515  0.0753  0.6891  0.0002
18066TIP3    H175613   3.097   6.252  12.608  0.4544 -2.3538  0.3582
18066TIP3    H275614   3.214   6.261  12.512 -0.0726  1.7173 -0.0607
18067TIP3   OH275615   0.678   5.321   1.632 -0.0488  0.4464 -0.5093
18067TIP3    H175616   0.673   5.414   1.652  0.9592  0.9203 -2.2004
18067TIP3    H275617   0.587   5.293   1.624 -0.3582  1.3426 -0.2180
18068TIP3   OH275618   6.145   5.389   4.158  0.4119  0.7582  0.1120
18068TIP3    H175619   6.074   5.411   4.098  0.9832  2.9872  0.1589
18068TIP3    H275620   6.208   5.340   4.105 -1.3054 -1.6826  0.1914
18069TIP3   OH275621   0.471   5.484  14.726  0.0770  0.3705  0.3701
18069TIP3    H175622   0.491   5.395  14.755 -0.0639 -0.3978 -1.7099
18069TIP3    H275623   0.432   5.526  14.802  0.4472 -1.2358  1.5009
18070TIP3   OH275624   3.387   3.210  12.924 -0.7818  0.1199 -0.1071
18070TIP3    H175625   3.437   3.130  12.908 -0.6510  0.1286  0.2400
18070TIP3    H275626   3.428   3.248  13.002 -1.9021 -0.3346  0.7140
18071TIP3   OH275627   0.051   0.336  12.647 -0.6585 -0.2338 -0.5776
18071TIP3    H175628  -0.022   0.389  12.616 -0.9162  0.9822  1.8963
18071TIP3    H275629   0.012   0.274  12.709  0.4008  0.6938  1.0787
18072TIP3   OH275630   5.120   2.980  14.586 -0.3300 -0.2058  0.2154
18072TIP3    H175631   5.150   3.070  14.603  2.1619 -0.8592 -0.2449
18072TIP3    H275632   5.079   2.953  14.668 -0.3244  1.0467  0.6599
18073TIP3   OH275633   2.783   2.323  11.834 -0.2637  0.0820  0.3032
18073TIP3    H175634   2.735   2.342  11.754  0.0697  0.1755  0.1251
18073TIP3    H275635   2.871   2.302  11.805 -0.5109 -1.3795  0.5170
18074TIP3   OH275636   4.818   6.621  14.008  0.2751  0.2402 -0.0924
18074TIP3    H175637   4.819   6.643  14.102 -1.2741  0.9801 -0.2284
18074TIP3    H275638   4.740   6.568  13.996  0.0664  0.7535 -1.0937
18075TIP3   OH275639   2.324   6.122   2.705 -0.3618 -0.5289 -0.2157
18075TIP3    H175640   2.243   6.143   2.751 -0.8213  0.0053 -1.2393
18075TIP3    H275641   2.382   6.196   2.722 -0.5423 -0.3175 -0.5095
18076TIP3   OH275642   2.471   1.628  13.548 -0.0254  0.2309 -0.2146
18076TIP3    H175643   2.472   1.656  13.457 -0.0687 -0.6649 -0.4904
18076TIP3    H275644   2.554   1.583  13.560  1.0664  2.3467  0.8407
18077TIP3   OH275645   1.232   3.591   0.688  0.4306  0.0157 -0.0153
18077TIP3    H175646   1.291   3.578   0.615 -0.6520  1.0302 -1.1233
18077TIP3    H275647   1.151   3.625   0.649 -0.9911 -1.5266  1.4094
18078TIP3   OH275648   0.814   6.109  13.013  0.0160 -0.1010 -0.4833
18078TIP3    H175649   0.834   6.034  13.069  0.2306  0.3925  0.1269
18078TIP3    H275650   0.829   6.185  13.070 -1.6975  0.3725 -0.6022
18079TIP3   OH275651   4.205   5.927  15.380  0.8337 -0.5903 -0.5688
18079TIP3    H175652   4.195   6.017  15.410 -1.7010  0.1763 -3.2753
18079TIP3    H275653   4.297   5.905  15.399  0.7663  1.3973  2.8885
18080TIP3   OH275654   6.439   6.201  15.544  0.3536  0.6990  0.1293
18080TIP3    H175655   6.362   6.241  15.584 -2.1776 -0.4366 -3.1046
18080TIP3    H275656   6.442   6.112  15.580 -1.2962  0.0139 -1.2787
18081TIP3   OH275657   1.833   5.385   2.442 -0.7055  0.6338 -0.4915
18081TIP3    H175658   1.877   5.431   2.371  0.0505 -0.1785 -0.5690
18081TIP3    H275659   1.760   5.339   2.400 -0.7647  0.8324 -0.6051
18082TIP3   OH275660   2.290   3.445  13.444  0.5148  0.5455 -0.2106
18082TIP3    H175661   2.301   3.366  13.497  0.9597  1.0770  0.5116
18082TIP3    H275662   2.328   3.422  13.359  2.4482  0.5825  0.5848
18083TIP3   OH275663   0.516   2.533  11.262 -0.2244 -0.4648  0.6364
18083TIP3    H175664   0.562   2.537  11.178 -1.6656 -1.3214 -0.2322
18083TIP3    H275665   0.436   2.582  11.248  0.6820  1.6870  2.3719
18084TIP3   OH275666   2.623   4.878   1.388  0.2094  0.7866  0.2755
18084TIP3    H175667   2.545   4.909   1.341  0.3609 -0.2488 -0.6896
18084TIP3    H275668   2.591   4.860   1.477 -0.5360  0.8596  0.0291
18085TIP3   OH275669   6.224   2.300   4.963 -0.0662 -0.1682 -0.4968
18085TIP3    H175670   6.228   2.251   4.881  0.3122  0.8866 -1.1243
18085TIP3    H275671   6.298   2.360   4.959  0.0729 -0.2220  0.7106
18086TIP3   OH275672   2.365   1.927  11.412 -0.7777  0.0531 -0.5721
18086TIP3    H175673   2.434   1.980  11.373 -2.0778  0.7121 -2.1390
18086TIP3    H275674   2.355   1.853  11.352  0.8345 -1.9587  1.4443
18087TIP3   OH275675   2.424   0.161   3.598  0.0143 -0.1345  0.4494
18087TIP3    H175676   2.380   0.170   3.682 -0.6145 -2.5258  0.4481
18087TIP3    H275677   2.353   0.157   3.534  0.4084  0.0511 -0.0029
18088TIP3   OH275678   1.211   6.010  14.254 -0.8246  0.4741  0.4050
18088TIP3    H175679   1.289   6.064  14.265 -1.4999  1.9011 -1.3201
18088TIP3    H275680   1.145   6.070  14.217 -1.7168 -1.4073 -1.2666
18089TIP3   OH275681   0.364   4.454   2.038  0.1026 -0.2377 -0.2935
18089TIP3    H175682   0.318   4.537   2.052  1.6864  0.4444  1.4614
18089TIP3    H275683   0.407   4.464   1.953  0.0659  0.6635 -0.2194
18090TIP3   OH275684   2.046   2.182  14.418  0.4830  0.2649  0.2771
18090TIP3    H175685   1.974   2.213  14.473 -1.8705 -0.9986 -1.8934
18090TIP3    H275686   2.062   2.092  14.447  1.1033  0.4863  0.6417
18091TIP3   OH275687   0.125   5.466  16.955  0.0112  0.4277  0.0663
18091TIP3    H175688   0.066   5.429  16.889  0.1826 -1.8191  1.0841
18091TIP3    H275689   0.117   5.408  17.030  0.5729  2.3429  1.7092
18092TIP3   OH275690   2.267   4.185  14.810  0.4830 -0.1978  0.4038
18092TIP3    H175691   2.281   4.266  14.859 -0.0210 -0.1290  0.4403
18092TIP3    H275692   2.294   4.115  14.871 -0.9575 -0.1660  1.1351
18093TIP3   OH275693   0.308   4.026   3.123 -0.0147  0.4924  0.0101
18093TIP3    H175694   0.301   3.930   3.127 -0.5433  0.5620  0.7686
18093TIP3    H275695   0.222   4.055   3.095  0.0817  0.7701  0.0050
18094TIP3   OH275696   1.621   1.166   3.781 -0.3201 -0.4241  0.0131
18094TIP3    H175697   1.681   1.224   3.733  0.2324 -1.9968 -1.2602
18094TIP3    H275698   1.544   1.158   3.725 -1.2552  0.5910  1.0843
18095TIP3   OH275699   2.872   2.962  13.491  0.1330  0.4749  0.4730
18095TIP3    H175700   2.779   2.943  13.495  0.1502  0.1080 -0.4933
18095TIP3    H275701   2.879   3.038  13.433  0.4549  0.2252  0.1739
18096TIP3   OH275702   3.516   6.520   2.619  0.0316 -0.1169 -0.3077
18096TIP3    H175703   3.595   6.487   2.662 -0.8670 -1.2082  0.5734
18096TIP3    H275704   3.523   6.615   2.625  0.4613 -0.2148  1.3275
18097TIP3   OH275705   2.099   5.839  13.361 -0.3537 -1.1134  0.0245
18097TIP3    H175706   2.022   5.784  13.346 -1.4298  0.3849 -0.2328
18097TIP3    H275707   2.108   5.841  13.456 -2.2652  0.7186  0.2576
18098TIP3   OH275708   4.563   4.565   1.393 -0.2683 -0.0722 -0.0828
18098TIP3    H175709   4.644   4.568   1.444 -1.0225 -1.2804  1.2778
18098TIP3    H275710   4.569   4.483   1.344 -0.2836  0.2733 -0.6655
18099TIP3   OH275711   3.665   2.123  16.070  0.1469 -0.0565  0.1611
18099TIP3    H175712   3.715   2.098  15.992 -0.5197  1.5292 -0.8148
18099TIP3    H275713   3.726   2.111  16.143  1.5257  0.6162 -0.8580
18100TIP3   OH275714   1.834   3.181  15.978 -0.4626 -0.0801 -0.1447
18100TIP3    H175715   1.875   3.236  15.912 -1.0259  1.2885  0.5916
18100TIP3    H275716   1.895   3.109  15.991  0.7873  0.8833 -0.4517
18101TIP3   OH275717   1.588   3.868   0.748 -0.4432  0.5657  0.3926
18101TIP3    H175718   1.645   3.801   0.784  2.5732  1.4578 -2.2324
18101TIP3    H275719   1.583   3.935   0.816 -0.5544 -0.7047  1.6719
18102TIP3   OH275720   6.074   0.077  14.290 -0.2105  0.1901  1.2455
18102TIP3    H175721   6.000   0.125  14.252 -1.0124 -0.5649  1.8286
18102TIP3    H275722   6.049   0.062  14.381 -0.0261 -1.4251  1.0544
18103TIP3   OH275723   2.405   6.218   4.707  0.2905  0.2087 -0.2023
18103TIP3    H175724   2.403   6.151   4.776  0.5698  0.2021 -0.1989
18103TIP3    H275725   2.379   6.172   4.628 -0.1618  0.2454 -0.0756
18104TIP3   OH275726   1.087   0.921  15.471 -0.5780 -0.4673 -0.0806
18104TIP3    H175727   1.062   0.882  15.387 -0.4040  1.3700 -1.0487
18104TIP3    H275728   1.006   0.921  15.523 -1.3813  0.7423 -1.2551
18105TIP3   OH275729   5.359   1.633  16.701  0.1988 -0.2463 -0.1823
18105TIP3    H175730   5.431   1.570  16.693 -0.8680 -1.4605 -0.5413
18105TIP3    H275731   5.287   1.582  16.738 -0.2998  1.1073  0.8163
18106TIP3   OH275732   2.825   6.377   0.123  0.8772  0.3619 -0.1651
18106TIP3    H175733   2.769   6.422   0.186  2.9969  1.1348  1.2834
18106TIP3    H275734   2.776   6.298   0.099  0.3116 -0.4141  3.1190
18107TIP3   OH275735   5.232   1.483  10.614 -0.6238  0.5880 -0.0114
18107TIP3    H175736   5.208   1.575  10.626 -1.2419  0.4613 -0.2256
18107TIP3    H275737   5.215   1.466  10.521  1.2279  0.7477 -0.4149
18108TIP3   OH275738   1.112   3.749  14.378  0.1303  0.2474  0.2841
18108TIP3    H175739   1.197   3.786  14.404  0.7828 -1.7908  1.3204
18108TIP3    H275740   1.056   3.761  14.455  0.4386 -1.0866  0.7427
18109TIP3   OH275741   4.163   6.298   5.403  0.1994 -0.1368 -0.3644
18109TIP3    H175742   4.183   6.385   5.438  0.9938  0.2947 -1.8176
18109TIP3    H275743   4.247   6.264   5.373 -0.3169 -0.8336 -1.0589
18110TIP3   OH275744   1.740   3.721   4.662  0.2864  0.2649 -0.2585
18110TIP3    H175745   1.777   3.635   4.680  1.6128  0.6975 -0.7633
18110TIP3    H275746   1.770   3.742   4.573  0.3239  1.4079  0.0093
18111TIP3   OH275747   3.663   2.874   6.510  0.3428  0.6717  0.0317
18111TIP3    H175748   3.743   2.830   6.539 -1.1027 -2.3958 -0.2347
18111TIP3    H275749   3.653   2.848   6.419 -0.6515  1.5189 -0.1188
18112TIP3   OH275750   5.718   5.014  17.085 -0.3488  0.2017 -0.0353
18112TIP3    H175751   5.759   5.096  17.114  0.5419 -0.2272 -0.0513
18112TIP3    H275752   5.674   5.037  17.003 -0.5685  0.7818  0.2339
18113TIP3   OH275753   3.263   5.659   5.046 -0.0449  0.0394  0.0111
18113TIP3    H175754   3.331   5.593   5.033  0.0657 -0.0658  1.0261
18113TIP3    H275755   3.193   5.633   4.986  0.3132 -0.5509 -0.1618
18114TIP3   OH275756   4.607   5.984  12.936 -0.1224  0.0943 -0.1915
18114TIP3    H175757   4.518   5.961  12.908 -1.3809  2.6254  1.3683
18114TIP3    H275758   4.616   5.945  13.023  0.0111  0.4201 -0.0558
18115TIP3   OH275759   1.233   3.288  16.586 -0.0732 -0.2904  0.3612
18115TIP3    H175760   1.171   3.359  16.575 -0.4317 -0.6074  0.3172
18115TIP3    H275761   1.214   3.228  16.514 -1.4422 -1.6634  1.7846
18116TIP3   OH275762   6.583   5.692  14.390  0.6250  0.6184 -0.0886
18116TIP3    H175763   6.647   5.636  14.433  0.8210  1.6409  1.0020
18116TIP3    H275764   6.576   5.769  14.447 -1.1401  0.7933 -0.4836
18117TIP3   OH275765   3.571   5.649  16.977 -0.3386 -0.0361  0.0042
18117TIP3    H175766   3.488   5.610  16.949  0.9110 -3.5791  0.6457
18117TIP3    H275767   3.580   5.623  17.069  0.9482  1.2864  0.2866
18118TIP3   OH275768   4.957   1.871  16.583  0.5062 -0.1953 -0.9123
18118TIP3    H175769   4.944   1.965  16.589  2.4101  0.0894 -0.5381
18118TIP3    H275770   5.031   1.861  16.524 -1.3611 -1.6398 -3.1810
18119TIP3   OH275771   2.654   3.018  16.290  0.6747  0.1061  0.2240
18119TIP3    H175772   2.727   3.079  16.282  0.7351  0.1590  1.0477
18119TIP3    H275773   2.681   2.958  16.360 -1.0848  1.6447  2.3759
18120TIP3   OH275774   1.864   5.297   3.118 -0.1145  0.7467  0.7237
18120TIP3    H175775   1.770   5.281   3.107  0.4958 -1.5400 -2.7518
18120TIP3    H275776   1.873   5.392   3.112 -2.0706  0.8897 -1.1426
18121TIP3   OH275777   6.580   4.630   2.755 -0.3053  0.2704  0.2514
18121TIP3    H175778   6.538   4.714   2.734  1.5509  1.0753 -0.4746
18121TIP3    H275779   6.645   4.652   2.822  0.4769 -0.5176 -0.2349
18122TIP3   OH275780   2.537   5.474   4.243  0.0273 -0.5623  0.0900
18122TIP3    H175781   2.450   5.477   4.201 -0.1127 -2.3004  0.1750
18122TIP3    H275782   2.562   5.382   4.238  1.8022 -0.1148  0.2443
18123TIP3   OH275783   2.387   5.876   0.349  0.1801 -0.4330  0.2414
18123TIP3    H175784   2.443   5.953   0.361 -0.6118  0.6274 -2.2594
18123TIP3    H275785   2.306   5.899   0.395  0.3527 -0.2804  0.4770
18124TIP3   OH275786   2.235   4.713   1.679 -0.5292  0.4629 -0.2399
18124TIP3    H175787   2.225   4.705   1.773  1.4734  0.7668  0.0401
18124TIP3    H275788   2.328   4.732   1.666 -0.5647 -0.5346 -2.3426
18125TIP3   OH275789   3.071   5.641  12.235  0.2188 -0.2684  0.0604
18125TIP3    H175790   3.152   5.618  12.188 -0.1161  0.5290 -0.9521
18125TIP3    H275791   3.002   5.626  12.171 -0.0081  3.8139 -0.8977
18126TIP3   OH275792   1.381   2.104  13.261 -0.5817 -0.7752  0.3179
18126TIP3    H175793   1.400   2.086  13.169 -1.6958 -1.7389  0.2507
18126TIP3    H275794   1.362   2.198  13.264  0.4449 -0.5410 -0.2486
18127TIP3   OH275795   5.590   6.249  10.386 -0.1890 -0.3080  0.3983
18127TIP3    H175796   5.668   6.275  10.336 -1.5746  1.4866 -0.9819
18127TIP3    H275797   5.566   6.327  10.435 -1.3280 -0.7170  0.5211
18128TIP3   OH275798   0.476   4.211   4.399 -0.3559 -0.1320 -0.0029
18128TIP3    H175799   0.463   4.295   4.354  1.6297  0.4118  0.3546
18128TIP3    H275800   0.410   4.211   4.469 -2.3079 -0.2009 -1.7257
18129TIP3   OH275801   3.411   6.275  15.831 -0.4839  0.6703 -0.2749
18129TIP3    H175802   3.343   6.224  15.875 -0.7533  1.1834 -0.0872
18129TIP3    H275803   3.470   6.209  15.794  1.1233  0.1042  2.8559
18130TIP3   OH275804   3.730   2.471   3.780 -0.4839 -0.1653  0.4517
18130TIP3    H175805   3.701   2.547   3.730  1.0083  1.0445  1.3271
18130TIP3    H275806   3.666   2.403   3.761 -1.9645  1.3671 -0.2311
18131TIP3   OH275807   5.960   1.809   4.287 -0.2880  0.5981 -0.2047
18131TIP3    H175808   5.946   1.744   4.218  2.2814 -0.2296 -0.0190
18131TIP3    H275809   5.888   1.872   4.274 -2.6497 -1.9884 -0.6317
18132TIP3   OH275810   6.593   6.161   5.346  0.1767 -0.0434 -0.1500
18132TIP3    H175811   6.583   6.166   5.251 -0.4174 -0.1988 -0.1038
18132TIP3    H275812   6.517   6.111   5.375  1.8435 -2.5653  0.1431
18133TIP3   OH275813   3.665   3.787  17.172  0.4521  0.0625 -0.4870
18133TIP3    H175814   3.664   3.874  17.131 -2.0306 -0.6915 -2.2807
18133TIP3    H275815   3.728   3.737  17.121  0.7481  0.3776 -0.4354
18134TIP3   OH275816   5.341   5.280  16.251 -0.0276 -0.5570 -0.5188
18134TIP3    H175817   5.387   5.293  16.334 -1.2946 -0.4219  0.1867
18134TIP3    H275818   5.369   5.193  16.221  0.6442 -0.4916 -0.0921
18135TIP3   OH275819   6.357   1.213  12.811  0.3861  0.0718  0.4716
18135TIP3    H175820   6.266   1.223  12.837  0.8666 -0.4078  2.4622
18135TIP3    H275821   6.375   1.120  12.821  1.0780  0.1447 -0.0044
18136TIP3   OH275822   1.496   0.674  16.131  0.0646 -0.3600 -0.0131
18136TIP3    H175823   1.474   0.749  16.076 -0.7646 -1.4957 -1.3064
18136TIP3    H275824   1.420   0.662  16.187  0.5126  0.2114  0.7310
18137TIP3   OH275825   4.675   5.031   0.706  0.1515  0.4110 -0.4273
18137TIP3    H175826   4.668   5.126   0.706 -1.3883  0.5253  3.7373
18137TIP3    H275827   4.752   5.013   0.760 -1.5913 -0.5323  1.9191
18138TIP3   OH275828   2.148   3.177   2.054 -0.2174  0.6730 -0.2669
18138TIP3    H175829   2.100   3.258   2.071 -0.6064  0.4988 -0.5271
18138TIP3    H275830   2.147   3.167   1.959 -1.3962 -0.3617 -0.1698
18139TIP3   OH275831   0.516   1.731   5.286  0.5136 -0.1741  0.9745
18139TIP3    H175832   0.539   1.801   5.225 -1.5744  2.1526  2.6572
18139TIP3    H275833   0.430   1.701   5.257  0.7426 -1.0126  1.1432
18140TIP3   OH275834   2.519   3.518   3.548 -0.1697  0.4351 -0.0973
18140TIP3    H175835   2.488   3.449   3.488  0.0306  0.2837 -0.0277
18140TIP3    H275836   2.551   3.470   3.625 -2.0151  0.7005  0.8835
18141TIP3   OH275837   6.235   0.148   4.048  0.0649  0.4018 -0.2504
18141TIP3    H175838   6.196   0.066   4.020 -1.0235  0.6991  0.3550
18141TIP3    H275839   6.236   0.143   4.143 -3.0948  2.3919  0.0291
18142TIP3   OH275840   2.217   4.577  16.873  0.2279  1.0839  0.5045
18142TIP3    H175841   2.225   4.531  16.956 -1.0700  1.3887  0.8151
18142TIP3    H275842   2.133   4.622  16.878 -0.2517  0.4561 -1.2977
18143TIP3   OH275843   1.359   0.039  13.261 -0.0831 -0.5445 -0.4837
18143TIP3    H175844   1.291   0.042  13.193 -1.5523 -1.2789  0.9086
18143TIP3    H275845   1.384  -0.053  13.266  0.8491 -0.3259 -0.7702
18144TIP3   OH275846   6.149   2.486  13.189 -0.1836  0.1735  0.0254
18144TIP3    H175847   6.141   2.579  13.212 -1.2144 -0.2730  1.6445
18144TIP3    H275848   6.195   2.447  13.263 -1.7188 -0.9766  0.4206
18145TIP3   OH275849   5.168   6.068   5.406  0.3237  0.2819  0.3686
18145TIP3    H175850   5.251   6.025   5.425  1.1932  0.4852 -2.5389
18145TIP3    H275851   5.189   6.132   5.338 -1.8674  1.7733  0.9864
18146TIP3   OH275852   0.566   4.864   5.383 -0.2660  0.0799  0.0237
18146TIP3    H175853   0.524   4.877   5.468 -0.6523  2.3552 -0.4499
18146TIP3    H275854   0.601   4.951   5.360 -0.1639 -0.4787 -2.1285
18147TIP3   OH275855   6.753   5.833   2.918 -0.2043  0.2173  0.3991
18147TIP3    H175856   6.825   5.878   2.873  0.6037 -2.3067 -1.0142
18147TIP3    H275857   6.794   5.797   2.997 -0.0851 -0.5171  0.0129
18148TIP3   OH275858   5.699   5.379  15.558  0.2441 -0.1626 -0.3246
18148TIP3    H175859   5.701   5.286  15.581 -1.2183 -0.1802 -0.1805
18148TIP3    H275860   5.719   5.381  15.464  1.6673 -0.4896 -0.0421
18149TIP3   OH275861   0.959   2.229  11.495  0.4678  0.3020 -0.0247
18149TIP3    H175862   1.030   2.290  11.517  1.0974 -1.0142  1.9051
18149TIP3    H275863   1.002   2.161  11.442  0.4290  0.0156  0.3114
18150TIP3   OH275864   1.910   0.223  12.103  0.2673  0.7342  0.1608
18150TIP3    H175865   1.853   0.223  12.026 -2.2283 -0.3617  1.8728
18150TIP3    H275866   1.912   0.315  12.131  2.5544  1.4569 -2.0213
18151TIP3   OH275867   5.638   6.298  16.597  0.2339 -0.1693  0.4440
18151TIP3    H175868   5.611   6.217  16.640 -1.4698  0.5079  0.7282
18151TIP3    H275869   5.569   6.315  16.533 -0.3859  1.9471  1.5914
18152TIP3   OH275870   4.467   1.486  14.130 -0.1134 -0.7902 -0.3699
18152TIP3    H175871   4.535   1.553  14.134 -0.8004 -0.0109 -1.3432
18152TIP3    H275872   4.457   1.467  14.037 -3.5059  1.5565 -0.6695
18153TIP3   OH275873   6.072   3.576   0.279  0.1536 -0.1566  0.0705
18153TIP3    H175874   6.034   3.575   0.366  0.6920 -0.0731  0.3069
18153TIP3    H275875   6.026   3.506   0.232 -2.3777  1.7804 -0.5668
18154TIP3   OH275876   4.492   3.716  11.329  0.7871 -0.1106 -0.1217
18154TIP3    H175877   4.532   3.742  11.412 -0.0690  1.8414 -0.2629
18154TIP3    H275878   4.510   3.622  11.322 -0.5855 -0.7678  3.1292
18155TIP3   OH275879   3.928   4.310   0.012  0.3935 -0.0756 -0.2027
18155TIP3    H175880   3.965   4.228   0.044  0.1154  0.1249  0.6619
18155TIP3    H275881   3.996   4.376   0.030  0.2885  0.0162 -0.1369
18156TIP3   OH275882   3.066   1.695  14.005  0.0538  0.0679 -0.2576
18156TIP3    H175883   3.030   1.781  14.025 -1.2262 -0.6147  0.5130
18156TIP3    H275884   3.084   1.656  14.090 -0.8916 -1.0193 -0.5153
18157TIP3   OH275885   3.152   6.685   5.865 -0.3211  0.1839 -0.4701
18157TIP3    H175886   3.108   6.619   5.919  1.6412 -0.6195  0.2759
18157TIP3    H275887   3.168   6.642   5.781  1.3947 -0.5550  0.1781
18158TIP3   OH275888   2.316   1.075   6.325 -0.3421 -0.1310  0.5910
18158TIP3    H175889   2.224   1.046   6.324 -0.5367  0.0788 -3.5479
18158TIP3    H275890   2.366   0.995   6.345 -1.3402 -0.8493  0.3194
18159TIP3   OH275891   2.582   1.021   2.518 -0.7160  0.5931  0.3829
18159TIP3    H175892   2.510   1.085   2.517 -1.5947 -0.3803  0.4570
18159TIP3    H275893   2.578   0.982   2.605 -0.8954 -0.3595 -0.0494
18160TIP3   OH275894   2.870   4.532  13.699  0.1144 -0.2780  0.1955
18160TIP3    H175895   2.891   4.440  13.682  2.2773  0.2734 -0.3890
18160TIP3    H275896   2.790   4.529  13.752 -0.2550 -2.4544 -0.4079
18161TIP3   OH275897   2.920   3.075  11.894 -0.3255  0.1830 -0.3582
18161TIP3    H175898   2.924   3.163  11.858 -1.1494  0.0266 -0.8545
18161TIP3    H275899   2.844   3.075  11.952  0.1447  0.0232  0.2668
18162TIP3   OH275900   1.358   3.662  11.892  0.2062 -0.1083  0.3579
18162TIP3    H175901   1.274   3.704  11.908 -0.4589 -0.7840 -1.1559
18162TIP3    H275902   1.406   3.671  11.975 -0.9359  1.2105  0.9072
18163TIP3   OH275903   5.701   3.490   1.887 -0.0876 -0.4284  0.1779
18163TIP3    H175904   5.620   3.539   1.902  0.4003  0.7139 -0.7556
18163TIP3    H275905   5.726   3.458   1.974 -0.8153  0.3744  0.6986
18164TIP3   OH275906   0.271   0.486  14.327 -0.3309 -0.2245  0.1472
18164TIP3    H175907   0.286   0.579  14.347  0.6790  0.2579 -2.4594
18164TIP3    H275908   0.285   0.441  14.410 -0.0711  1.8664  1.3126
18165TIP3   OH275909   5.981   0.502   4.161 -0.0050 -0.3483 -0.0105
18165TIP3    H175910   5.894   0.473   4.190 -0.1545 -0.6389 -0.7133
18165TIP3    H275911   6.030   0.516   4.241 -0.8981  0.4127  0.4223
18166TIP3   OH275912   1.562   6.271   3.785  0.1390 -0.0425 -0.6457
18166TIP3    H175913   1.509   6.350   3.779 -0.1022 -0.0762  0.6249
18166TIP3    H275914   1.538   6.232   3.870  2.5232  0.2077  0.2288
18167TIP3   OH275915   4.679   2.880   1.771 -0.0169 -0.4316  0.4260
18167TIP3    H175916   4.597   2.857   1.728 -0.1157  0.1086  0.3064
18167TIP3    H275917   4.723   2.797   1.786  0.3819 -0.5943 -1.4415
18168TIP3   OH275918   1.914   4.820   3.133 -0.4575  0.1488  0.5224
18168TIP3    H175919   1.831   4.864   3.112 -0.4495 -0.3925 -0.7438
18168TIP3    H275920   1.953   4.802   3.048 -0.4234 -2.2416  0.9769
18169TIP3   OH275921   5.737   0.006  11.366 -0.5642 -0.3676 -0.6359
18169TIP3    H175922   5.669   0.056  11.413  0.6369 -0.1957  1.0020
18169TIP3    H275923   5.804   0.071  11.345  0.4535 -1.0160  0.4360
18170TIP3   OH275924   3.351   3.277   0.789 -0.4713 -0.0578 -0.2752
18170TIP3    H175925   3.430   3.240   0.829 -1.1764 -0.9676  0.3220
18170TIP3    H275926   3.282   3.214   0.810 -1.9507  2.0061  1.6416
18171TIP3   OH275927   5.983   1.755  16.362  0.0255  0.5276  0.0525
18171TIP3    H175928   6.066   1.707  16.361 -0.7454 -0.8312 -0.4928
18171TIP3    H275929   6.009   1.846  16.381  1.6030  0.0909  0.1643
18172TIP3   OH275930   3.043   2.003   1.462  0.2815  0.0258 -0.0867
18172TIP3    H175931   3.083   1.969   1.542 -0.1401 -0.3227 -0.0189
18172TIP3    H275932   3.104   2.070   1.431  1.3422 -1.0480 -0.4301
18173TIP3   OH275933   4.518   5.840   0.009  0.3091  0.1264  0.5160
18173TIP3    H175934   4.430   5.861  -0.020  0.7451 -1.8189 -2.7905
18173TIP3    H275935   4.562   5.924   0.016 -1.3239  1.0273  0.4862
18174TIP3   OH275936   3.525   5.928   1.624 -0.2771 -0.6223  0.1929
18174TIP3    H175937   3.535   5.936   1.719  1.5328 -2.4006  0.2405
18174TIP3    H275938   3.550   5.837   1.606 -1.0893 -0.4641 -1.9351
18175TIP3   OH275939   4.936   5.930  13.040 -0.8753 -0.2999 -0.2919
18175TIP3    H175940   5.017   5.891  13.007 -0.8482 -1.6143  1.2114
18175TIP3    H275941   4.904   5.984  12.968  0.1948 -1.4718 -1.6937
18176TIP3   OH275942   4.184   4.193  15.676 -0.2696  0.0104  0.3002
18176TIP3    H175943   4.251   4.137  15.716  0.8421  0.9222 -0.2157
18176TIP3    H275944   4.111   4.191  15.737  0.1290 -1.2045  0.7665
18177TIP3   OH275945   6.281   2.525  11.852  0.6010 -0.0104  0.0866
18177TIP3    H175946   6.242   2.438  11.842  1.1827 -0.4150  1.1591
18177TIP3    H275947   6.372   2.508  11.878  1.0062  0.9187 -0.6669
18178TIP3   OH275948   2.840   6.481   1.132  0.2848  0.3998 -0.1033
18178TIP3    H175949   2.755   6.455   1.095  0.4953 -0.0261 -0.3019
18178TIP3    H275950   2.874   6.400   1.170  1.6932 -0.0563 -2.1468
18179TIP3   OH275951   5.053   3.436   2.343  0.6139 -0.1746  1.0881
18179TIP3    H175952   5.127   3.430   2.403  0.7214 -0.7631  0.9033
18179TIP3    H275953   5.078   3.503   2.280  1.5665 -1.2716  0.2543
18180TIP3   OH275954   2.368   1.428   1.469  0.4315 -0.0157 -0.0383
18180TIP3    H175955   2.324   1.388   1.395 -1.0703  2.2945 -0.4886
18180TIP3    H275956   2.462   1.416   1.451  0.0755 -0.8162 -1.5058
18181TIP3   OH275957   0.088   2.576  12.808  0.5414 -0.0126 -0.2605
18181TIP3    H175958   0.107   2.593  12.901  0.0677 -2.3412  0.3192
18181TIP3    H275959  -0.006   2.587  12.801  0.7806  2.1604 -0.9999
18182TIP3   OH275960   6.198   5.552   3.369  1.0213  0.4315 -0.0655
18182TIP3    H175961   6.155   5.613   3.429  0.6610 -1.2251  1.4589
18182TIP3    H275962   6.126   5.511   3.321  1.2135  0.7339 -0.6146
18183TIP3   OH275963   6.411   0.530   2.791  0.8221 -0.2853  0.3565
18183TIP3    H175964   6.331   0.501   2.834  0.4156 -0.5188 -0.5160
18183TIP3    H275965   6.474   0.543   2.861  0.0209 -0.1159  1.0558
18184TIP3   OH275966   5.913   1.425  14.929 -0.1401  0.2116 -0.4029
18184TIP3    H175967   5.888   1.505  14.883 -1.9137  0.0623  0.2300
18184TIP3    H275968   5.917   1.449  15.021 -2.7683 -0.8093  0.0660
18185TIP3   OH275969   6.364   4.256  14.680  0.0570 -0.5721 -0.5508
18185TIP3    H175970   6.426   4.184  14.682  0.4227 -0.2854 -1.1891
18185TIP3    H275971   6.406   4.325  14.732  1.7732  0.7619 -3.4391
18186TIP3   OH275972   4.197   3.596  13.271  0.7214 -0.8651 -0.5532
18186TIP3    H175973   4.247   3.550  13.339  1.7933 -0.4248 -1.0312
18186TIP3    H275974   4.176   3.681  13.310 -1.8819 -1.8916  0.6133
18187TIP3   OH275975   4.798   6.379  12.684  0.7151 -0.4572 -0.2181
18187TIP3    H175976   4.869   6.363  12.622  1.4758 -0.5012  0.6491
18187TIP3    H275977   4.738   6.306  12.671  0.2843  0.1106 -1.6766
18188TIP3   OH275978   3.853   2.668  15.458 -0.0637  0.5627 -0.1926
18188TIP3    H175979   3.778   2.618  15.491  1.3135 -2.0954 -0.8091
18188TIP3    H275980   3.860   2.742  15.518 -0.9281 -1.1587  2.2225
18189TIP3   OH275981   1.137   5.336   3.915 -0.6257 -0.2442  0.3506
18189TIP3    H175982   1.115   5.426   3.889 -0.6357 -0.7412 -1.5604
18189TIP3    H275983   1.155   5.341   4.008 -2.1387  1.4607  0.6071
18190TIP3   OH275984   6.343   5.053  14.432  0.1968  0.1423 -0.3798
18190TIP3    H175985   6.372   5.130  14.481  0.1983  0.1130 -0.3346
18190TIP3    H275986   6.249   5.046  14.452  0.5173 -0.8253  0.9224
18191TIP3   OH275987   1.996   3.016   1.178 -0.0734  0.1292  0.3743
18191TIP3    H175988   1.977   3.018   1.084  0.6187 -0.9692  0.1880
18191TIP3    H275989   1.954   2.936   1.209  0.1876  0.1875  0.8884
18192TIP3   OH275990   0.589   1.218  12.378  0.1022 -0.1356  0.5299
18192TIP3    H175991   0.595   1.167  12.459 -0.8652 -1.0248  0.0673
18192TIP3    H275992   0.495   1.226  12.362  0.2770 -0.5776 -0.8765
18193TIP3   OH275993   0.186   3.218  13.681  0.1405 -0.0481 -0.0866
18193TIP3    H175994   0.210   3.159  13.753  1.3409  0.4440 -0.0705
18193TIP3    H275995   0.113   3.174  13.638  1.2718 -1.7611 -0.3354
18194TIP3   OH275996   0.039   5.321  13.109  0.2793  0.5724 -0.1687
18194TIP3    H175997   0.010   5.407  13.079  0.8465  0.5520 -0.7657
18194TIP3    H275998   0.078   5.338  13.195  2.3090  1.2568 -1.1718
18195TIP3   OH275999   4.139   6.465  13.305 -1.0693 -0.7237  0.1037
18195TIP3    H176000   4.060   6.425  13.343 -1.2953 -0.9501 -0.5853
18195TIP3    H276001   4.118   6.475  13.212 -0.0925 -1.2708 -0.1921
18196TIP3   OH276002   3.673   4.943   3.369 -0.1761 -0.1547  0.0646
18196TIP3    H176003   3.649   5.016   3.312 -0.5507  0.3259  0.8377
18196TIP3    H276004   3.594   4.889   3.373 -0.8715  0.9062  1.7979
18197TIP3   OH276005   5.335   0.438  14.340  0.2086  0.1958 -0.2505
18197TIP3    H176006   5.356   0.478  14.256  0.0433 -0.3891 -0.5757
18197TIP3    H276007   5.417   0.441  14.390 -0.1595  2.3352  0.3313
18198TIP3   OH276008   0.477   1.418   6.145 -0.3606  0.2102  0.2467
18198TIP3    H176009   0.491   1.512   6.142 -0.5167  0.2041 -1.5638
18198TIP3    H276010   0.386   1.406   6.121 -1.0158 -0.3214  2.6690
18199TIP3   OH276011   6.478   0.715   5.305  0.0520  0.0144  0.4335
18199TIP3    H176012   6.537   0.774   5.258 -0.1634  1.6511  2.1069
18199TIP3    H276013   6.439   0.769   5.373 -0.3802 -2.0004  1.8972
18200TIP3   OH276014   1.436   1.302  12.627  0.3318  0.0206  0.1331
18200TIP3    H176015   1.490   1.225  12.609 -0.4501 -0.1145 -1.9202
18200TIP3    H276016   1.480   1.346  12.699  2.9008 -0.3664 -1.1022
18201TIP3   OH276017   5.700   1.616   0.378  0.3860  0.3514  0.5549
18201TIP3    H176018   5.712   1.571   0.461 -1.2031  0.3680  0.8187
18201TIP3    H276019   5.605   1.626   0.369  0.3985 -0.9191 -1.9193
18202TIP3   OH276020   6.686   0.365   0.022 -0.1616 -0.3144 -0.0453
18202TIP3    H176021   6.660   0.427   0.089 -0.4076  0.3989 -0.7828
18202TIP3    H276022   6.616   0.299   0.021 -1.0110  0.5764 -0.7316
18203TIP3   OH276023   4.633   0.240  16.130 -0.8747 -0.3856 -0.5768
18203TIP3    H176024   4.653   0.158  16.175 -1.9870 -0.3032  0.1208
18203TIP3    H276025   4.573   0.215  16.060 -0.0803 -0.3532 -1.2741
18204TIP3   OH276026   5.713   1.383  11.448  1.0394 -0.4827 -0.0606
18204TIP3    H176027   5.704   1.373  11.543  0.2782 -3.1764 -0.3353
18204TIP3    H276028   5.740   1.474  11.436 -0.2485  0.3638  2.6324
18205TIP3   OH276029   2.065   0.724  12.791 -0.2473  0.0683 -0.0659
18205TIP3    H176030   2.090   0.662  12.859  0.9150  1.2287  0.6024
18205TIP3    H276031   2.133   0.717  12.724 -0.5203  0.0769 -0.3495
18206TIP3   OH276032   0.156   2.258  14.986 -0.1170  0.4455  0.1117
18206TIP3    H176033   0.212   2.232  15.059  4.2971  2.3881 -2.2282
18206TIP3    H276034   0.188   2.207  14.911 -2.9674  0.1641 -1.0627
18207TIP3   OH276035   6.748   3.122  17.069 -0.0845 -0.6072 -0.2274
18207TIP3    H176036   6.828   3.092  17.026  0.7722  1.3429 -0.0912
18207TIP3    H276037   6.684   3.129  16.997  0.2257 -0.9597 -0.5452
18208TIP3   OH276038   0.255   3.218  12.431 -0.3100 -0.0410  0.1589
18208TIP3    H176039   0.248   3.306  12.394  1.0585 -0.3938 -1.0387
18208TIP3    H276040   0.295   3.166  12.361  2.6937 -0.6890  2.1955
18209TIP3   OH276041   4.045   0.447   3.104  0.2064 -0.0762  0.1758
18209TIP3    H176042   4.052   0.459   3.199  1.0375 -0.4369  0.1683
18209TIP3    H276043   4.116   0.500   3.068  1.2007 -1.5433 -0.1096
18210TIP3   OH276044   6.774   4.650   0.602  0.5000 -0.2839  0.0406
18210TIP3    H176045   6.841   4.617   0.541 -0.1118 -0.2074 -0.6831
18210TIP3    H276046   6.803   4.619   0.688  0.5951 -1.6594 -0.4622
18211TIP3   OH276047   5.956   4.000   4.040 -0.6645 -0.5436  0.3104
18211TIP3    H176048   5.909   4.083   4.051 -0.7175 -0.3852 -0.9701
18211TIP3    H276049   5.890   3.932   4.052 -1.0848 -0.3398 -0.7080
18212TIP3   OH276050   1.758   4.512   5.187  0.2389  0.3414 -0.2536
18212TIP3    H176051   1.830   4.534   5.245 -1.5066  0.2546  2.0811
18212TIP3    H276052   1.716   4.597   5.168 -0.3970  0.1528  0.2908
18213TIP3   OH276053   3.814   3.856   5.072 -0.6058  0.1458  0.0266
18213TIP3    H176054   3.906   3.831   5.064 -0.7440 -0.0775 -0.9202
18213TIP3    H276055   3.783   3.809   5.150  0.4229  1.2975  1.1713
18214TIP3   OH276056   2.335   6.179   6.346 -0.3567  0.0028  0.3993
18214TIP3    H176057   2.385   6.146   6.420  0.8464 -0.1607 -0.4599
18214TIP3    H276058   2.301   6.100   6.304 -2.1838  0.1394  1.5032
18215TIP3   OH276059   6.493   3.592  12.546  0.4196  0.3583 -0.1106
18215TIP3    H176060   6.482   3.509  12.593 -0.9690  1.3213  1.3845
18215TIP3    H276061   6.412   3.603  12.497  1.3650 -0.0323 -1.8456
18216TIP3   OH276062   5.975   3.560  10.563  0.5170 -0.2862  0.4286
18216TIP3    H176063   6.001   3.468  10.552  0.9709 -0.2802  1.3448
18216TIP3    H276064   6.058   3.607  10.567  0.2893  0.3511 -1.2604
18217TIP3   OH276065   4.168   6.384  13.600 -0.2801  0.1025 -0.4968
18217TIP3    H176066   4.120   6.397  13.681  1.2408  0.4296  0.3875
18217TIP3    H276067   4.151   6.463  13.549 -1.0727 -0.0112 -0.4198
18218TIP3   OH276068   2.844   4.057   5.333 -0.0212 -0.1287  0.4803
18218TIP3    H176069   2.783   4.032   5.263  0.4352 -0.6727  0.2726
18218TIP3    H276070   2.860   3.977   5.382 -1.3842  0.5131  2.0697
18219TIP3   OH276071   0.305   1.143  16.976 -0.2959 -0.3787  0.4274
18219TIP3    H176072   0.277   1.052  16.990  1.4367 -0.8136  1.2252
18219TIP3    H276073   0.264   1.191  17.047 -1.2233 -0.4972  0.0021
18220TIP3   OH276074   6.320   0.150  13.521 -0.5618  0.1909 -0.0283
18220TIP3    H176075   6.296   0.120  13.609  0.9579 -2.0385 -0.2744
18220TIP3    H276076   6.267   0.097  13.462 -1.8703  1.9598 -0.5314
18221TIP3   OH276077   2.835   5.980   1.781 -0.7607  0.3895 -0.1365
18221TIP3    H176078   2.820   6.074   1.782  0.7433  0.6647 -0.3627
18221TIP3    H276079   2.877   5.963   1.697 -0.6525 -0.4147  0.0683
18222TIP3   OH276080   3.458   0.333  13.992  0.0734  0.0652  0.0762
18222TIP3    H176081   3.363   0.328  14.002  0.1493 -1.1412  0.3612
18222TIP3    H276082   3.472   0.399  13.924 -0.9900 -0.2688 -0.4840
18223TIP3   OH276083   4.922   3.826   2.839 -0.4119 -1.0161 -0.2690
18223TIP3    H176084   4.966   3.826   2.754  2.4600  0.8388  1.0299
18223TIP3    H276085   4.837   3.866   2.822 -0.3398 -1.6329 -2.3977
18224TIP3   OH276086   6.391   3.030  14.000  0.4130  0.5683 -0.0447
18224TIP3    H176087   6.399   3.069  14.087 -0.8905 -0.4941  0.6015
18224TIP3    H276088   6.345   2.947  14.015 -1.3228  1.1014 -1.9129
18225TIP3   OH276089   1.019   2.797   1.927  0.2226  0.7950  0.3946
18225TIP3    H176090   1.030   2.890   1.950  1.7327  0.5766  0.6441
18225TIP3    H276091   1.093   2.753   1.969  0.8984 -0.1804 -1.7163
18226TIP3   OH276092   6.770   2.642   3.877 -0.0454 -0.2811 -0.0615
18226TIP3    H176093   6.705   2.713   3.879 -2.1676 -2.0656 -1.7748
18226TIP3    H276094   6.765   2.603   3.965 -0.7656  0.0668  0.0604
18227TIP3   OH276095   0.637   2.958   6.114  0.1924  0.1104  0.5532
18227TIP3    H176096   0.557   2.966   6.166  1.0960 -1.4535  2.3148
18227TIP3    H276097   0.607   2.960   6.023 -1.4593  2.9372  1.0507
18228TIP3   OH276098   5.063   6.169   3.919  0.1775 -0.3920 -0.1422
18228TIP3    H176099   5.092   6.246   3.870  2.3096 -0.6525  0.5982
18228TIP3    H276100   4.997   6.202   3.980 -0.1606  0.5219 -0.9854
18229TIP3   OH276101   6.662   1.725  16.853  0.1798  0.6991 -0.1587
18229TIP3    H176102   6.641   1.736  16.946 -2.0401  2.5101 -0.7806
18229TIP3    H276103   6.673   1.631  16.842 -0.0475  0.3946  1.8069
18230TIP3   OH276104   1.139   1.397  10.589  0.0605  0.1197 -0.3356
18230TIP3    H176105   1.094   1.353  10.662 -2.0388 -0.0587 -1.6466
18230TIP3    H276106   1.102   1.485  10.588 -0.5466 -0.1185 -1.6126
18231TIP3   OH276107   4.900   3.440   3.919 -0.7979  0.3589  0.3021
18231TIP3    H176108   4.976   3.408   3.966 -0.4342  0.2917 -0.3240
18231TIP3    H276109   4.831   3.377   3.939 -1.0324  1.0423  1.8177
18232TIP3   OH276110   2.210   2.746   3.934 -0.3551 -0.0102 -0.2484
18232TIP3    H176111   2.224   2.652   3.946  2.6414  0.0516 -2.2274
18232TIP3    H276112   2.266   2.788   4.000  0.3539  0.3447 -1.0556
18233TIP3   OH276113   6.136   0.424   3.716 -0.2834  0.2696  0.1107
18233TIP3    H176114   6.048   0.416   3.752 -1.1062 -0.7481 -1.9652
18233TIP3    H276115   6.125   0.473   3.635  1.3321  1.4862  0.5513
18234TIP3   OH276116   6.383   3.292  12.175  0.3651 -0.0382 -0.1395
18234TIP3    H176117   6.311   3.330  12.225 -0.0227 -1.4587  0.4324
18234TIP3    H276118   6.345   3.272  12.090 -0.0593 -1.0979  0.2697
18235TIP3   OH276119   2.496   2.277  15.124 -0.5035 -0.8054  0.0532
18235TIP3    H176120   2.454   2.336  15.187 -1.6594 -0.2547 -1.1621
18235TIP3    H276121   2.424   2.246  15.069  0.6055 -0.0789 -1.9371
18236TIP3   OH276122   6.193   3.307  11.501  0.0599 -0.9102 -0.4485
18236TIP3    H176123   6.179   3.376  11.436 -0.8223 -0.3124  0.3472
18236TIP3    H276124   6.203   3.354  11.584  1.9045 -1.6162 -0.2168
18237TIP3   OH276125   3.755   1.068  13.367 -0.4194 -0.1321  0.4412
18237TIP3    H176126   3.844   1.105  13.364 -0.1682 -0.7784 -0.7356
18237TIP3    H276127   3.700   1.138  13.331 -0.8612  1.3693  3.6770
18238TIP3   OH276128   5.943   4.523  10.921 -0.2142 -0.0882  0.1014
18238TIP3    H176129   5.984   4.513  10.836 -0.2384  0.2452  0.0454
18238TIP3    H276130   6.006   4.573  10.973 -0.0350 -0.6247  0.4037
18239TIP3   OH276131   4.013   2.178   1.477  0.1622  0.3433 -0.7345
18239TIP3    H176132   3.989   2.139   1.393 -2.3267 -1.0735  0.4829
18239TIP3    H276133   4.080   2.119   1.512 -1.1238 -1.0015 -0.3986
18240TIP3   OH276134   0.727   4.621  16.383  0.1635  0.0870 -0.2708
18240TIP3    H176135   0.755   4.600  16.294 -0.4508  2.3456 -1.0558
18240TIP3    H276136   0.774   4.701  16.405 -0.6934  0.2902  0.9214
18241TIP3   OH276137   4.057   6.291   3.432 -0.0503  0.0143 -0.0114
18241TIP3    H176138   4.052   6.197   3.448 -0.3134  0.2582  1.5913
18241TIP3    H276139   4.000   6.307   3.357 -2.6604 -0.7128  1.7014
18242TIP3   OH276140   1.011   4.430   6.624  0.3113  0.2564  0.1912
18242TIP3    H176141   0.981   4.497   6.685  1.4546  0.5695  0.4351
18242TIP3    H276142   1.058   4.478   6.556  0.2060 -0.2068 -0.2187
18243TIP3   OH276143   5.370   6.665  11.360 -0.0655  0.1940 -0.2471
18243TIP3    H176144   5.372   6.587  11.304  0.8968 -0.3824  0.5802
18243TIP3    H276145   5.281   6.665  11.396  0.1877 -1.0144  0.4278
18244TIP3   OH276146   2.071   2.407   1.179  0.1234 -0.3835 -0.0029
18244TIP3    H176147   2.004   2.343   1.157  2.1247 -1.7423 -2.7235
18244TIP3    H276148   2.076   2.464   1.103  1.6157  0.0530  0.3878
18245TIP3   OH276149   6.506   2.317   0.231 -0.0095 -0.4468  0.3941
18245TIP3    H176150   6.459   2.318   0.314  1.0424 -0.4298  1.0135
18245TIP3    H276151   6.545   2.405   0.224 -2.2820  0.5146 -1.4525
18246TIP3   OH276152   6.633   6.577  12.634  0.0436  0.3430  0.0159
18246TIP3    H176153   6.623   6.649  12.696 -0.5270 -0.5777  1.0130
18246TIP3    H276154   6.551   6.529  12.640  0.4183 -0.3966 -0.6482
18247TIP3   OH276155   5.548   3.167  12.007 -0.6373  0.2541 -0.9628
18247TIP3    H176156   5.521   3.087  11.962  0.1714  0.2427 -1.4511
18247TIP3    H276157   5.585   3.136  12.090  0.2812  0.0499 -1.4318
18248TIP3   OH276158   2.380   5.031   2.583  0.1402  0.7894 -0.4191
18248TIP3    H176159   2.431   5.023   2.664  0.4357 -3.9142 -0.7891
18248TIP3    H276160   2.291   5.047   2.612  0.4429  0.3584  0.8006
18249TIP3   OH276161   2.167   0.698  11.627 -0.0192  0.2912  0.1967
18249TIP3    H176162   2.231   0.707  11.557  0.0054 -0.7637  0.0753
18249TIP3    H276163   2.122   0.783  11.630  0.4606  0.5791 -0.6064
18250TIP3   OH276164   0.450   2.066   3.554 -0.5298  0.2829  0.2984
18250TIP3    H176165   0.430   2.108   3.638 -0.2557 -0.2580  0.6466
18250TIP3    H276166   0.376   2.009   3.537 -0.9105  0.9144 -0.1834
18251TIP3   OH276167   5.956   5.355  15.429 -0.3236 -0.3752 -0.5064
18251TIP3    H176168   5.964   5.320  15.518  1.4483 -2.7526 -1.4762
18251TIP3    H276169   5.965   5.278  15.373 -1.1410  1.0957 -2.7810
18252TIP3   OH276170   2.498   6.225  14.754  0.2615  0.1965  0.0916
18252TIP3    H176171   2.462   6.266  14.833 -0.4029  2.9050 -1.4663
18252TIP3    H276172   2.425   6.221  14.693  1.2861  0.5396 -1.2264
18253TIP3   OH276173   3.324   2.624  15.346  0.0550  0.2994  0.0056
18253TIP3    H176174   3.260   2.674  15.397 -0.0075  1.0847 -0.8294
18253TIP3    H276175   3.274   2.586  15.275  0.3291  0.0548 -0.0578
18254TIP3   OH276176   3.322   4.449   5.685 -0.1472 -0.5549 -0.2312
18254TIP3    H176177   3.253   4.492   5.735 -0.7568 -1.1485 -0.5536
18254TIP3    H276178   3.319   4.491   5.599  1.3607  0.9612  0.3877
18255TIP3   OH276179   3.267   4.392  11.089 -0.1227 -0.2817 -0.1732
18255TIP3    H176180   3.190   4.387  11.146 -1.8940  1.7775 -2.1936
18255TIP3    H276181   3.292   4.484  11.091  1.3995 -0.6450 -0.7741
18256TIP3   OH276182   5.023   1.011  15.847 -0.8089  0.7196 -0.0989
18256TIP3    H176183   4.937   1.037  15.813 -1.6754 -0.0933  1.3290
18256TIP3    H276184   5.038   0.924  15.810 -0.7859  0.7047 -0.0549
18257TIP3   OH276185   2.673   3.664   5.052  0.4075  0.2725 -0.0542
18257TIP3    H176186   2.736   3.646   4.983  3.8465  1.6960  2.4146
18257TIP3    H276187   2.639   3.751   5.032 -0.3050 -0.2081 -1.0191
18258TIP3   OH276188   2.846   5.778   3.314  0.1134 -0.5054 -0.0068
18258TIP3    H176189   2.843   5.785   3.218 -0.5472 -0.2447  0.0278
18258TIP3    H276190   2.774   5.834   3.344 -0.5335 -1.6346  0.5946
18259TIP3   OH276191   6.252   2.829  16.233 -0.1170  0.0983  0.6507
18259TIP3    H176192   6.322   2.842  16.170 -1.0854 -1.5464 -0.8626
18259TIP3    H276193   6.172   2.823  16.180 -0.8254 -2.5021  1.8146
18260TIP3   OH276194   4.558   4.847   3.070  0.0951 -0.0925  0.7070
18260TIP3    H176195   4.466   4.857   3.045 -0.0057 -2.2766 -0.0408
18260TIP3    H276196   4.557   4.850   3.165 -0.8716 -0.7610  0.7379
18261TIP3   OH276197   3.744   6.267   1.249 -0.3524  0.2363 -0.3962
18261TIP3    H176198   3.757   6.255   1.343 -0.0057  1.9108 -0.1845
18261TIP3    H276199   3.694   6.349   1.242 -1.3721 -0.4626 -1.6395
18262TIP3   OH276200   2.193   0.740  12.501 -0.0329  0.4217 -0.6990
18262TIP3    H176201   2.195   0.809  12.434  1.8230 -0.4826 -1.6580
18262TIP3    H276202   2.102   0.711  12.502 -0.2777  1.0327 -2.2472
18263TIP3   OH276203   4.127   5.744  12.854  0.0137 -0.0108  0.3722
18263TIP3    H176204   4.202   5.714  12.804  0.6628  0.5534  0.9765
18263TIP3    H276205   4.059   5.763  12.789  0.8084  0.6374 -0.2750
18264TIP3   OH276206   5.334   4.276  16.506 -0.5182  0.3272 -0.2087
18264TIP3    H176207   5.384   4.312  16.580 -0.1355 -1.0917  0.2460
18264TIP3    H276208   5.265   4.224  16.547 -0.2283 -0.5799 -0.8431
18265TIP3   OH276209   3.941   3.757  14.192  1.1426 -0.0462  0.0055
18265TIP3    H176210   4.017   3.787  14.141  1.2836  1.5017  1.0623
18265TIP3    H276211   3.870   3.815  14.165  0.9995  0.1979  0.8959
18266TIP3   OH276212   6.020   0.748   4.851 -0.2931  0.2866 -0.4629
18266TIP3    H176213   5.930   0.772   4.873  0.0847  1.6205 -0.2435
18266TIP3    H276214   6.072   0.783   4.923  0.4938  0.4365 -1.0892
18267TIP3   OH276215   1.949   1.564   3.138 -0.1664  0.8108 -0.0551
18267TIP3    H176216   1.974   1.479   3.175  1.2844  1.2337  0.0035
18267TIP3    H276217   1.940   1.622   3.214 -0.7230  0.8142 -0.1237
18268TIP3   OH276218   2.252   1.292   4.516 -0.3331  0.1428 -0.4631
18268TIP3    H176219   2.190   1.338   4.459 -0.6038 -0.4078 -0.6298
18268TIP3    H276220   2.329   1.277   4.461 -0.1427  0.6237 -0.3277
18269TIP3   OH276221   1.863   2.289   1.052  0.8000 -0.4652  0.1919
18269TIP3    H176222   1.779   2.301   1.007  0.3719 -2.2415  0.4282
18269TIP3    H276223   1.928   2.301   0.984  0.4294  1.6329  0.1432
18270TIP3   OH276224   0.132   3.932  15.583  0.3456  0.0175 -0.0145
18270TIP3    H176225   0.209   3.886  15.550 -0.0385 -1.4635  1.0537
18270TIP3    H276226   0.059   3.891  15.537  0.1676  1.4315 -1.0367
18271TIP3   OH276227   1.269   0.923  13.277 -0.9195  0.3088 -0.1758
18271TIP3    H176228   1.178   0.951  13.269 -0.5110  1.1850 -2.2624
18271TIP3    H276229   1.321   1.002  13.260  0.2557 -0.3199  0.3096
18272TIP3   OH276230   2.186   6.351   1.395 -0.3183  0.0792 -0.3453
18272TIP3    H176231   2.191   6.281   1.330  0.5002  0.1193 -0.3245
18272TIP3    H276232   2.238   6.319   1.469 -0.0512  0.6509 -0.2829
18273TIP3   OH276233   1.095   4.593   0.372 -0.3070  0.0024 -0.5423
18273TIP3    H176234   1.163   4.586   0.439 -1.3074 -0.9412  0.4181
18273TIP3    H276235   1.060   4.682   0.382 -2.0589 -0.8630  1.8737
18274TIP3   OH276236   6.549   4.227   6.617  0.0537  0.1363  0.3164
18274TIP3    H176237   6.525   4.179   6.697  4.0950 -1.1324  1.0183
18274TIP3    H276238   6.516   4.172   6.546  1.7357 -2.1218  1.1571
18275TIP3   OH276239   2.318   5.420   3.291 -0.1655  0.2030 -0.1788
18275TIP3    H176240   2.275   5.458   3.367  2.9189  0.8528  1.4343
18275TIP3    H276241   2.310   5.486   3.222 -0.1498  1.0892  0.6549
18276TIP3   OH276242   4.498   6.139   1.189 -0.0550 -0.1836  0.2898
18276TIP3    H176243   4.552   6.218   1.184 -2.1783  1.5883  2.7855
18276TIP3    H276244   4.522   6.099   1.273  0.9741 -2.3169 -0.9241
18277TIP3   OH276245   4.467   1.480   1.013 -0.3869  0.3588 -0.4522
18277TIP3    H176246   4.395   1.452   1.070 -0.7191  0.2247 -0.9355
18277TIP3    H276247   4.426   1.535   0.947 -0.3996 -1.3620 -1.9708
18278TIP3   OH276248   0.152   3.600   0.748 -0.5268 -0.2979 -0.2916
18278TIP3    H176249   0.126   3.508   0.745 -2.5603  0.2505 -1.5983
18278TIP3    H276250   0.157   3.627   0.656  1.4729  0.5533  0.0204
18279TIP3   OH276251   1.547   1.060   1.813 -0.4284 -0.3994  0.3755
18279TIP3    H176252   1.475   1.099   1.863 -2.7109 -1.8667 -1.5313
18279TIP3    H276253   1.572   0.982   1.862 -1.4135 -0.8662  0.1471
18280TIP3   OH276254   2.701   3.562   4.000  0.0912 -0.2370 -0.1715
18280TIP3    H176255   2.725   3.593   4.087 -0.7251  0.2907 -0.1293
18280TIP3    H276256   2.706   3.641   3.945 -0.0046 -0.4462 -0.4827
18281TIP3   OH276257   1.028   1.281  16.060 -0.2359  0.4963 -0.4269
18281TIP3    H176258   1.106   1.283  16.115 -0.5048 -0.6525  0.0311
18281TIP3    H276259   0.991   1.369  16.068 -0.1038  0.4453  1.0031
18282TIP3   OH276260   3.047   4.839  14.209  0.5085  0.2899 -0.0001
18282TIP3    H176261   3.016   4.807  14.125 -0.5606 -0.0136  0.5012
18282TIP3    H276262   3.000   4.921  14.222  2.2251  1.4382 -0.6467
18283TIP3   OH276263   6.237   2.979  14.870  0.1904 -0.0757  0.3892
18283TIP3    H176264   6.160   2.923  14.875  0.6687 -0.6360  2.9912
18283TIP3    H276265   6.204   3.067  14.886 -0.0802 -0.1278  0.1230
18284TIP3   OH276266   0.573   5.249  14.856 -0.2394  0.6314 -0.3238
18284TIP3    H176267   0.596   5.171  14.804 -0.7586  0.7978 -0.8063
18284TIP3    H276268   0.656   5.278  14.893 -0.3117 -1.5728  1.8894
18285TIP3   OH276269   2.354   3.245   3.762  0.3699 -0.6950 -0.2998
18285TIP3    H176270   2.446   3.228   3.742  0.0159 -0.4069 -2.3718
18285TIP3    H276271   2.337   3.332   3.728 -0.9307 -1.1664 -0.9441
18286TIP3   OH276272   2.028   6.429   2.516 -0.0181  0.0822 -0.1770
18286TIP3    H176273   2.103   6.419   2.458  1.6581  0.6142  1.7685
18286TIP3    H276274   2.004   6.340   2.541 -1.2405 -0.2069 -2.1566
18287TIP3   OH276275   4.245   3.452   0.043  0.3963  0.3959  0.0392
18287TIP3    H176276   4.172   3.499   0.082  0.8019  0.7786  0.3391
18287TIP3    H276277   4.221   3.359   0.052 -0.4451  0.5342 -0.6356
18288TIP3   OH276278   6.787   3.887  14.306 -0.0580 -0.3207  0.0172
18288TIP3    H176279   6.859   3.924  14.357 -0.2390  0.4553 -0.2873
18288TIP3    H276280   6.829   3.855  14.226 -0.2996  2.0129 -1.1218
18289TIP3   OH276281   3.277   6.099  16.018  0.4478 -0.5666 -0.2803
18289TIP3    H176282   3.192   6.069  16.052  1.3253 -1.8706  0.8463
18289TIP3    H276283   3.328   6.118  16.096  0.7869  1.5415 -0.9495
18290TIP3   OH276284   3.905   1.074   5.720 -0.5417 -0.6337 -1.0125
18290TIP3    H176285   3.954   1.144   5.677  0.5275 -0.0374  1.0183
18290TIP3    H276286   3.957   0.995   5.706  0.2014 -0.3007 -0.2218
18291TIP3   OH276287   4.831   6.611  10.434  0.2040 -0.2858  0.2368
18291TIP3    H176288   4.868   6.699  10.428 -0.6930  0.0862  0.0434
18291TIP3    H276289   4.893   6.556  10.386 -0.5264  0.6692 -1.9481
18292TIP3   OH276290   3.729   0.820  15.968 -0.5257 -0.9333 -0.2861
18292TIP3    H176291   3.747   0.827  16.062  1.8442  0.2794 -0.7633
18292TIP3    H276292   3.779   0.743  15.940 -1.6532 -1.6096 -0.4905
18293TIP3   OH276293   3.358   3.782  12.218 -0.2780  0.6328 -0.3667
18293TIP3    H176294   3.271   3.783  12.257 -0.0021  0.9957  0.2531
18293TIP3    H276295   3.346   3.738  12.134 -0.4548 -2.6109  1.1892
18294TIP3   OH276296   2.449   3.258   4.753  0.0125  0.3292 -0.0367
18294TIP3    H176297   2.369   3.308   4.741  0.4822  1.3458  0.9070
18294TIP3    H276298   2.506   3.315   4.804  1.2426 -0.4776 -0.4498
18295TIP3   OH276299   3.253   0.724   3.991  0.3845 -0.3561 -0.2230
18295TIP3    H176300   3.304   0.647   3.966 -0.1906 -0.7397 -0.2526
18295TIP3    H276301   3.285   0.794   3.934  0.7363 -0.6365 -0.3759
18296TIP3   OH276302   5.243   4.225  14.452  0.1367 -0.2046 -0.1868
18296TIP3    H176303   5.227   4.289  14.383  1.3401 -1.2190 -1.4549
18296TIP3    H276304   5.290   4.154  14.409  1.3814 -0.6557  1.7839
18297TIP3   OH276305   2.400   2.309   2.249  0.2262  0.8361 -0.0687
18297TIP3    H176306   2.320   2.362   2.255 -1.6644 -1.8181  0.6624
18297TIP3    H276307   2.425   2.313   2.157 -0.9482  1.5010 -0.3774
18298TIP3   OH276308   2.426   4.842   0.196  0.7533 -0.5710 -0.5234
18298TIP3    H176309   2.347   4.897   0.199  0.1142 -1.4896  1.9979
18298TIP3    H276310   2.486   4.891   0.139 -0.2662  2.0603  0.4779
18299TIP3   OH276311   0.227   4.385  16.664  0.3150  0.3505  0.0905
18299TIP3    H176312   0.157   4.414  16.606  2.3668  1.1750 -2.1351
18299TIP3    H276313   0.270   4.465  16.692  1.1270 -0.1798  0.4107
18300TIP3   OH276314   6.042   0.927  15.020 -0.3680  0.1073 -0.9790
18300TIP3    H176315   6.104   0.877  14.966 -0.8067  0.0811 -1.4597
18300TIP3    H276316   6.052   1.017  14.990 -0.2825  0.1635 -0.7845
18301TIP3   OH276317   6.048   1.918   2.569  0.7539  0.0995  0.4560
18301TIP3    H176318   5.967   1.967   2.583  0.8381 -0.0429  1.5282
18301TIP3    H276319   6.035   1.873   2.486  0.1878  0.9670  0.0605
18302TIP3   OH276320   4.923   4.279  11.373  0.2666 -0.1411  0.0164
18302TIP3    H176321   4.834   4.244  11.362  0.1872 -0.9599  2.5505
18302TIP3    H276322   4.977   4.227  11.315 -0.6679 -0.8119 -0.2769
18303TIP3   OH276323   6.127   0.455  10.642  0.1530  0.2579  0.1735
18303TIP3    H176324   6.186   0.515  10.597  0.2169 -0.9036 -1.3729
18303TIP3    H276325   6.045   0.462  10.593  0.0417 -0.6178  0.2253
18304TIP3   OH276326   6.730   1.952   4.960  0.2373 -0.2795  0.2942
18304TIP3    H176327   6.692   2.027   4.914 -1.3559 -1.5368 -0.5676
18304TIP3    H276328   6.815   1.937   4.917  0.2398  0.5815 -0.0086
18305TIP3   OH276329   5.885   3.662  15.548  0.6787  1.1811 -0.9280
18305TIP3    H176330   5.913   3.735  15.604  0.3795 -0.6430  1.8393
18305TIP3    H276331   5.957   3.650  15.486  3.8742 -0.0823  2.6406
18306TIP3   OH276332   5.038   2.005   4.191 -0.7136 -0.0585 -0.2858
18306TIP3    H176333   4.998   2.033   4.273  0.0095 -0.1637  0.1039
18306TIP3    H276334   4.989   2.052   4.124 -1.0751  0.2991  0.2197
18307TIP3   OH276335   4.903   0.628   1.765 -0.7034  0.3669 -0.3056
18307TIP3    H176336   4.819   0.581   1.773 -2.1451  2.8129 -0.0570
18307TIP3    H276337   4.932   0.642   1.855 -0.0106 -0.4682 -0.3918
18308TIP3   OH276338   3.389   0.870  14.169 -0.1975 -0.4873  0.1876
18308TIP3    H176339   3.452   0.840  14.103 -0.7192 -0.9162 -0.1271
18308TIP3    H276340   3.311   0.818  14.152 -0.0417 -1.3128  1.7501
18309TIP3   OH276341   5.917   1.285   5.027  0.0037 -0.2082  0.2423
18309TIP3    H176342   6.004   1.293   5.068  0.9818  1.0940 -1.9519
18309TIP3    H276343   5.861   1.342   5.079  0.6365 -0.4286  1.1962
18310TIP3   OH276344   4.058   1.151  10.623 -0.8109 -0.6996  0.1059
18310TIP3    H176345   4.049   1.184  10.712 -1.4784  0.0398 -0.2208
18310TIP3    H276346   3.994   1.201  10.572  1.0123  0.4129 -1.2124
18311TIP3   OH276347   6.580   4.231   0.452 -0.2948 -0.4058  0.4255
18311TIP3    H176348   6.675   4.241   0.447 -0.3994  0.7779  0.4868
18311TIP3    H276349   6.546   4.277   0.376 -0.8406 -0.4019  0.6627
18312TIP3   OH276350   4.087   2.636  16.171 -0.1535 -0.6544  0.1231
18312TIP3    H176351   4.147   2.694  16.217  0.5110 -2.2192  1.3256
18312TIP3    H276352   4.001   2.654  16.208  0.0718 -0.5507  0.5950
18313TIP3   OH276353   0.730   4.559  15.597 -1.3676  0.1990 -0.2009
18313TIP3    H176354   0.656   4.556  15.537 -2.0937  0.7598  0.6401
18313TIP3    H276355   0.698   4.609  15.672  0.2512  1.5965 -0.3646
18314TIP3   OH276356   3.635   0.729  15.116 -0.1991  0.1404 -0.0005
18314TIP3    H176357   3.574   0.657  15.134 -2.0227  1.4798 -0.5326
18314TIP3    H276358   3.639   0.778  15.198  0.6211 -0.2635  0.2026
18315TIP3   OH276359   0.114   6.508   6.081  0.1287  0.1091 -0.5263
18315TIP3    H176360   0.144   6.436   6.136 -2.2512 -0.1594  0.5533
18315TIP3    H276361   0.049   6.469   6.023  0.6411  0.9306 -1.6929
18316TIP3   OH276362   6.267   0.993   5.166 -0.4192 -0.1131  0.3842
18316TIP3    H176363   6.310   1.000   5.080 -1.2411  0.7204  0.0335
18316TIP3    H276364   6.329   1.033   5.227 -0.9930  1.8118 -0.2324
18317TIP3   OH276365   2.843   1.155   2.295 -0.0665 -0.3913 -0.3161
18317TIP3    H176366   2.757   1.129   2.329  0.1902  1.4551  2.0006
18317TIP3    H276367   2.905   1.093   2.335  0.1176  1.1458  1.9718
18318TIP3   OH276368   5.420   4.714   4.004 -0.7249 -0.0107  0.1832
18318TIP3    H176369   5.426   4.800   3.962 -4.0809  0.6678  0.8114
18318TIP3    H276370   5.391   4.656   3.934 -2.1904  0.2226  0.5754
18319TIP3   OH276371   5.707   2.220  14.339  0.7128  0.1852 -0.8522
18319TIP3    H176372   5.688   2.313  14.349  2.5819  0.6548 -1.2677
18319TIP3    H276373   5.733   2.210  14.247  1.8880 -0.4532 -0.4759
18320TIP3   OH276374   4.712   2.358   0.788  0.2137  0.1655  0.4961
18320TIP3    H176375   4.797   2.401   0.800  0.5513 -0.6728  1.2608
18320TIP3    H276376   4.735   2.269   0.760 -0.3656 -0.4412  1.9083
18321TIP3   OH276377   4.111   1.514   0.798 -0.5864  0.0501 -0.3945
18321TIP3    H176378   4.185   1.573   0.814 -0.3787 -0.3035 -0.0032
18321TIP3    H276379   4.147   1.446   0.741 -0.6798  0.0215 -0.4184
18322TIP3   OH276380   2.171   6.194   5.679  0.6023  0.1404 -0.0720
18322TIP3    H176381   2.237   6.250   5.636 -0.8598  0.7884 -1.6034
18322TIP3    H276382   2.102   6.185   5.613 -1.1121 -0.0292  1.6681
18323TIP3   OH276383   0.166   3.865   3.941  0.2067 -0.2674  0.0849
18323TIP3    H176384   0.159   3.948   3.894  0.4387  0.1415  0.7585
18323TIP3    H276385   0.258   3.840   3.930  0.0361 -0.6471 -0.4717
18324TIP3   OH276386   6.767   2.715   2.132  0.1879 -0.6827  0.2954
18324TIP3    H176387   6.674   2.728   2.114  0.1479 -1.5610 -0.1826
18324TIP3    H276388   6.813   2.754   2.057  0.3319  1.6518  1.5039
18325TIP3   OH276389   5.424   4.492   3.051  0.2470 -0.4186  0.0198
18325TIP3    H176390   5.388   4.528   3.132  1.3666 -0.5456  0.5907
18325TIP3    H276391   5.456   4.568   3.002  2.3309 -0.5449  1.0876
18326TIP3   OH276392   1.784   5.093  12.365 -0.1760 -0.1405  0.6390
18326TIP3    H176393   1.856   5.098  12.428  0.8553 -1.7989 -0.3459
18326TIP3    H276394   1.785   5.178  12.320  1.1162 -0.1096  0.7040
18327TIP3   OH276395   0.144   0.701  13.912  0.7883  0.2297 -0.7686
18327TIP3    H176396   0.057   0.682  13.878  0.2045 -2.0234  1.7035
18327TIP3    H276397   0.194   0.620  13.899  1.6287  0.5358  0.3888
18328TIP3   OH276398   0.242   0.649   0.500 -0.1800  0.0543 -0.5104
18328TIP3    H176399   0.264   0.570   0.548 -1.1361 -2.1984 -3.4588
18328TIP3    H276400   0.327   0.682   0.468  0.2113  0.2528  0.6783
18329TIP3   OH276401   6.129   4.849   5.857  0.0981 -0.0504 -0.6517
18329TIP3    H176402   6.197   4.897   5.903  0.7153 -0.9290 -0.6417
18329TIP3    H276403   6.069   4.917   5.826 -0.6956  0.5427  1.9492
18330TIP3   OH276404   2.311   6.724   4.252 -0.2533 -0.0515 -0.2390
18330TIP3    H176405   2.378   6.745   4.317  1.7943  0.1418 -2.2914
18330TIP3    H276406   2.347   6.648   4.205 -1.3247  0.2543 -1.6055
18331TIP3   OH276407   1.249   2.493   4.890 -0.1565  0.3103  0.2280
18331TIP3    H176408   1.320   2.485   4.954  0.0095  0.8410  0.1138
18331TIP3    H276409   1.276   2.434   4.819  0.4411  0.9094 -0.0527
18332TIP3   OH276410   4.997   2.500   3.996 -0.2592 -0.5676 -0.4598
18332TIP3    H176411   4.997   2.593   3.972  1.6005 -1.1285 -2.9937
18332TIP3    H276412   4.973   2.500   4.089 -2.0607  2.2758 -0.7967
18333TIP3   OH276413   3.560   1.960   0.955 -0.5105  0.6528 -0.1150
18333TIP3    H176414   3.622   1.941   1.026  1.2295  0.2624 -1.6442
18333TIP3    H276415   3.584   2.048   0.925 -0.3963  0.3445 -0.9727
18334TIP3   OH276416   2.774   6.320   4.072  0.0504  0.1352 -0.0434
18334TIP3    H176417   2.827   6.265   4.015 -0.9741 -1.6904  0.6655
18334TIP3    H276418   2.733   6.384   4.014  1.0426 -0.0170 -0.9331
18335TIP3   OH276419   3.084   5.838   1.830 -0.1682 -0.4000  0.3464
18335TIP3    H176420   3.006   5.889   1.848 -0.4440 -1.3573  2.1110
18335TIP3    H276421   3.135   5.842   1.911  2.1260  0.9783 -1.0505
18336TIP3   OH276422   4.001   4.500   5.388 -0.2016 -0.1860 -0.1373
18336TIP3    H176423   3.959   4.580   5.420  0.4956  0.3259 -0.4786
18336TIP3    H276424   4.047   4.466   5.465 -0.0905  0.0137 -0.1130
18337TIP3   OH276425   5.300   3.109  12.395 -0.1262  0.1912 -0.4499
18337TIP3    H176426   5.369   3.120  12.460 -1.6877 -1.6292  1.6766
18337TIP3    H276427   5.238   3.180  12.414  0.4823  1.0386 -1.5091
18338TIP3   OH276428   3.396   2.513  12.214 -0.6182 -0.3660 -0.5307
18338TIP3    H176429   3.366   2.588  12.265 -0.9994  0.4124 -1.8546
18338TIP3    H276430   3.337   2.442  12.240 -1.7346  0.3923 -0.9252
18339TIP3   OH276431   2.620   5.460  11.943 -0.5111  0.6784  0.2453
18339TIP3    H176432   2.629   5.421  11.856 -0.9872  0.7042  0.1801
18339TIP3    H276433   2.535   5.504  11.941 -1.4859 -1.0174  1.3690
18340TIP3   OH276434   2.309   2.094   2.475  0.6774 -0.2117  0.6377
18340TIP3    H176435   2.370   2.169   2.481  0.8157 -0.3774  1.4979
18340TIP3    H276436   2.320   2.049   2.559 -0.5432 -0.3180  0.7551
18341TIP3   OH276437   5.289   6.701  14.397 -0.0293 -0.0615  0.0494
18341TIP3    H176438   5.259   6.621  14.441  0.4630 -0.0919  0.3402
18341TIP3    H276439   5.218   6.724  14.338 -0.1515 -0.7558 -0.0836
18342TIP3   OH276440   1.071   2.551   1.747  0.3508 -0.3991  0.1952
18342TIP3    H176441   1.010   2.506   1.689 -0.5598  0.1081  0.7312
18342TIP3    H276442   1.035   2.640   1.755  1.6771  0.2065 -0.2214
18343TIP3   OH276443   5.534   4.479  14.839 -0.2918 -0.2854 -0.0342
18343TIP3    H176444   5.461   4.467  14.779 -0.9720  0.0321  0.7093
18343TIP3    H276445   5.529   4.572  14.863 -0.2113 -0.4771  0.7378
18344TIP3   OH276446   0.076   2.942  10.775 -0.1133 -0.1752 -0.0004
18344TIP3    H176447   0.003   2.996  10.805  0.5414  0.2115  0.9808
18344TIP3    H276448   0.116   2.994  10.705 -1.4763 -0.9466 -1.4101
18345TIP3   OH276449   4.368   2.401  17.042 -0.5993 -0.5606  0.1004
18345TIP3    H176450   4.425   2.458  17.093  1.4553 -1.9532 -0.4787
18345TIP3    H276451   4.428   2.348  16.990 -2.4821 -1.7018 -1.0409
18346TIP3   OH276452   4.382   5.406  14.722 -0.2130 -0.0472  0.0236
18346TIP3    H176453   4.304   5.372  14.679 -1.4013  0.9023  1.3387
18346TIP3    H276454   4.389   5.497  14.692  1.6054 -0.6667 -1.6632
18347TIP3   OH276455   5.409   4.208  16.126 -0.0311  0.4504 -0.1015
18347TIP3    H176456   5.364   4.272  16.072  0.2873 -1.6701 -3.1788
18347TIP3    H276457   5.344   4.180  16.190 -1.5682  0.8176 -1.4417
18348TIP3   OH276458   0.508   2.832   2.402  0.1339  0.1882 -0.4038
18348TIP3    H176459   0.544   2.894   2.339 -0.2276 -0.1327 -0.9357
18348TIP3    H276460   0.564   2.755   2.394  0.6779  0.4933  0.3674
18349TIP3   OH276461   1.970   2.787  15.195 -0.0672  0.1903 -0.1588
18349TIP3    H176462   1.904   2.804  15.127 -1.2657  0.1764  0.9687
18349TIP3    H276463   1.976   2.868  15.244  2.6301  1.0726 -1.7047
18350TIP3   OH276464   2.256   4.163   1.537  0.2280  0.1133  0.0808
18350TIP3    H176465   2.336   4.131   1.579  0.5669  1.7451  0.7816
18350TIP3    H276466   2.247   4.110   1.458  0.2865 -2.1809  1.5205
18351TIP3   OH276467   4.228   5.918  16.212 -0.1200 -0.3422  0.2211
18351TIP3    H176468   4.188   5.967  16.140  0.2554 -1.2805 -0.6434
18351TIP3    H276469   4.213   5.826  16.189 -2.4528 -0.7070  2.7227
18352TIP3   OH276470   2.355   0.775   2.783 -0.9882  0.1751  0.0118
18352TIP3    H176471   2.370   0.685   2.752  1.1319  0.5743 -0.2998
18352TIP3    H276472   2.280   0.806   2.733 -0.6089 -0.8119 -1.2182
18353TIP3   OH276473   0.111   3.996  11.871  0.4886 -0.3902  0.0064
18353TIP3    H176474   0.017   4.015  11.878  0.5813 -0.1266  0.5691
18353TIP3    H276475   0.152   4.049  11.939  0.9467 -1.2081  0.3855
18354TIP3   OH276476   4.080   1.012   2.608  1.2123  0.5959  0.0450
18354TIP3    H176477   4.045   1.074   2.673  0.8012  0.6899 -0.2620
18354TIP3    H276478   4.174   1.027   2.609  0.9482  2.7381 -1.5447
18355TIP3   OH276479   5.046   5.356   4.736 -0.1693 -0.1598  0.2508
18355TIP3    H176480   5.008   5.439   4.708 -1.5654 -1.0135 -0.5249
18355TIP3    H276481   5.105   5.332   4.664  0.2418  0.1487  0.4796
18356TIP3   OH276482   5.877   1.502   3.581 -0.7013 -0.1076 -0.6265
18356TIP3    H176483   5.816   1.574   3.594 -0.0619  0.3363  0.0049
18356TIP3    H276484   5.891   1.465   3.668 -1.2857 -1.2261 -0.9926
18357TIP3   OH276485   6.450   4.860   2.710  0.1045  0.1738  0.1438
18357TIP3    H176486   6.357   4.865   2.689  0.2580 -1.4440 -1.0974
18357TIP3    H276487   6.483   4.948   2.692 -1.0351  0.5617 -0.1435
18358TIP3   OH276488   5.706   6.721  16.400  0.5601  0.3216  0.2531
18358TIP3    H176489   5.686   6.690  16.312 -1.5907 -2.3469  1.5325
18358TIP3    H276490   5.801   6.737  16.399  0.7498 -0.4956 -2.2583
18359TIP3   OH276491   6.706   1.910   3.095  0.0559 -0.8033 -0.1097
18359TIP3    H176492   6.667   1.966   3.027 -0.4520 -1.2537 -0.1949
18359TIP3    H276493   6.769   1.855   3.048  0.4726 -0.3944 -0.0437
18360TIP3   OH276494   3.218   5.126  12.056 -0.1443  0.0792  0.3654
18360TIP3    H176495   3.226   5.199  12.118 -0.4361 -0.2293  0.7739
18360TIP3    H276496   3.301   5.079  12.063  0.4730  0.9804 -0.6944
18361TIP3   OH276497   3.951   0.945   4.964  0.2606  0.0552 -0.5378
18361TIP3    H176498   3.877   0.971   4.910 -0.2800  1.1595  0.6790
18361TIP3    H276499   3.974   1.025   5.013  1.1465 -0.7304  0.3708
18362TIP3   OH276500   1.335   0.458  13.602  0.0158 -0.4689 -0.4778
18362TIP3    H176501   1.320   0.503  13.519 -1.2078 -0.7070 -0.3977
18362TIP3    H276502   1.430   0.443  13.603  0.2556  0.8241 -1.1490
18363TIP3   OH276503   1.645   2.651  16.170  0.4044 -0.2555 -0.6952
18363TIP3    H176504   1.589   2.581  16.203 -0.0186 -0.0145 -0.8863
18363TIP3    H276505   1.695   2.681  16.246  1.0043 -1.1427 -0.7253
18364TIP3   OH276506   5.675   5.652   4.410  0.6734  0.5610 -0.2051
18364TIP3    H176507   5.689   5.560   4.389  0.5121  0.3247  0.7072
18364TIP3    H276508   5.620   5.684   4.339 -0.3162 -0.3614  0.1277
18365TIP3   OH276509   1.009   1.408  12.419 -0.6609 -0.1649 -0.4184
18365TIP3    H176510   1.029   1.418  12.512  1.2204  0.3694 -0.8431
18365TIP3    H276511   1.085   1.361  12.384 -0.5171  1.1856 -1.9910
18366TIP3   OH276512   4.644   0.233  16.879  0.2599  0.1948 -0.2140
18366TIP3    H176513   4.654   0.139  16.894 -0.5049  0.0460 -0.5998
18366TIP3    H276514   4.550   0.249  16.889  0.3534  0.8757 -0.3860
18367TIP3   OH276515   4.009   4.186  14.824  0.4509  0.1015  0.3954
18367TIP3    H176516   3.978   4.253  14.764 -0.3793 -0.4344  0.2058
18367TIP3    H276517   4.006   4.105  14.773 -1.7208 -0.6331  1.5293
18368TIP3   OH276518   2.815   1.386   0.976 -0.5254 -0.5060 -0.4879
18368TIP3    H176519   2.733   1.338   0.965 -1.6959  1.0227  1.1450
18368TIP3    H276520   2.794   1.476   0.951  0.2347  0.2188  1.3232
18369TIP3   OH276521   1.456   6.503   5.370 -0.2385  0.0802  0.2988
18369TIP3    H176522   1.388   6.525   5.306 -0.2531 -1.9028 -0.4563
18369TIP3    H276523   1.450   6.571   5.437 -0.6117  1.9028 -1.5065
18370TIP3   OH276524   3.125   2.842   1.287 -0.2308 -0.3051  0.2202
18370TIP3    H176525   3.057   2.793   1.240  0.2489 -2.7395  1.8975
18370TIP3    H276526   3.083   2.867   1.370  0.9209 -2.1436  1.4274
18371TIP3   OH276527   3.337   6.092  10.769 -0.1706 -0.0226 -0.1101
18371TIP3    H176528   3.311   6.098  10.677  1.4126 -1.0395 -0.6581
18371TIP3    H276529   3.421   6.138  10.774  1.3795 -2.6403  0.0801
18372TIP3   OH276530   3.772   3.943  10.489 -0.3984 -0.0666 -0.2111
18372TIP3    H176531   3.701   3.986  10.537  0.2127  1.3472 -0.5485
18372TIP3    H276532   3.727   3.886  10.426 -1.2145 -0.7038  0.9016
18373TIP3   OH276533   5.203   4.705  11.916 -0.0071 -0.4390 -0.1236
18373TIP3    H176534   5.199   4.689  11.822  0.4239  2.9503 -0.8678
18373TIP3    H276535   5.296   4.721  11.933 -0.3310  1.0865  0.3905
18374TIP3   OH276536   5.179   4.025   2.477  0.4648 -0.4542 -0.6935
18374TIP3    H176537   5.139   4.057   2.396 -0.9377 -1.2247 -0.3433
18374TIP3    H276538   5.155   4.090   2.543  1.5223  0.1212 -0.8587
18375TIP3   OH276539   5.239   0.287   3.362  0.0738 -0.4129  0.2717
18375TIP3    H176540   5.306   0.319   3.302 -0.5360  1.2735  0.4208
18375TIP3    H276541   5.211   0.203   3.325  0.7359 -0.0934 -0.9949
18376TIP3   OH276542   4.424   1.079   0.885  0.0156  0.3155  0.1205
18376TIP3    H176543   4.443   1.151   0.945  3.2354 -0.2206 -0.0756
18376TIP3    H276544   4.467   1.104   0.803 -0.0101 -1.1990 -0.3824
18377TIP3   OH276545   6.707   4.609   2.508 -0.0544  0.5743 -0.2785
18377TIP3    H176546   6.656   4.622   2.587  0.0149  1.8943 -0.4345
18377TIP3    H276547   6.761   4.532   2.527  1.5935  2.1497  1.8257
18378TIP3   OH276548   1.442   3.821   4.920  0.3272  0.4000 -0.0910
18378TIP3    H176549   1.467   3.794   5.008  1.4988  0.0447 -0.5199
18378TIP3    H276550   1.483   3.906   4.908  0.9762  0.0214 -0.6312
18379TIP3   OH276551   1.529   4.646   2.689  0.1050 -0.1482 -0.1786
18379TIP3    H176552   1.512   4.646   2.595  0.6616 -1.2593 -0.2997
18379TIP3    H276553   1.456   4.694   2.727 -1.6714 -2.0785 -0.9340
18380TIP3   OH276554   5.888   4.481  14.148 -0.5540  0.0570 -0.6006
18380TIP3    H176555   5.933   4.492  14.064  0.3075  1.0971 -0.0360
18380TIP3    H276556   5.957   4.495  14.213 -1.5539  0.9934  0.2948
18381TIP3   OH276557   4.282   2.875  16.269  0.1581 -0.3235 -1.0176
18381TIP3    H176558   4.372   2.846  16.252  0.2274 -1.0867  0.4928
18381TIP3    H276559   4.291   2.942  16.336 -0.2683  1.1053 -2.3281
18382TIP3   OH276560   6.269   1.816   3.430 -0.4569 -0.1540 -0.1847
18382TIP3    H176561   6.350   1.765   3.437 -0.7200 -0.3424  2.7871
18382TIP3    H276562   6.238   1.799   3.341  2.8032  0.0642 -1.5042
18383TIP3   OH276563   4.115   0.909  10.721 -0.8032 -0.4174  0.4127
18383TIP3    H176564   4.195   0.928  10.769 -0.2875  0.3070 -0.7031
18383TIP3    H276565   4.105   0.981  10.659 -0.4492 -2.1744 -1.8597
18384TIP3   OH276566   5.303   2.821  12.078 -0.4018 -0.6399  0.4073
18384TIP3    H176567   5.209   2.837  12.068 -0.1489  0.3221 -0.7504
18384TIP3    H276568   5.340   2.907  12.098  0.1939 -1.0848  1.2882
18385TIP3   OH276569   1.759   6.766   5.938  0.1818  0.0490 -0.2210
18385TIP3    H176570   1.685   6.706   5.946  0.6699 -0.3719  1.5438
18385TIP3    H276571   1.834   6.716   5.972  0.7202  1.4221  0.6949
18386TIP3   OH276572   5.035   4.910  16.724  0.0831  0.5097 -0.0535
18386TIP3    H176573   4.969   4.969  16.761 -0.2222 -0.7559  1.5249
18386TIP3    H276574   5.000   4.823  16.739  1.5763 -0.1514 -0.2667
18387TIP3   OH276575   0.249   3.028   4.636  0.4673  0.0419 -0.5598
18387TIP3    H176576   0.306   3.003   4.709 -0.9931 -0.0368  0.6006
18387TIP3    H276577   0.241   2.948   4.583 -0.6603 -0.7725  0.7443
18388TIP3   OH276578   4.974   2.773  15.460 -0.3926 -0.1116  0.0836
18388TIP3    H176579   4.926   2.853  15.440 -1.7344 -0.0415  3.0631
18388TIP3    H276580   4.908   2.712  15.493  1.0767 -1.2398  1.0967
18389TIP3   OH276581   1.220   0.662   2.427  0.0211 -0.4722  0.1857
18389TIP3    H176582   1.147   0.603   2.414  1.3453 -2.2618  0.4628
18389TIP3    H276583   1.284   0.637   2.359  0.7608  0.4163  0.5245
18390TIP3   OH276584   2.501   2.447  14.241  0.0703  0.1565 -0.0461
18390TIP3    H176585   2.506   2.352  14.257  2.1131  0.0512 -0.9099
18390TIP3    H276586   2.491   2.454  14.146  4.2398  0.6810 -0.6630
18391TIP3   OH276587   4.849   2.891  11.582  0.3012 -0.1291 -0.2389
18391TIP3    H176588   4.873   2.974  11.542 -1.5818 -0.1436 -1.5281
18391TIP3    H276589   4.890   2.824  11.528 -1.2655 -0.1067 -1.5419
18392TIP3   OH276590   5.669   4.354  15.164 -0.0412 -1.3154  0.1308
18392TIP3    H176591   5.733   4.349  15.093  0.5794 -0.5414  0.6098
18392TIP3    H276592   5.705   4.420  15.224 -0.7964 -1.5929  0.9140
18393TIP3   OH276593   4.918   1.429  11.633 -0.1206 -0.2543  0.3387
18393TIP3    H176594   4.981   1.478  11.685  1.2186 -0.9616 -0.5711
18393TIP3    H276595   4.924   1.468  11.545 -1.9203  0.5371  0.5203
18394TIP3   OH276596   2.430   5.208  13.398 -0.7427 -0.1573 -0.1458
18394TIP3    H176597   2.441   5.248  13.312 -0.7349  0.3379  0.0789
18394TIP3    H276598   2.519   5.187  13.427 -0.7820 -0.8363 -0.4876
18395TIP3   OH276599   5.707   0.184  13.303 -0.1931  0.3176 -0.8117
18395TIP3    H176600   5.713   0.177  13.399  4.4860 -0.9229 -0.9909
18395TIP3    H276601   5.668   0.101  13.276  0.6186 -0.3349 -0.0382
18396TIP3   OH276602   6.683   4.323  14.489  0.3979  0.7530 -0.0688
18396TIP3    H176603   6.635   4.314  14.406 -0.1998 -0.6608  0.4089
18396TIP3    H276604   6.665   4.413  14.517 -0.6661  0.7484 -0.6959
18397TIP3   OH276605   3.307   1.916   2.550 -0.2572  0.3586 -0.5488
18397TIP3    H176606   3.221   1.882   2.576 -0.5555  1.9428  0.7447
18397TIP3    H276607   3.288   2.005   2.520  0.8268  0.3941 -1.1515
18398TIP3   OH276608   5.606   4.577   3.819 -0.5801 -0.4107  0.1472
18398TIP3    H176609   5.654   4.574   3.902 -0.9566 -0.0585  0.3802
18398TIP3    H276610   5.523   4.619   3.841 -0.4253  0.2707 -0.5379
18399TIP3   OH276611   2.395   1.787   5.805 -0.1487 -0.3394  0.7488
18399TIP3    H176612   2.473   1.736   5.824 -0.5161 -0.9869  0.5475
18399TIP3    H276613   2.428   1.873   5.780  0.6456 -1.3096 -1.7846
18400TIP3   OH276614   2.872   4.890   3.023  0.1706 -0.3034  0.1503
18400TIP3    H176615   2.795   4.933   3.061 -0.0094  0.7411 -1.3423
18400TIP3    H276616   2.880   4.926   2.935  2.7739  0.1462  0.4789
18401TIP3   OH276617   0.255   1.415  10.760 -0.1718 -0.3969  0.2380
18401TIP3    H176618   0.189   1.403  10.829 -0.2894 -2.4819 -0.1646
18401TIP3    H276619   0.305   1.334  10.762  1.2650  0.4497 -0.6580
18402TIP3   OH276620   0.775   0.717  14.910  0.4669  0.1124 -0.1949
18402TIP3    H176621   0.774   0.810  14.934 -0.0182  0.0911 -0.1113
18402TIP3    H276622   0.711   0.677  14.969 -1.7352  0.2643 -2.3229
18403TIP3   OH276623   3.927   0.436   6.495 -0.6378  0.3927 -0.1815
18403TIP3    H176624   4.004   0.380   6.503 -1.4411 -0.5582  1.3614
18403TIP3    H276625   3.880   0.400   6.419  0.7066  1.3894 -1.5474
18404TIP3   OH276626   4.300   4.435   1.953 -0.1417 -0.3067 -0.3496
18404TIP3    H176627   4.257   4.519   1.936  1.0561  0.6638  1.1860
18404TIP3    H276628   4.355   4.420   1.876  0.8553  1.1498  0.0351
18405TIP3   OH276629   4.018   0.229   6.178 -0.1625 -0.8620 -0.7254
18405TIP3    H176630   3.969   0.152   6.208 -0.6458 -0.5976 -0.8234
18405TIP3    H276631   4.056   0.265   6.258 -0.1760 -1.0382 -0.6392
18406TIP3   OH276632   1.003   6.651   0.648 -0.4686 -0.3137 -0.4158
18406TIP3    H176633   1.079   6.639   0.704  0.2804  0.2073 -1.3062
18406TIP3    H276634   0.956   6.567   0.652 -1.9226  0.4732  3.0953
18407TIP3   OH276635   5.910   2.881  13.092  0.3473 -0.2649  0.1318
18407TIP3    H176636   5.821   2.898  13.123  0.8649  1.1547  0.9438
18407TIP3    H276637   5.961   2.958  13.120  1.6231 -0.5728 -1.1778
18408TIP3   OH276638   6.021   1.411  17.184 -0.0338  0.1718  0.2383
18408TIP3    H176639   6.038   1.436  17.094 -0.4554 -0.8363 -0.1363
18408TIP3    H276640   6.107   1.398  17.223  0.1442 -0.2161 -0.2738
18409TIP3   OH276641   3.189   1.323   3.619  0.5624  0.1857  0.2221
18409TIP3    H176642   3.258   1.388   3.629  0.7148  0.1684 -0.6748
18409TIP3    H276643   3.232   1.248   3.579  0.2814 -0.2900  0.7940
18410TIP3   OH276644   0.778   5.481  12.822 -0.0835  0.0205  0.8160
18410TIP3    H176645   0.783   5.439  12.907 -4.3684 -1.4964  0.5195
18410TIP3    H276646   0.750   5.571  12.840  0.0271  0.0090  1.0400
18411TIP3   OH276647   4.595   3.637   2.553  0.0648  0.4830  0.7008
18411TIP3    H176648   4.573   3.625   2.645  3.2474  0.4494  1.5679
18411TIP3    H276649   4.610   3.549   2.520  0.8765  0.6047  0.7236
18412TIP3   OH276650   6.202   3.663  15.481  0.1831  0.3736  0.2882
18412TIP3    H176651   6.138   3.693  15.416  0.5172  0.4547 -0.0054
18412TIP3    H276652   6.198   3.568  15.476  0.7708  0.3801 -0.4141
18413TIP3   OH276653   5.532   3.122   0.918 -0.4039  0.2896 -0.4447
18413TIP3    H176654   5.537   3.080   0.832  1.7336  2.2660 -1.4043
18413TIP3    H276655   5.607   3.087   0.966  0.3416  1.5857 -0.6163
18414TIP3   OH276656   2.231   1.498   2.404  0.2889 -0.6201  0.5842
18414TIP3    H176657   2.291   1.571   2.419  0.4853 -0.6399 -0.0662
18414TIP3    H276658   2.151   1.522   2.450  0.4811 -0.1596  0.6762
18415TIP3   OH276659   3.934   1.805  13.547 -0.4257 -0.2452 -0.0164
18415TIP3    H176660   3.991   1.824  13.621  1.9981 -0.5660 -1.6761
18415TIP3    H276661   3.878   1.734  13.577  1.0645 -0.9345  1.2515
18416TIP3   OH276662   5.038   6.773   0.048 -0.1431  0.5594 -0.0332
18416TIP3    H176663   5.049   6.689   0.004  0.5173  0.9577 -0.6599
18416TIP3    H276664   4.952   6.768   0.090 -0.2962 -0.2597 -0.4357
18417TIP3   OH276665   4.664   1.954  16.220 -0.1106 -0.4907 -0.5371
18417TIP3    H176666   4.644   1.893  16.148 -0.2135 -1.2619  0.1325
18417TIP3    H276667   4.753   1.983  16.203  0.1385 -1.2543 -0.5749
18418TIP3   OH276668   4.425   4.192  11.798 -0.0633 -0.6605 -0.3187
18418TIP3    H176669   4.379   4.256  11.853 -0.7856 -1.2137 -0.2735
18418TIP3    H276670   4.448   4.121  11.857  0.2889 -0.6816 -0.4757
18419TIP3   OH276671   2.577   5.909  13.995 -0.4620 -0.5827  0.4187
18419TIP3    H176672   2.666   5.932  13.969  0.0342 -0.6858  1.9422
18419TIP3    H276673   2.530   5.992  13.996 -0.8923 -0.7200 -2.0645
18420TIP3   OH276674   4.046   5.117   4.140  0.7143  0.5604  0.6344
18420TIP3    H176675   4.004   5.143   4.057 -1.7623  0.4875  1.7770
18420TIP3    H276676   4.124   5.173   4.145  0.0138  1.7800 -0.9454
18421TIP3   OH276677   4.393   3.950  16.741  0.2306 -0.3491 -0.2012
18421TIP3    H176678   4.382   3.895  16.663 -0.4434 -1.3493  0.5699
18421TIP3    H276679   4.309   3.946  16.785  0.9531 -0.7875  1.1950
18422TIP3   OH276680   2.644   1.601   3.307  0.3301  0.3724 -0.6606
18422TIP3    H176681   2.724   1.568   3.266 -0.1379  1.8806 -2.9929
18422TIP3    H276682   2.659   1.695   3.318  0.3689  0.1115  2.7276
18423TIP3   OH276683   3.328   5.235   0.182 -0.5187 -0.3680 -0.4764
18423TIP3    H176684   3.311   5.328   0.192 -0.1488 -0.4179  0.8777
18423TIP3    H276685   3.375   5.228   0.099  1.0085  0.8841  0.2317
18424TIP3   OH276686   2.613   1.645  16.682 -0.2924  0.2739 -0.3899
18424TIP3    H176687   2.652   1.710  16.623  0.8588  0.0147  0.0600
18424TIP3    H276688   2.636   1.676  16.770  1.2754 -1.3193 -0.1863
18425TIP3   OH276689   2.438   1.713   1.774 -0.0228  0.2486  0.5660
18425TIP3    H176690   2.411   1.746   1.859 -0.7898 -3.2721  1.8584
18425TIP3    H276691   2.360   1.719   1.720  0.3273  2.0147  0.1884
18426TIP3   OH276692   2.412   5.195   5.705  0.6151 -0.2917  0.6961
18426TIP3    H176693   2.471   5.228   5.774  0.6757 -0.4490  0.7206
18426TIP3    H276694   2.357   5.270   5.683  1.1136 -0.0155  0.3681
18427TIP3   OH276695   1.250   1.032   4.461  0.2477  0.3310 -0.6135
18427TIP3    H176696   1.303   1.047   4.383  2.9177  0.8446  1.1563
18427TIP3    H276697   1.186   1.104   4.461  0.5898  0.6599 -1.9831
18428TIP3   OH276698   1.691   2.003  16.537  0.5892  0.0141  0.3927
18428TIP3    H176699   1.672   2.010  16.630  1.7380 -1.5816  0.7835
18428TIP3    H276700   1.713   1.911  16.523  2.7539  0.6586 -0.9642
18429TIP3   OH276701   3.569   1.220  13.595  0.1260 -0.5262  0.2242
18429TIP3    H176702   3.539   1.207  13.505  2.5602 -2.5268 -0.3963
18429TIP3    H276703   3.651   1.269  13.586  0.0322 -0.1309  1.4168
18430TIP3   OH276704   6.596   4.978   6.098 -0.3672 -0.2268  0.4415
18430TIP3    H176705   6.672   4.940   6.142  0.3074  1.0790  0.4728
18430TIP3    H276706   6.563   5.043   6.159  0.7747  1.8442 -1.0056
18431TIP3   OH276707   4.599   6.558  16.951  0.4795 -0.2588 -0.2667
18431TIP3    H176708   4.565   6.569  17.040 -0.5246  1.6322 -0.8072
18431TIP3    H276709   4.612   6.464  16.941  1.1745 -0.4706  2.0525
18432TIP3   OH276710   5.456   5.524  15.609 -0.2426 -0.1911  0.1133
18432TIP3    H176711   5.399   5.448  15.623 -0.9891  0.1806 -0.8002
18432TIP3    H276712   5.537   5.486  15.573 -0.6376 -0.5620 -0.4113
18433TIP3   OH276713   2.941   4.488   4.406  1.0341  0.1552  0.2042
18433TIP3    H176714   2.909   4.400   4.387  2.6568 -0.5234  0.4294
18433TIP3    H276715   3.013   4.475   4.468  0.1504  1.8012  1.6581
18434TIP3   OH276716   1.372   0.979  16.737 -0.0693  0.0219  0.2943
18434TIP3    H176717   1.334   0.894  16.716 -1.2563  1.0482 -2.1816
18434TIP3    H276718   1.316   1.014  16.806 -2.8818  0.8183 -2.1648
18435TIP3   OH276719   4.179   6.450   3.123  0.1903  0.2547 -0.3641
18435TIP3    H176720   4.187   6.510   3.048  1.5670  0.6110  0.0523
18435TIP3    H276721   4.143   6.370   3.085 -1.9471  1.3841 -0.8961
18436TIP3   OH276722   4.036   5.150  12.697  0.4578 -0.5971 -0.1988
18436TIP3    H176723   3.975   5.220  12.675  0.6728 -0.2698  0.2195
18436TIP3    H276724   4.024   5.084  12.628  0.3009 -0.1171 -0.6388
18437TIP3   OH276725   4.552   0.852  12.187  0.0439  0.2576  0.2472
18437TIP3    H176726   4.608   0.860  12.264 -1.8252 -0.4372  1.7702
18437TIP3    H276727   4.495   0.929  12.190  0.7330  0.8624 -1.1720
18438TIP3   OH276728   4.550   1.092  14.676  0.4889  0.2161  0.2761
18438TIP3    H176729   4.458   1.067  14.668  0.7726 -1.0995  0.7984
18438TIP3    H276730   4.584   1.086  14.587  0.3928 -0.7566  0.2858
18439TIP3   OH276731   3.337   2.017  12.822  0.0514 -0.1894  0.1177
18439TIP3    H176732   3.421   2.020  12.776 -0.4343 -0.7674 -0.8547
18439TIP3    H276733   3.341   1.938  12.875  0.9649  0.9554  1.8145
18440TIP3   OH276734   2.296   2.158   4.802  0.3785 -0.4863  0.4926
18440TIP3    H176735   2.378   2.206   4.787  0.5394 -0.6170  0.9479
18440TIP3    H276736   2.228   2.226   4.804  0.6556 -0.2165  1.5415
18441TIP3   OH276737   4.031   5.044  13.445  0.4744  0.1709 -0.9267
18441TIP3    H176738   4.090   5.120  13.450 -2.0955  2.2613 -0.0748
18441TIP3    H276739   3.993   5.038  13.532  0.9688 -2.5211 -0.8245
18442TIP3   OH276740   3.855   1.619   2.744 -0.4769  0.5268  0.5120
18442TIP3    H176741   3.821   1.668   2.668  1.1461  0.6312 -0.1888
18442TIP3    H276742   3.876   1.687   2.808 -1.1387  0.4905  0.7809
18443TIP3   OH276743   0.306   6.751   4.301  0.4000 -0.0596 -0.3048
18443TIP3    H176744   0.395   6.785   4.294  0.4735 -0.2730 -0.4049
18443TIP3    H276745   0.309   6.666   4.258  0.3438 -0.4428  0.4339
18444TIP3   OH276746   0.733   5.552  14.695 -0.5029 -0.3660 -0.5351
18444TIP3    H176747   0.640   5.540  14.678 -0.4994 -3.1449  0.7826
18444TIP3    H276748   0.741   5.542  14.790  1.2552 -1.4823 -0.7521
18445TIP3   OH276749   0.318   6.542  14.675  0.0775 -0.2009  0.3098
18445TIP3    H176750   0.231   6.581  14.663  1.1237  1.9266 -0.9723
18445TIP3    H276751   0.348   6.577  14.759  0.2460  0.2025  0.0833
18446TIP3   OH276752   2.824   1.070   4.613  0.0157  0.1516  0.3025
18446TIP3    H176753   2.870   1.037   4.535 -1.3155  0.3869 -0.6136
18446TIP3    H276754   2.894   1.105   4.668  0.9690  0.2411 -0.9061
18447TIP3   OH276755   0.685   5.574  12.054 -0.2604 -0.0964 -0.4643
18447TIP3    H176756   0.667   5.480  12.047 -0.8812  0.0646 -1.2680
18447TIP3    H276757   0.610   5.609  12.102 -0.1358  0.0221 -0.3558
18448TIP3   OH276758   1.786   1.495   0.102 -0.0255 -0.1410  0.5326
18448TIP3    H176759   1.753   1.487   0.192 -0.0922  1.0129  0.6183
18448TIP3    H276760   1.748   1.576   0.069  0.4376 -0.2708 -0.3579
18449TIP3   OH276761   5.389   5.646   0.341  0.2699 -0.5601  0.0963
18449TIP3    H176762   5.296   5.666   0.352  0.2619  1.2417 -2.2913
18449TIP3    H276763   5.393   5.552   0.327 -1.4942 -0.4211 -1.7200
18450TIP3   OH276764   6.032   2.044  16.412 -0.2414 -0.0731  0.1337
18450TIP3    H176765   6.093   2.118  16.419 -1.7598  1.1995  0.5218
18450TIP3    H276766   5.977   2.050  16.490 -0.8723 -1.1877 -0.1906
18451TIP3   OH276767   5.194   1.079   4.775  0.1706  0.2053  0.0721
18451TIP3    H176768   5.239   1.077   4.860  0.5900  0.3115 -0.1480
18451TIP3    H276769   5.112   1.032   4.791  0.5234 -0.3195  0.3796
18452TIP3   OH276770   5.939   0.819  15.740 -0.2226  0.2315 -0.0919
18452TIP3    H176771   5.873   0.859  15.797  0.8694 -0.2763  1.6244
18452TIP3    H276772   5.918   0.850  15.652  0.8199  5.0130  1.1084
18453TIP3   OH276773   3.303   0.603   3.141 -0.0273  0.1716  0.0397
18453TIP3    H176774   3.254   0.532   3.098 -0.3370  1.4143 -1.7611
18453TIP3    H276775   3.257   0.617   3.224 -1.8914  0.3655 -0.9807
18454TIP3   OH276776   0.100   0.464  15.835 -0.3986  0.7920  0.0956
18454TIP3    H176777   0.069   0.407  15.765  1.2775 -0.2490  0.1564
18454TIP3    H276778   0.138   0.405  15.899  0.2549  1.8956  0.7636
18455TIP3   OH276779   6.758   6.681   5.684  0.0096  0.0227  0.5215
18455TIP3    H176780   6.837   6.735   5.677  0.5104 -0.9201 -2.2338
18455TIP3    H276781   6.687   6.739   5.655  0.0503  0.1832  0.7443
18456TIP3   OH276782   4.410   6.505  13.767 -0.1171  0.3795 -0.1675
18456TIP3    H176783   4.333   6.498  13.710 -0.4098 -1.7063  0.3943
18456TIP3    H276784   4.380   6.473  13.852  0.7904  1.7377  0.6965
18457TIP3   OH276785   1.500   1.865   1.717 -0.5494 -0.8738 -0.1622
18457TIP3    H176786   1.541   1.860   1.631  0.5229 -2.4332  0.4009
18457TIP3    H276787   1.573   1.877   1.778 -1.3098  0.4431  0.5380
18458TIP3   OH276788   2.008   5.359  14.639 -0.1914  0.1327 -0.7189
18458TIP3    H176789   2.023   5.374  14.546  3.1683 -0.5122 -0.4268
18458TIP3    H276790   2.012   5.264  14.649  1.9484  0.2645  0.3062
18459TIP3   OH276791   5.796   4.474  11.440  0.1769  0.2249  0.2500
18459TIP3    H176792   5.807   4.514  11.354 -0.1938  2.3461  1.1443
18459TIP3    H276793   5.759   4.388  11.421 -0.4657  0.8711 -1.6773
18460TIP3   OH276794   5.157   5.752  13.268  0.1191  0.0337 -0.2559
18460TIP3    H176795   5.217   5.824  13.249  0.8298 -0.6583 -0.6892
18460TIP3    H276796   5.170   5.691  13.196 -0.3994 -0.5820  0.1635
18461TIP3   OH276797   3.987   0.474  14.417  0.2904 -0.5034 -0.1111
18461TIP3    H176798   3.906   0.447  14.373  1.1303 -0.0919 -1.9775
18461TIP3    H276799   3.985   0.570  14.414 -0.1378 -0.4050  1.7734
18462TIP3   OH276800   1.836   3.898   2.137 -0.0742  0.5967  0.0611
18462TIP3    H176801   1.885   3.846   2.200  1.6441 -0.0089 -1.6973
18462TIP3    H276802   1.796   3.834   2.078 -0.9784  1.1779  0.0174
18463TIP3   OH276803   4.586   5.572   0.411  0.3177  0.3075 -0.2529
18463TIP3    H176804   4.677   5.545   0.414  0.5243  0.7643 -1.5009
18463TIP3    H276805   4.588   5.667   0.418 -0.2494  0.2137  1.9344
18464TIP3   OH276806   6.369   0.269   3.728  0.2813 -0.5423  0.1395
18464TIP3    H176807   6.331   0.182   3.720  1.4986 -1.0720 -0.1428
18464TIP3    H276808   6.298   0.324   3.761 -1.0231 -1.2516 -1.3739
18465TIP3   OH276809   4.746   5.169  12.800  0.1093 -0.3841 -0.0366
18465TIP3    H176810   4.683   5.239  12.817 -0.6419 -1.0961  0.1721
18465TIP3    H276811   4.699   5.089  12.822  0.1050 -1.1604 -2.5788
18466TIP3   OH276812   3.105   6.694  14.882 -0.1527  0.4265 -0.3811
18466TIP3    H176813   3.052   6.646  14.819  1.2944  1.0242 -2.1510
18466TIP3    H276814   3.114   6.635  14.957 -3.5503  0.4653  0.2072
18467TIP3   OH276815   5.787   5.889  16.079  0.3172 -0.8691  0.7384
18467TIP3    H176816   5.730   5.839  16.137 -2.6517  1.6089  0.2433
18467TIP3    H276817   5.773   5.850  15.993  1.3894 -1.8276  0.9732
18468TIP3   OH276818   5.567   5.719   1.907  0.2006  0.1036 -0.6420
18468TIP3    H176819   5.498   5.722   1.841  0.6813  1.2873 -1.1065
18468TIP3    H276820   5.550   5.796   1.963  1.4166  0.6920 -1.0539
18469TIP3   OH276821   1.136   2.428  12.161  0.3778  0.3313  0.0948
18469TIP3    H176822   1.062   2.368  12.172 -0.0837  1.3653  4.0760
18469TIP3    H276823   1.208   2.387  12.209  1.1128  1.3436 -0.1080
18470TIP3   OH276824   6.038   2.998   1.889  0.1622  0.5603  0.1345
18470TIP3    H176825   6.107   3.036   1.944  0.2212 -1.4219  1.5423
18470TIP3    H276826   5.959   3.004   1.943  0.2172 -1.3997  0.5132
18471TIP3   OH276827   3.948   6.484   2.326  0.0631  0.2031  0.0359
18471TIP3    H176828   3.912   6.460   2.411 -0.2383 -1.5480 -0.5443
18471TIP3    H276829   3.922   6.575   2.314 -0.3612  0.3099  1.5685
18472TIP3   OH276830   4.696   5.154   1.165  0.4221 -0.6714 -0.2230
18472TIP3    H176831   4.725   5.141   1.255 -0.9319  0.1011  0.3590
18472TIP3    H276832   4.665   5.245   1.163  0.8287 -0.5395 -1.5907
18473TIP3   OH276833   3.283   5.944   2.082 -0.2750 -0.0247  0.2748
18473TIP3    H176834   3.257   5.895   2.160  3.5567 -0.9593  1.1679
18473TIP3    H276835   3.319   6.026   2.116  0.9763 -0.2249 -0.4899
18474TIP3   OH276836   3.717   1.821  15.814 -0.3687  0.2110  0.2148
18474TIP3    H176837   3.744   1.908  15.784 -1.4867  0.3520 -0.4515
18474TIP3    H276838   3.728   1.765  15.737 -1.1148  0.0975  0.1846
18475TIP3   OH276839   0.982   5.646  11.903  0.3127  0.0152 -0.3217
18475TIP3    H176840   1.040   5.627  11.977 -1.7681 -1.4777  1.0485
18475TIP3    H276841   0.936   5.726  11.929  0.6122  0.3102 -0.6893
18476TIP3   OH276842   0.821   5.265  12.653 -0.2580  0.4439 -0.7225
18476TIP3    H176843   0.812   5.312  12.736  1.5067  0.1863 -0.3427
18476TIP3    H276844   0.807   5.173  12.676 -3.7022  0.6684 -1.4632
18477TIP3   OH276845   3.964   2.496   0.874  0.1597 -0.0098  0.7064
18477TIP3    H176846   3.994   2.571   0.824  0.1626 -0.5921 -0.1890
18477TIP3    H276847   3.996   2.420   0.826 -1.2937 -0.6266  0.6370
18478TIP3   OH276848   1.261   3.798  13.653 -0.0603 -0.2601 -0.5342
18478TIP3    H176849   1.333   3.796  13.716 -0.6156  3.5030  0.4424
18478TIP3    H276850   1.183   3.776  13.704 -0.2160  0.6387 -0.3619
18479TIP3   OH276851   3.694   1.626  12.331  0.0655 -0.5096  0.5672
18479TIP3    H176852   3.769   1.606  12.275  0.0306 -1.2137  0.7653
18479TIP3    H276853   3.617   1.602  12.279  0.0311 -1.1102  0.8900
18480TIP3   OH276854   1.165   2.714  12.259 -0.0643 -0.2343  0.4087
18480TIP3    H176855   1.125   2.629  12.243 -2.9203  0.7795  1.5055
18480TIP3    H276856   1.223   2.700  12.334  3.8617 -2.2562 -2.6182
18481TIP3   OH276857   5.245   5.304   4.452 -1.1053 -0.0801  0.1685
18481TIP3    H176858   5.338   5.288   4.469 -1.1610  0.6570  1.2515
18481TIP3    H276859   5.210   5.219   4.426 -0.0441 -0.2760 -0.6801
18482TIP3   OH276860   2.789   5.332  15.337  0.3287  0.0148 -0.4014
18482TIP3    H176861   2.801   5.299  15.426 -1.6466  0.2718  0.0061
18482TIP3    H276862   2.875   5.321  15.296  1.2555 -0.2486  1.4702
18483TIP3   OH276863   3.316   6.087  11.287  0.5666  0.2982  0.1761
18483TIP3    H176864   3.237   6.130  11.319 -0.2321  0.0868 -1.4452
18483TIP3    H276865   3.378   6.158  11.273  0.6524  0.4773  1.3203
18484TIP3   OH276866   2.593   1.935  15.916 -0.5265  0.5440  0.4106
18484TIP3    H176867   2.579   1.865  15.852 -0.4673 -0.5761  1.5955
18484TIP3    H276868   2.677   1.973  15.891 -1.1162  1.0225 -0.9719
18485TIP3   OH276869   0.990   1.981  14.215 -0.2039 -0.6835  0.1176
18485TIP3    H176870   1.062   1.933  14.173 -1.4436 -0.3501 -2.6615
18485TIP3    H276871   1.019   1.996  14.304  2.6682 -1.5660 -0.5731
18486TIP3   OH276872   5.195   1.490   1.667 -0.0032 -0.5905 -0.0598
18486TIP3    H176873   5.264   1.475   1.603 -0.7871 -0.6012 -0.9280
18486TIP3    H276874   5.129   1.543   1.620 -0.6251 -0.6531  0.7102
18487TIP3   OH276875   2.900   2.397  16.317  0.0550 -0.0026 -0.1787
18487TIP3    H176876   2.807   2.377  16.316 -0.3417  1.6658  0.5699
18487TIP3    H276877   2.913   2.448  16.396  1.3327  0.9898 -0.9955
18488TIP3   OH276878   1.474   5.698  14.229  0.3626 -0.2459  0.2710
18488TIP3    H176879   1.548   5.759  14.239 -0.0506  0.2822  0.1183
18488TIP3    H276880   1.497   5.645  14.153  0.4295  0.1378  0.0220
18489TIP3   OH276881   0.945   4.918  13.871  0.3634  0.4633 -0.6207
18489TIP3    H176882   1.002   4.991  13.845  0.2263  0.8115  0.0372
18489TIP3    H276883   0.961   4.851  13.804  0.3003  1.1860 -1.3758
18490TIP3   OH276884   2.052   4.293  13.790  0.4464  0.2392 -0.5528
18490TIP3    H176885   2.130   4.239  13.777  0.9278  0.6983  0.2993
18490TIP3    H276886   1.985   4.231  13.818  0.5849 -0.1229 -1.0143
18491TIP3   OH276887   5.637   3.495   6.726 -0.1473 -0.3223 -0.2007
18491TIP3    H176888   5.673   3.476   6.639 -0.5207  1.7557 -0.8686
18491TIP3    H276889   5.662   3.420   6.779 -0.0888 -1.7601 -2.1473
18492TIP3   OH276890   4.103   3.403  14.235  0.5485  0.8228 -0.6489
18492TIP3    H176891   4.021   3.452  14.229 -0.3927 -0.7931 -1.8237
18492TIP3    H276892   4.093   3.349  14.314  1.2316  1.8561  0.1701
18493TIP3   OH276893   1.682   6.491  12.433  1.6328 -0.2221  0.0065
18493TIP3    H176894   1.635   6.409  12.422 -0.0333  0.5451  0.9722
18493TIP3    H276895   1.692   6.500  12.528  0.0061  1.5853  0.0799
18494TIP3   OH276896   2.804   6.643  12.158 -0.3855  0.4839  0.0408
18494TIP3    H176897   2.803   6.595  12.241 -0.8189  0.8267  0.2409
18494TIP3    H276898   2.765   6.583  12.095 -2.4122  1.1031  0.6132
18495TIP3   OH276899   4.933   2.466   1.948  0.5549 -0.5108 -0.0916
18495TIP3    H176900   4.958   2.514   2.027 -0.8848 -1.7069  1.1667
18495TIP3    H276901   4.948   2.374   1.970 -2.4457 -1.1013 -0.1157
18496TIP3   OH276902   0.691   1.591   4.016  0.1365  0.1327  0.0388
18496TIP3    H176903   0.746   1.514   4.001 -1.1475 -0.6773 -0.6920
18496TIP3    H276904   0.604   1.555   4.035 -0.8923  1.3871 -1.9268
18497TIP3   OH276905   0.783   3.615  16.461  0.4269  0.0716 -0.7225
18497TIP3    H176906   0.777   3.537  16.515  1.6056  0.2382 -0.3282
18497TIP3    H276907   0.692   3.634  16.436  0.0501 -0.9655 -0.1930
18498TIP3   OH276908   3.277   2.282   2.224  0.2261  0.4193 -0.0075
18498TIP3    H176909   3.350   2.284   2.162 -0.6135 -0.5398 -1.0630
18498TIP3    H276910   3.199   2.273   2.170 -0.5571 -0.1645  1.1675
18499TIP3   OH276911   3.461   1.572  15.456 -0.4049 -0.2748  0.4997
18499TIP3    H176912   3.396   1.634  15.424  1.5293  1.5835 -0.1239
18499TIP3    H276913   3.479   1.599  15.546  0.2466 -0.0593  0.3161
18500TIP3   OH276914   1.074   1.374  10.997 -0.7110 -0.0956 -0.1999
18500TIP3    H176915   1.044   1.454  10.955 -1.8674 -0.1994  0.3679
18500TIP3    H276916   1.102   1.318  10.924 -1.3920  0.2361 -0.7359
18501TIP3   OH276917   0.327   3.234   0.939 -0.0524 -0.4836  0.4943
18501TIP3    H176918   0.332   3.289   1.017 -0.2597  1.7624 -0.9598
18501TIP3    H276919   0.388   3.275   0.877 -0.9892 -1.2816 -1.0235
18502TIP3   OH276920   6.541   6.200  13.129  0.1097 -0.4857  0.6972
18502TIP3    H176921   6.547   6.211  13.224 -0.7123 -0.0206  0.7052
18502TIP3    H276922   6.489   6.275  13.099 -1.2626 -1.6223  0.1234
18503TIP3   OH276923   2.373   2.426  12.844  0.0565 -0.3385 -0.2707
18503TIP3    H176924   2.455   2.385  12.817  1.7051  1.3694  1.7283
18503TIP3    H276925   2.307   2.392  12.784  2.0187 -2.6344 -1.2625
18504TIP3   OH276926   2.097   4.431  10.928 -0.4433  0.7181  0.3150
18504TIP3    H176927   2.085   4.483  10.849 -0.7920  0.2822  0.0773
18504TIP3    H276928   2.011   4.432  10.971 -1.2210 -1.7466 -0.9763
18505TIP3   OH276929   5.298   3.922   6.193  0.1296  0.2467  0.1729
18505TIP3    H176930   5.211   3.919   6.233  0.6036 -0.1495  1.2173
18505TIP3    H276931   5.339   3.841   6.220  0.1459 -0.5164 -1.9735
18506TIP3   OH276932   0.625   6.422   4.405 -0.2031 -0.1258  0.5708
18506TIP3    H176933   0.662   6.375   4.479 -1.8152 -2.3138  0.1189
18506TIP3    H276934   0.531   6.404   4.410 -0.8839  2.8341  0.1116
18507TIP3   OH276935   4.947   6.728  15.613  0.0671  0.2099  0.8000
18507TIP3    H176936   4.864   6.699  15.650  1.1537 -1.3588  2.1025
18507TIP3    H276937   5.014   6.676  15.658  1.7969  1.6525  0.0323
18508TIP3   OH276938   1.495   2.199  12.648 -0.1624  0.3271  0.8579
18508TIP3    H176939   1.544   2.130  12.691  0.0338 -0.1843 -0.1535
18508TIP3    H276940   1.403   2.177  12.662 -0.1006 -0.1449  0.5477
18509TIP3   OH276941   2.825   0.417  14.980  0.1427  0.4454  0.1320
18509TIP3    H176942   2.896   0.367  14.940  0.1224  0.1225  0.4865
18509TIP3    H276943   2.783   0.462  14.907  2.7220  3.3219  0.2323
18510TIP3   OH276944   6.228   0.362  14.390 -0.3416  0.1646 -0.3935
18510TIP3    H176945   6.220   0.387  14.297  2.0242  0.3838 -0.6165
18510TIP3    H276946   6.286   0.285  14.389  0.6746  0.8646  0.9419
18511TIP3   OH276947   4.375   0.122  15.485  0.1936 -0.8158  0.0787
18511TIP3    H176948   4.439   0.068  15.439  0.4229 -1.6265  1.3189
18511TIP3    H276949   4.290   0.085  15.461  0.3011 -1.1162  0.1671
18512TIP3   OH276950   3.877   5.707   1.871  0.1808 -0.0334  0.3208
18512TIP3    H176951   3.844   5.639   1.928  0.7162  0.4453  1.2288
18512TIP3    H276952   3.914   5.773   1.930 -1.2558  1.5604 -0.4594
18513TIP3   OH276953   0.514   5.738  11.573 -0.3075 -0.0452  0.1795
18513TIP3    H176954   0.506   5.686  11.653  1.0204 -0.8546 -0.1750
18513TIP3    H276955   0.452   5.697  11.512  2.2434 -2.8084 -0.8365
18514TIP3   OH276956   1.227   6.119  16.125  0.7342 -0.1255  0.1259
18514TIP3    H176957   1.141   6.122  16.083  1.1017 -0.2634 -0.6493
18514TIP3    H276958   1.283   6.073  16.062  2.3114  3.1841 -1.0786
18515TIP3   OH276959   2.832   3.837  15.862  0.2778  0.8463  0.3907
18515TIP3    H176960   2.798   3.787  15.787  0.4834  1.2255  0.0366
18515TIP3    H276961   2.807   3.927  15.844  1.0747  1.0704  0.3384
18516TIP3   OH276962   6.055   1.084   4.228 -0.0095  0.5485  0.1530
18516TIP3    H176963   6.082   1.144   4.158  0.8937  0.3377  0.3053
18516TIP3    H276964   5.960   1.088   4.227 -0.1397 -0.7652 -2.2606
18517TIP3   OH276965   0.495   4.256  13.103 -0.2025 -0.7158 -0.1038
18517TIP3    H176966   0.529   4.299  13.024  2.1065  0.3266  1.3644
18517TIP3    H276967   0.423   4.311  13.131  0.7432  0.4825  0.0323
18518TIP3   OH276968   2.775   0.445   2.113 -0.4825  0.3833  0.3660
18518TIP3    H176969   2.736   0.400   2.039 -1.5925 -0.3785  1.3732
18518TIP3    H276970   2.829   0.513   2.074  1.1304 -1.6817 -1.2189
18519TIP3   OH276971   6.790   0.565   0.673  0.3516  0.7595  0.7671
18519TIP3    H176972   6.759   0.499   0.736 -1.0604  1.0280  0.3733
18519TIP3    H276973   6.802   0.516   0.592  3.0399  0.2200  1.3884
18520TIP3   OH276974   6.086   2.376   2.465 -0.1599  0.7915 -0.0585
18520TIP3    H176975   6.148   2.304   2.474  1.5049  2.0929 -0.4963
18520TIP3    H276976   6.088   2.398   2.372 -0.3455  1.6375  0.1242
18521TIP3   OH276977   3.378   6.078   4.001  0.6444  0.0807 -0.0943
18521TIP3    H176978   3.343   6.012   3.941  3.8480  0.5491 -2.7771
18521TIP3    H276979   3.387   6.157   3.947 -1.8374  2.5060  2.6687
18522TIP3   OH276980   5.040   6.479   5.932 -0.3207 -0.2315 -0.0681
18522TIP3    H176981   5.015   6.390   5.905 -2.6549  0.2472  0.3198
18522TIP3    H276982   5.116   6.466   5.989  0.5393 -1.8003 -1.4689
18523TIP3   OH276983   0.454   0.863  12.724 -0.6795  0.0480 -0.5109
18523TIP3    H176984   0.438   0.781  12.771  1.8861 -0.1766  0.1262
18523TIP3    H276985   0.411   0.930  12.777 -0.6998 -0.6139  0.3302
18524TIP3   OH276986   6.190   2.433  10.791 -0.0443 -0.3173  0.4969
18524TIP3    H176987   6.150   2.422  10.877  3.0476  0.5657  2.2114
18524TIP3    H276988   6.236   2.350  10.775  1.0212  0.2105  0.6998
18525TIP3   OH276989   1.771   3.193  14.892 -0.4961 -0.5845  0.2371
18525TIP3    H176990   1.787   3.176  14.984 -0.4585  0.0567  0.3552
18525TIP3    H276991   1.851   3.234  14.860 -0.8986  0.2106  0.1977
18526TIP3   OH276992   2.547   3.609  15.368 -0.4354 -0.1957  0.1122
18526TIP3    H176993   2.614   3.677  15.365 -1.1620  0.5098 -1.5211
18526TIP3    H276994   2.468   3.655  15.398 -1.0887 -0.1155 -1.6059
18527TIP3   OH276995   4.806   6.274   4.826  0.4459  0.1969  0.0864
18527TIP3    H176996   4.722   6.264   4.870  0.5269  3.1214  1.1115
18527TIP3    H276997   4.871   6.248   4.892  0.4508  1.3234  0.5339
18528TIP3   OH276998   2.182   0.518  13.487 -0.3691  0.5741  0.2111
18528TIP3    H176999   2.201   0.520  13.393 -1.7268  0.2821 -0.0994
18528TIP3    H277000   2.111   0.581  13.498 -0.3570  0.4533  1.0034
18529TIP3   OH277001   0.719   6.332   5.051 -0.0566 -0.0511 -0.1572
18529TIP3    H177002   0.670   6.334   5.133  1.9060  2.4550  1.0914
18529TIP3    H277003   0.729   6.239   5.031 -1.7298 -0.7040  1.7023
18530TIP3   OH277004   4.526   0.787  13.735 -0.8852  0.6587  0.2540
18530TIP3    H177005   4.440   0.753  13.710 -0.8936  1.7615 -1.3289
18530TIP3    H277006   4.585   0.713  13.723 -1.2539  0.5319 -0.9239
18531TIP3   OH277007   5.248   2.547   4.824  0.7620 -0.6212  0.0870
18531TIP3    H177008   5.157   2.519   4.817  1.2914 -2.0692 -1.8781
18531TIP3    H277009   5.247   2.639   4.798 -0.0783 -0.7430 -0.3315
18532TIP3   OH277010   3.282   0.882   5.226  0.5666 -0.1641  0.1706
18532TIP3    H177011   3.191   0.898   5.250  0.3794 -1.8175  0.7254
18532TIP3    H277012   3.280   0.871   5.131  0.0364 -0.9554  0.2602
18533TIP3   OH277013   4.911   6.689   6.221 -0.3121 -0.4651  0.1395
18533TIP3    H177014   4.874   6.753   6.282  0.9761 -0.1827  0.6549
18533TIP3    H277015   4.976   6.642   6.272  0.2722 -0.7277 -0.8148
18534TIP3   OH277016   4.021   3.776  15.780 -0.0263  0.1541 -0.1197
18534TIP3    H177017   3.953   3.711  15.794 -0.1004  0.1051 -0.7031
18534TIP3    H277018   3.995   3.822  15.701  0.2389  0.6230  0.0601
18535TIP3   OH277019   5.862   1.082   3.087 -0.0283  0.2301  0.0037
18535TIP3    H177020   5.799   1.103   3.017  0.4057  1.3516 -0.0687
18535TIP3    H277021   5.871   1.163   3.136  0.4245 -0.2785  0.7799
18536TIP3   OH277022   2.730   4.799  10.531 -0.1572  0.5163 -0.3237
18536TIP3    H177023   2.786   4.839  10.464  0.0661  0.8855  0.0813
18536TIP3    H277024   2.702   4.716  10.492  2.2273 -0.6116  0.2089
18537TIP3   OH277025   6.109   0.427  11.300  0.0137 -0.5913 -0.2981
18537TIP3    H177026   6.203   0.446  11.305  0.1022 -0.4196 -2.1257
18537TIP3    H277027   6.067   0.513  11.308 -0.3668 -0.9159  5.2287
18538TIP3   OH277028   0.725   4.438   3.142 -0.2623  0.2352  0.1058
18538TIP3    H177029   0.730   4.500   3.069  3.2082 -0.4320 -0.3958
18538TIP3    H277030   0.769   4.482   3.215  1.0694 -1.0300  0.1336
18539TIP3   OH277031   0.500   1.285   2.682 -0.0612 -0.4461  0.5188
18539TIP3    H177032   0.590   1.273   2.652 -0.8636 -1.5865 -1.6717
18539TIP3    H277033   0.497   1.377   2.710  1.5709 -0.1604 -0.0928
18540TIP3   OH277034   0.365   1.718  13.009 -0.1995 -0.5044 -0.0940
18540TIP3    H177035   0.274   1.743  13.023  0.0383  0.2935  0.0770
18540TIP3    H277036   0.363   1.623  12.998 -0.8388 -0.6994  1.5668
18541TIP3   OH277037   1.431   6.315   4.936  0.1343 -0.4764 -0.2479
18541TIP3    H177038   1.487   6.278   4.867 -1.5361 -3.0146 -0.3555
18541TIP3    H277039   1.364   6.365   4.888  0.0746 -0.6476 -0.3424
18542TIP3   OH277040   1.159   4.689   0.844 -0.1831 -0.0881  0.4064
18542TIP3    H177041   1.134   4.720   0.931  0.9802  0.3654  0.5988
18542TIP3    H277042   1.177   4.769   0.795  2.1050 -0.3586  0.6741
18543TIP3   OH277043   0.010   2.453   5.967  0.3295 -0.0134 -0.2982
18543TIP3    H177044   0.037   2.526   6.021  0.5640  0.3632 -0.9219
18543TIP3    H277045   0.024   2.376   6.022  2.8776  0.1273 -0.6538
18544TIP3   OH277046   5.287   0.059   1.642 -0.2229 -0.2857 -0.1758
18544TIP3    H177047   5.270   0.138   1.592 -0.1662 -0.0010  0.2507
18544TIP3    H277048   5.348   0.009   1.587  0.2827  0.2808 -0.1450
18545TIP3   OH277049   4.290   3.788  15.759  0.0661  0.7349 -0.6378
18545TIP3    H177050   4.196   3.773  15.750  0.1375  0.3891 -0.8287
18545TIP3    H277051   4.323   3.710  15.803  0.3243  0.6849 -0.9188
18546TIP3   OH277052   3.191   6.589   4.735 -0.5584  0.2495 -0.0163
18546TIP3    H177053   3.108   6.605   4.780  0.8288 -0.2587  2.9500
18546TIP3    H277054   3.236   6.674   4.735 -0.3855  0.1596 -0.1062
18547TIP3   OH277055   5.671   0.321   0.877  0.7867  0.1044 -0.2437
18547TIP3    H177056   5.628   0.401   0.846  0.3581 -0.6114 -1.5503
18547TIP3    H277057   5.637   0.308   0.966  0.6086  1.1806 -0.1431
18548TIP3   OH277058   2.139   0.115  11.961  0.2698  0.6960 -0.1522
18548TIP3    H177059   2.055   0.152  11.986  1.5090  3.5497  0.2704
18548TIP3    H277060   2.200   0.148  12.027  1.7539 -1.2592 -0.4500
18549TIP3   OH277061   5.506   0.020   0.878 -0.2265  0.3268 -0.5469
18549TIP3    H177062   5.481  -0.012   0.964  1.6491  2.9005  1.0726
18549TIP3    H277063   5.596  -0.009   0.866 -0.9290 -1.3736 -2.4665
18550TIP3   OH277064   1.020   3.900   3.507  0.0445  0.0458  0.1550
18550TIP3    H177065   0.972   3.929   3.430  1.0618  1.1551 -0.0986
18550TIP3    H277066   1.064   3.819   3.480 -2.8696 -1.9392  0.8851
18551TIP3   OH277067   6.203   0.275   4.575 -0.0408  0.2919 -0.4823
18551TIP3    H177068   6.124   0.249   4.622  1.1035 -0.4586  1.1289
18551TIP3    H277069   6.262   0.307   4.644  0.7630  1.6532 -1.7453
18552TIP3   OH277070   0.372   2.071  12.791  0.1532  0.7672  0.2664
18552TIP3    H177071   0.285   2.105  12.768  0.0779  0.5007  0.1499
18552TIP3    H277072   0.355   1.982  12.822  0.3368  0.8694  0.6645
18553TIP3   OH277073   3.845   4.160   3.959 -0.0181  0.3790  0.2822
18553TIP3    H177074   3.822   4.143   4.051  3.0255 -0.7295  0.9337
18553TIP3    H277075   3.939   4.175   3.960  0.0292  0.8554 -2.6418
18554TIP3   OH277076   4.948   6.115  12.788  0.1695 -0.5180  0.1060
18554TIP3    H177077   4.899   6.103  12.706 -0.5062  0.6498  0.3251
18554TIP3    H277078   4.892   6.171  12.842  1.1701 -0.2344  0.8837
18555TIP3   OH277079   1.736   0.785   5.397 -0.2323  0.3568  0.1128
18555TIP3    H177080   1.788   0.714   5.360  1.1522  0.7447  1.1929
18555TIP3    H277081   1.706   0.836   5.322 -1.2862 -1.3565 -0.6789
18556TIP3   OH277082   6.524   3.149  15.816 -0.3080  0.0456  0.1172
18556TIP3    H177083   6.455   3.129  15.753 -0.1871  0.7268 -0.2321
18556TIP3    H277084   6.589   3.200  15.767  0.5454 -0.7449  0.3901
18557TIP3   OH277085   0.644   2.643   0.666  0.0267 -0.0440 -0.5000
18557TIP3    H177086   0.722   2.670   0.713 -1.0292  0.2658  1.1491
18557TIP3    H277087   0.596   2.587   0.728 -0.8217 -0.6499 -1.6524
18558TIP3   OH277088   0.203   5.115  14.223 -0.2816  0.2308  0.0308
18558TIP3    H177089   0.173   5.196  14.181  0.1565  1.0770  1.2808
18558TIP3    H277090   0.136   5.095  14.288 -0.3429 -0.3746 -0.2111
18559TIP3   OH277091   2.576   2.550  11.923  0.4975 -0.3136 -0.2160
18559TIP3    H177092   2.641   2.595  11.977  0.8825  0.9866 -1.6910
18559TIP3    H277093   2.576   2.460  11.955 -0.6396  0.7447  3.1693
18560TIP3   OH277094   0.424   1.791  13.369 -0.2813  0.3293 -0.2080
18560TIP3    H177095   0.354   1.726  13.366 -0.1458  0.1989 -0.7239
18560TIP3    H277096   0.504   1.739  13.383  0.0211  0.2092 -2.1462
18561TIP3   OH277097   5.360   3.811  15.781 -0.4478  0.7196 -0.3744
18561TIP3    H177098   5.386   3.730  15.736 -2.9837  0.4813 -1.6020
18561TIP3    H277099   5.373   3.879  15.715  0.0624  1.0530  0.0721
18562TIP3   OH277100   4.989   0.058  10.948  0.4354  0.4917  0.5159
18562TIP3    H177101   5.068   0.019  10.911  1.1373  1.5075  0.8962
18562TIP3    H277102   5.010   0.151  10.956 -1.5054  1.1416 -1.2179
18563TIP3   OH277103   4.467   0.356   4.360 -0.1659 -0.0597  0.8142
18563TIP3    H177104   4.484   0.370   4.266 -0.3703  1.8686  1.0185
18563TIP3    H277105   4.377   0.387   4.372 -0.5903 -1.4982  1.4295
18564TIP3   OH277106   0.278   0.406  11.796  0.8655  0.4466  0.1941
18564TIP3    H177107   0.211   0.350  11.835  0.2905 -1.8600 -3.5274
18564TIP3    H277108   0.357   0.386  11.845  0.0361 -1.5365  0.8542
18565TIP3   OH277109   6.209   5.821   1.227  0.0537  0.0525  0.2939
18565TIP3    H177110   6.299   5.789   1.229 -0.0927 -0.3570  1.8966
18565TIP3    H277111   6.189   5.840   1.318 -2.0478 -1.4649  0.2113
18566TIP3   OH277112   6.626   0.100   2.723  0.2938 -0.0480 -0.3944
18566TIP3    H177113   6.649   0.047   2.799 -1.9396  2.0530  1.9648
18566TIP3    H277114   6.709   0.115   2.677  1.2769 -3.8301 -0.1285
18567TIP3   OH277115   4.150   2.442  12.126  0.1340 -0.8150 -0.1510
18567TIP3    H177116   4.080   2.382  12.151 -0.7533 -0.7808 -2.3473
18567TIP3    H277117   4.226   2.386  12.112  0.1822 -1.0238  0.9153
18568TIP3   OH277118   4.262   5.255  10.591  0.3219  0.4821  0.8271
18568TIP3    H177119   4.340   5.297  10.553 -0.1031  0.9398  0.4386
18568TIP3    H277120   4.218   5.215  10.516 -0.2085  0.8671  0.9279
18569TIP3   OH277121   3.519   2.794  15.537 -0.4510  0.5538 -0.7664
18569TIP3    H177122   3.481   2.723  15.484 -1.1044  0.0756  0.3100
18569TIP3    H277123   3.458   2.867  15.525 -2.5703 -0.5833  1.9439
18570TIP3   OH277124   3.154   3.431  14.469  0.0808  0.0502 -0.5631
18570TIP3    H177125   3.149   3.510  14.416  0.3869 -0.1014 -0.8225
18570TIP3    H277126   3.228   3.446  14.528 -0.3464  0.2790 -0.0686
18571TIP3   OH277127   4.723   0.220  15.103  0.1389 -0.3392 -0.3945
18571TIP3    H177128   4.706   0.273  15.181 -2.0159 -0.4164 -0.7361
18571TIP3    H277129   4.665   0.144  15.112  1.0269 -1.1658 -1.3199
18572TIP3   OH277130   1.599   2.247  16.115 -0.0445  0.1289  0.2730
18572TIP3    H177131   1.573   2.209  16.031 -2.7138  1.6316  0.2879
18572TIP3    H277132   1.592   2.175  16.177  0.3509 -0.6162 -0.5343
18573TIP3   OH277133   5.375   0.697  11.642  0.4423  0.0574 -0.4643
18573TIP3    H177134   5.281   0.707  11.661  0.3566 -1.4017  0.0130
18573TIP3    H277135   5.405   0.786  11.626 -1.3588  0.4114 -2.2691
18574TIP3   OH277136   2.495   5.753  16.366 -0.1494  0.0408  0.1199
18574TIP3    H177137   2.534   5.840  16.355  1.7626 -0.7704  0.0326
18574TIP3    H277138   2.443   5.760  16.446  0.3998  1.1410  0.3997
18575TIP3   OH277139   3.103   0.646   1.308 -0.1423 -0.4312 -0.6138
18575TIP3    H177140   3.191   0.683   1.321 -0.1315 -0.6093 -0.1676
18575TIP3    H277141   3.044   0.715   1.338 -0.2189  0.2856 -2.2918
18576TIP3   OH277142   1.983   1.869  14.728  0.1239  0.4229  0.1181
18576TIP3    H177143   2.023   1.878  14.815 -0.3029 -0.4097  0.4140
18576TIP3    H277144   1.899   1.914  14.737  0.4828  1.1755 -0.1647
18577TIP3   OH277145   4.799   6.441   3.130  0.3437 -0.4038  0.8579
18577TIP3    H177146   4.829   6.432   3.040  0.2540 -0.3931  0.8269
18577TIP3    H277147   4.844   6.371   3.178 -0.6886 -1.3176  0.5348
18578TIP3   OH277148   3.193   1.865  10.990  0.4512  0.1130 -0.4636
18578TIP3    H177149   3.180   1.922  11.065 -2.1506 -0.7561 -0.1654
18578TIP3    H277150   3.185   1.776  11.025 -3.8646 -0.3524 -2.0169
18579TIP3   OH277151   2.622   4.939  12.283  0.4332  0.3085 -0.1541
18579TIP3    H177152   2.649   4.944  12.192 -0.5355  0.3196 -0.4516
18579TIP3    H277153   2.541   4.888  12.282  0.0957  0.7986  0.6238
18580TIP3   OH277154   2.014   5.405  15.875 -0.5639 -0.1392 -0.7178
18580TIP3    H177155   2.000   5.454  15.955 -0.1275 -0.8378 -0.2051
18580TIP3    H277156   2.023   5.472  15.807 -0.4768  0.4727 -0.1128
18581TIP3   OH277157   5.754   3.824  15.846 -0.1241 -0.1353  0.0558
18581TIP3    H177158   5.686   3.818  15.780 -0.7074 -2.0839  0.7642
18581TIP3    H277159   5.708   3.855  15.924 -0.0455 -0.6150  0.2983
18582TIP3   OH277160   6.698   6.755  13.004  0.0299  0.2440  0.1445
18582TIP3    H177161   6.680   6.662  12.993 -0.6174  0.3802  0.0443
18582TIP3    H277162   6.698   6.768  13.099 -0.4346  0.2504  0.1438
18583TIP3   OH277163   2.963   0.881   2.762 -0.2519 -0.2430  0.1381
18583TIP3    H177164   3.004   0.823   2.827 -0.5612 -1.5086 -0.7622
18583TIP3    H277165   2.893   0.926   2.811 -1.2354 -2.0214  0.4480
18584TIP3   OH277166   0.323   1.481  15.140 -0.4066  0.5145  0.1165
18584TIP3    H177167   0.244   1.516  15.182  0.6004  1.5453  1.2254
18584TIP3    H277168   0.368   1.559  15.106  1.0457  0.1583  1.1446
18585TIP3   OH277169   6.676   2.160  17.140  0.2604 -0.5130  0.5916
18585TIP3    H177170   6.739   2.094  17.109  0.5062  0.7065 -1.6931
18585TIP3    H277171   6.726   2.213  17.202 -0.4524 -3.4601  4.1134
18586TIP3   OH277172   2.455   2.157  14.161 -0.1410  0.1092  0.3662
18586TIP3    H177173   2.414   2.120  14.083 -0.7105  0.3157  0.5686
18586TIP3    H277174   2.549   2.153  14.142 -0.2611 -0.1341 -0.1987
18587TIP3   OH277175   0.705   3.422   0.466  0.1201  0.2956  0.2026
18587TIP3    H177176   0.739   3.443   0.379  0.1352  0.0187  0.1386
18587TIP3    H277177   0.782   3.395   0.517 -0.0021 -0.4115  0.0324
18588TIP3   OH277178   5.427   4.783  13.891  0.4067 -0.2919  0.7272
18588TIP3    H177179   5.402   4.725  13.962 -0.9292 -0.0983  0.4389
18588TIP3    H277180   5.396   4.870  13.919 -0.6289 -0.3014 -0.2928
18589TIP3   OH277181   4.453   0.287   2.714 -0.1265  0.0077  0.5916
18589TIP3    H177182   4.539   0.314   2.683  0.1780 -1.4993  0.0441
18589TIP3    H277183   4.391   0.321   2.649  0.3388 -1.4718 -0.6706
18590TIP3   OH277184   2.779   0.198   3.118 -0.2007  0.0555 -0.3010
18590TIP3    H177185   2.736   0.127   3.166 -0.4910 -0.5068 -1.3644
18590TIP3    H277186   2.869   0.168   3.107  0.1873  0.7283  0.9373
18591TIP3   OH277187   2.021   1.828   1.355  0.0430 -0.2899 -0.2157
18591TIP3    H177188   1.947   1.770   1.374  0.5408 -0.5677  0.9614
18591TIP3    H277189   2.098   1.773   1.371  0.5302 -0.1049 -1.7262
18592TIP3   OH277190   0.189   6.372  12.814  0.1080 -0.0252 -0.0345
18592TIP3    H177191   0.177   6.424  12.735  0.7807 -1.2077 -0.9584
18592TIP3    H277192   0.168   6.431  12.886  0.3886  1.3620 -1.0613
18593TIP3   OH277193   2.261   5.328   4.340  0.1601 -0.4602 -0.1373
18593TIP3    H177194   2.325   5.257   4.341  1.4261  0.6370  0.7614
18593TIP3    H277195   2.236   5.339   4.432  1.2826  1.3127  0.0281
18594TIP3   OH277196   4.441   3.536   7.020 -0.1538  0.7241 -0.1135
18594TIP3    H177197   4.517   3.572   7.067 -1.3415  1.6433  1.1894
18594TIP3    H277198   4.440   3.582   6.936  2.4629 -1.5042 -1.5400
18595TIP3   OH277199   4.855   2.742  12.688  0.1954  0.3925  0.0802
18595TIP3    H177200   4.775   2.690  12.688  0.3219  0.1957 -0.3263
18595TIP3    H277201   4.917   2.689  12.740  0.3342  0.1192 -0.3609
18596TIP3   OH277202   1.754   5.986  12.928  0.2778 -0.2369 -0.2789
18596TIP3    H177203   1.718   5.910  12.882  1.3593 -1.0523  0.1808
18596TIP3    H277204   1.838   6.002  12.886  1.1938 -0.8732  1.2426
18597TIP3   OH277205   4.841   4.977   4.054  0.2620 -0.3361 -0.6154
18597TIP3    H177206   4.769   4.932   4.009  0.5027 -0.7292 -0.6122
18597TIP3    H277207   4.799   5.050   4.099 -0.8511 -2.8246  2.8023
18598TIP3   OH277208   1.210   1.647  16.070  0.4640  0.1309  0.2601
18598TIP3    H177209   1.168   1.593  16.002  1.3331  1.5882 -1.5345
18598TIP3    H277210   1.139   1.704  16.102 -0.2405 -1.3762  1.5191
18599TIP3   OH277211   3.647   1.080   5.670 -0.3511 -0.2937  0.0167
18599TIP3    H177212   3.735   1.095   5.702 -0.1728 -0.1090 -0.5503
18599TIP3    H277213   3.658   1.062   5.576 -1.1571  2.6457 -0.7565
18600TIP3   OH277214   0.791   4.151  16.217  0.1828 -0.3024  0.1745
18600TIP3    H177215   0.788   4.112  16.130 -1.5264 -1.2779  0.6511
18600TIP3    H277216   0.767   4.081  16.277 -1.0921  0.9597  1.2191
18601TIP3   OH277217   0.210   1.305   2.629 -0.5326 -0.7664  0.2312
18601TIP3    H177218   0.205   1.348   2.714 -1.7127 -1.3894  0.5047
18601TIP3    H277219   0.274   1.235   2.641 -1.5682 -1.6255  1.0026
18602TIP3   OH277220   3.925   1.431  16.087 -0.4873  0.0695  0.0484
18602TIP3    H177221   3.911   1.412  16.179  0.7464  1.8503  0.6721
18602TIP3    H277222   3.841   1.466  16.057 -0.6755  0.2076  0.7133
18603TIP3   OH277223   3.667   3.259  12.406  0.2174 -0.4852  0.0487
18603TIP3    H177224   3.581   3.218  12.399  0.3810 -0.8232 -0.0481
18603TIP3    H277225   3.685   3.261  12.500  0.8390 -2.0083 -0.0090
18604TIP3   OH277226   6.770   3.527   5.387  1.0840 -0.0965  0.3053
18604TIP3    H177227   6.701   3.575   5.433  1.4592 -0.6220  1.4476
18604TIP3    H277228   6.724   3.481   5.317  0.5825  1.1566 -0.2290
18605TIP3   OH277229   3.476   3.532  11.997  0.0696 -0.0925  0.4178
18605TIP3    H177230   3.545   3.596  12.014  0.3543  0.1110 -1.3668
18605TIP3    H277231   3.508   3.480  11.923 -0.8756 -1.2408  0.7763
18606TIP3   OH277232   3.230   6.779  13.886 -0.0744  0.6351 -0.1509
18606TIP3    H177233   3.171   6.821  13.949 -2.9805 -1.8114 -0.9622
18606TIP3    H277234   3.187   6.791  13.801 -0.0542 -2.0877 -0.6549
18607TIP3   OH277235   5.034   0.175   3.753 -0.0075 -0.0013  0.5031
18607TIP3    H177236   5.057   0.232   3.680 -1.3547  1.4489  1.1458
18607TIP3    H277237   4.950   0.137   3.729 -0.8532  1.0989  1.5776
18608TIP3   OH277238   2.097   5.793   3.272 -0.6885 -0.6714 -0.0858
18608TIP3    H177239   2.111   5.793   3.177 -1.1894 -2.1630 -0.1780
18608TIP3    H277240   2.017   5.843   3.284 -0.2717  0.0844 -0.3796
18609TIP3   OH277241   6.282   2.261   2.885 -0.2282  0.0363 -0.0301
18609TIP3    H177242   6.346   2.298   2.824  1.5819  1.7662  2.7049
18609TIP3    H277243   6.247   2.184   2.839 -1.0439  2.6162 -4.3047
18610TIP3   OH277244   2.146   3.375  11.719  0.1180  0.2573  0.2591
18610TIP3    H177245   2.140   3.470  11.727 -0.0627  0.3405 -0.7635
18610TIP3    H277246   2.055   3.344  11.725  0.3303 -0.0849  2.9180
18611TIP3   OH277247   1.821   5.639  16.594  0.3690 -0.1216  0.2236
18611TIP3    H177248   1.760   5.712  16.606  1.2516  0.9691 -1.5235
18611TIP3    H277249   1.908   5.677  16.610  0.8284 -0.8308 -0.5019
18612TIP3   OH277250   6.355   6.346   2.748 -0.2506  0.0151 -0.2372
18612TIP3    H177251   6.339   6.279   2.681 -2.1557  1.4796 -1.3333
18612TIP3    H277252   6.328   6.304   2.830 -0.0421 -1.0365 -0.6872
18613TIP3   OH277253   5.933   2.044   5.842 -0.3348 -0.0100  0.1262
18613TIP3    H177254   6.015   1.995   5.850 -0.3993 -0.2516 -0.5633
18613TIP3    H277255   5.891   2.007   5.764 -1.1013  0.1077  0.4744
18614TIP3   OH277256   2.441   5.433   1.556  0.3246  0.1732  0.4233
18614TIP3    H177257   2.509   5.500   1.548 -0.4227  1.2813  2.5729
18614TIP3    H277258   2.433   5.397   1.468  0.9843  2.7242 -0.7719
18615TIP3   OH277259   3.412   5.996   0.887  0.8281 -0.0498  0.3327
18615TIP3    H177260   3.321   6.019   0.868  0.6059 -1.6815 -0.8425
18615TIP3    H277261   3.419   5.905   0.858  2.7440 -0.0607  0.7444
18616TIP3   OH277262   3.603   5.860  16.431  0.2674  0.2873  0.4043
18616TIP3    H177263   3.615   5.940  16.481  1.1493  1.9651 -2.2481
18616TIP3    H277264   3.579   5.794  16.496  1.5102  2.1982  3.0030
18617TIP3   OH277265   3.619   2.685   5.860  0.7064  0.0841  0.3107
18617TIP3    H177266   3.645   2.664   5.771  2.5167 -2.9884  1.3767
18617TIP3    H277267   3.694   2.733   5.896 -0.3815  2.1077  0.0011
18618TIP3   OH277268   1.870   6.792   0.333  0.0962 -0.2953  0.0563
18618TIP3    H177269   1.807   6.723   0.317  0.6793 -0.4718 -1.6301
18618TIP3    H277270   1.841   6.832   0.416 -2.5225 -0.0319 -0.8812
18619TIP3   OH277271   1.624   5.690  15.110  0.2630  0.9289 -0.1337
18619TIP3    H177272   1.623   5.610  15.058  0.4873  1.0176 -0.2818
18619TIP3    H277273   1.588   5.757  15.052  1.8563  1.3361 -0.7222
18620TIP3   OH277274   4.013   0.278   1.468 -0.3895  0.0293  0.4704
18620TIP3    H177275   4.039   0.248   1.555 -2.3853 -0.4423  0.9603
18620TIP3    H277276   4.056   0.217   1.408 -0.9998 -1.2465  1.2757
18621TIP3   OH277277   1.771   6.331   5.973 -0.2040 -0.0215  0.5668
18621TIP3    H177278   1.740   6.245   6.001 -0.0265 -0.3389 -0.1737
18621TIP3    H277279   1.750   6.334   5.879 -2.6517  1.8064  1.0636
18622TIP3   OH277280   3.473   5.161   4.551  0.2177  0.2919 -0.4189
18622TIP3    H177281   3.556   5.126   4.583 -0.5103 -1.7687 -0.6443
18622TIP3    H277282   3.407   5.120   4.606 -0.7178  1.3239 -0.7296
18623TIP3   OH277283   4.204   0.948  15.109  0.1153  0.3100  0.0090
18623TIP3    H177284   4.290   0.967  15.072  0.5288  0.7851  1.1903
18623TIP3    H277285   4.216   0.867  15.158  0.2620  1.1186  1.3544
18624TIP3   OH277286   4.691   6.752   1.854 -0.2692 -0.4751  0.3142
18624TIP3    H177287   4.718   6.721   1.940  0.5079  0.4494  0.4116
18624TIP3    H277288   4.757   6.718   1.794 -0.0440  0.0325  0.2706
18625TIP3   OH277289   5.892   2.578  15.585  0.2108 -0.3244 -0.0699
18625TIP3    H177290   5.850   2.553  15.667 -0.5551 -2.6168 -1.0743
18625TIP3    H277291   5.976   2.532  15.586 -0.1649 -1.0711 -0.8877
18626TIP3   OH277292   3.508   4.130  15.359  0.1125  0.4158 -0.2826
18626TIP3    H177293   3.500   4.039  15.331  0.1219  0.7040 -1.2338
18626TIP3    H277294   3.593   4.134  15.403  0.3602  0.0951 -0.7348
18627TIP3   OH277295   0.650   2.075  12.374 -0.0980  0.2692  0.2920
18627TIP3    H177296   0.646   2.023  12.295  0.0383 -0.9034  1.0352
18627TIP3    H277297   0.597   2.027  12.438  0.5937  0.6704  1.2004
18628TIP3   OH277298   1.902   4.351   2.209 -0.1859 -0.0406  0.0798
18628TIP3    H177299   1.989   4.378   2.179 -0.5002  1.3306  0.3585
18628TIP3    H277300   1.865   4.303   2.135  0.4159  0.2471 -0.4175
18629TIP3   OH277301   1.753   2.275   6.369 -0.1442 -0.0078  0.4531
18629TIP3    H177302   1.744   2.364   6.404  1.2590  0.1786  0.3980
18629TIP3    H277303   1.806   2.229   6.434  0.1728 -0.4497 -0.1061
18630TIP3   OH277304   2.570   3.109   3.194 -0.2079  0.5148 -0.0448
18630TIP3    H177305   2.651   3.101   3.245 -0.3464 -1.7586 -0.0718
18630TIP3    H277306   2.571   3.198   3.160  1.3699  1.1257  1.4639
18631TIP3   OH277307   6.298   3.244   1.891  0.3694  0.5206  0.6741
18631TIP3    H177308   6.375   3.296   1.869  0.5749  0.1588  0.5258
18631TIP3    H277309   6.233   3.308   1.920  0.0990  1.0150 -0.9406
18632TIP3   OH277310   6.356   3.660   3.581 -0.0625  0.1354 -0.1950
18632TIP3    H177311   6.414   3.597   3.537  1.0951  0.0396  1.4017
18632TIP3    H277312   6.414   3.727   3.615 -0.9258  0.2807  1.0553
18633TIP3   OH277313   3.542   5.820  16.160  0.0997  0.3011  0.1295
18633TIP3    H177314   3.516   5.837  16.251  0.1969 -1.1476  0.4625
18633TIP3    H277315   3.612   5.756  16.168 -1.1923 -1.3339 -1.0073
18634TIP3   OH277316   4.968   2.821   5.838  0.5631 -0.0275  0.0311
18634TIP3    H177317   5.055   2.858   5.855  0.8970 -1.0875  0.7708
18634TIP3    H277318   4.984   2.728   5.825 -0.2442  0.0623 -1.8727
18635TIP3   OH277319   2.275   1.074  16.203  0.1270 -0.4523 -0.6159
18635TIP3    H177320   2.339   1.133  16.163  0.8816 -0.7807  0.0616
18635TIP3    H277321   2.212   1.056  16.134 -0.9347  2.2477 -0.4376
18636TIP3   OH277322   3.208   2.376  13.228  0.0243 -0.1814 -0.1283
18636TIP3    H177323   3.183   2.457  13.183 -1.5606 -0.7779 -0.3755
18636TIP3    H277324   3.218   2.312  13.158  1.6260 -0.1413  0.0336
18637TIP3   OH277325   6.146   3.359   1.679 -0.6813 -0.3707 -0.2513
18637TIP3    H177326   6.080   3.295   1.651  0.2191 -0.8017 -1.4999
18637TIP3    H277327   6.222   3.339   1.624  1.0689 -0.9440  2.2241
18638TIP3   OH277328   4.583   1.552   1.366  0.0227  0.8299 -0.8794
18638TIP3    H177329   4.545   1.560   1.453 -0.2081 -0.9655 -0.7759
18638TIP3    H277330   4.525   1.604   1.310  0.1779  2.0042  0.0182
18639TIP3   OH277331   6.109   3.030   1.198 -0.3808 -0.6122 -0.0191
18639TIP3    H177332   6.023   3.067   1.221 -0.8828 -1.0016 -1.1888
18639TIP3    H277333   6.104   3.014   1.104  1.2018 -0.0896 -0.2235
18640TIP3   OH277334   2.256   3.406   5.575 -0.2929 -0.2271  0.0957
18640TIP3    H177335   2.272   3.312   5.582  0.5339 -0.0867  0.1859
18640TIP3    H277336   2.166   3.418   5.606 -0.2878 -0.9439  0.3984
18641TIP3   OH277337   3.674   4.317  11.512 -0.0746 -0.7008 -0.2046
18641TIP3    H177338   3.676   4.262  11.434  1.9216  0.5968 -1.1468
18641TIP3    H277339   3.766   4.342  11.525 -0.6915  0.9664  1.2195
18642TIP3   OH277340   5.139   2.546  14.880 -0.1432  0.4003  0.0469
18642TIP3    H177341   5.161   2.604  14.807  0.3506  0.3142  0.1177
18642TIP3    H277342   5.062   2.497  14.850 -1.1297  1.7303  0.3548
18643TIP3   OH277343   4.732   2.463   3.874  0.3128 -0.2247  0.6136
18643TIP3    H177344   4.696   2.550   3.890 -1.0423 -0.8792  1.2786
18643TIP3    H277345   4.827   2.475   3.878  0.4021  1.9639 -3.1527
18644TIP3   OH277346   3.409   3.322   5.591  0.0777  0.6467  0.7167
18644TIP3    H177347   3.462   3.307   5.669 -0.6033  1.6071  1.3770
18644TIP3    H277348   3.416   3.240   5.541  2.4840  0.8572  0.5847
18645TIP3   OH277349   6.032   0.146   6.253  0.5594 -0.7305  0.7183
18645TIP3    H177350   5.960   0.200   6.286  0.0038 -1.0525  0.0614
18645TIP3    H277351   6.111   0.197   6.272  0.0842  0.1065  0.5077
18646TIP3   OH277352   2.342   2.861  16.950  0.2909 -0.1285 -0.2221
18646TIP3    H177353   2.250   2.857  16.976  0.4928  1.3726  0.8866
18646TIP3    H277354   2.354   2.952  16.921  1.6335 -0.0448  0.5480
18647TIP3   OH277355   4.815   4.122  15.062  0.0448 -0.1346 -0.0091
18647TIP3    H177356   4.870   4.105  14.985  0.5060  1.3128 -0.0396
18647TIP3    H277357   4.875   4.117  15.136  0.1635  0.9843 -0.0017
18648TIP3   OH277358   3.104   4.277   2.462 -0.3529  0.0224 -0.1093
18648TIP3    H177359   3.032   4.336   2.483 -1.1314 -1.2009  0.8155
18648TIP3    H277360   3.080   4.240   2.376  0.8347  2.0281 -1.3779
18649TIP3   OH277361   0.422   1.991  13.116  0.5648  0.8290 -0.7130
18649TIP3    H177362   0.451   1.969  13.204  2.0451  2.6435 -0.6844
18649TIP3    H277363   0.417   1.907  13.070  2.0457  0.0530  0.4554
18650TIP3   OH277364   1.893   6.285  11.523  0.4798 -0.2236  0.2795
18650TIP3    H177365   1.872   6.194  11.504  1.6519 -0.4031 -0.2390
18650TIP3    H277366   1.988   6.288  11.529  0.4388  0.8892  0.6981
18651TIP3   OH277367   0.721   3.464   1.936  0.2720  0.5122  0.3013
18651TIP3    H177368   0.739   3.555   1.910  0.0701  0.9837  1.6898
18651TIP3    H277369   0.806   3.429   1.962  0.2135  0.6195  0.6495
18652TIP3   OH277370   3.483   3.896   0.088 -0.9237 -0.0251 -0.1240
18652TIP3    H177371   3.552   3.858   0.033 -1.2825  1.1855 -1.5059
18652TIP3    H277372   3.525   3.912   0.172 -0.5177 -2.4960  0.2073
18653TIP3   OH277373   6.435   3.259   4.098  0.1006 -0.3902 -0.2463
18653TIP3    H177374   6.386   3.187   4.058 -0.1565 -0.8045  0.7932
18653TIP3    H277375   6.373   3.300   4.158  0.6341 -0.1111  0.1244
18654TIP3   OH277376   4.134   4.157   3.967 -1.1284 -0.3259  0.5900
18654TIP3    H177377   4.221   4.169   4.004 -1.3130 -0.8412  1.2238
18654TIP3    H277378   4.150   4.132   3.876 -0.6430  0.3074  0.4951
18655TIP3   OH277379   2.040   5.870   1.201 -0.2806 -0.1612  0.1618
18655TIP3    H177380   2.013   5.843   1.288 -0.9184 -0.3412 -0.0855
18655TIP3    H277381   2.090   5.796   1.167 -1.7133 -0.9087 -0.3756
18656TIP3   OH277382   2.011   0.789   1.370 -0.3793  0.1045  0.0092
18656TIP3    H177383   2.106   0.796   1.371 -0.3772  0.1164 -0.2242
18656TIP3    H277384   1.985   0.798   1.462 -0.0918 -0.7924  0.1788
18657TIP3   OH277385   0.827   3.536   6.450 -0.1350  0.3109 -0.4585
18657TIP3    H177386   0.897   3.599   6.462 -1.4297  1.6123  0.5776
18657TIP3    H277387   0.751   3.588   6.423 -1.2629 -0.7772  0.4985
18658TIP3   OH277388   3.596   3.172  14.811  0.1053  0.2479  0.0661
18658TIP3    H177389   3.645   3.113  14.869  1.0406  0.0932 -0.8400
18658TIP3    H277390   3.597   3.256  14.856  1.9308  0.4506 -0.2666
18659TIP3   OH277391   5.938   0.264   4.638  0.2264 -0.3776  0.0043
18659TIP3    H177392   5.905   0.263   4.548 -1.5303 -0.0862  0.6073
18659TIP3    H277393   5.883   0.328   4.683  0.6120 -1.0225  1.4569
18660TIP3   OH277394   3.131   5.614   4.786 -0.3943  0.0526  0.1684
18660TIP3    H177395   3.209   5.635   4.734  0.3997  0.0249  1.3149
18660TIP3    H277396   3.105   5.526   4.757  1.9786 -1.3884  2.0045
18661TIP3   OH277397   2.885   2.705   2.172 -0.5009 -0.0011 -0.5684
18661TIP3    H177398   2.976   2.697   2.142 -0.6740  0.4407 -1.2240
18661TIP3    H277399   2.885   2.784   2.226 -0.5804  0.2312 -0.9049
18662TIP3   OH277400   6.515   4.768  11.584 -0.1374 -0.3695  0.5442
18662TIP3    H177401   6.454   4.771  11.509 -0.0387 -0.2802  0.4688
18662TIP3    H277402   6.500   4.850  11.630  1.0251  0.3552 -0.3384
18663TIP3   OH277403   5.265   3.491  16.296  0.1614  0.2615 -0.1899
18663TIP3    H177404   5.171   3.478  16.284  0.3526 -1.2958 -0.1613
18663TIP3    H277405   5.288   3.561  16.235 -0.6324 -0.8687 -1.8331
18664TIP3   OH277406   4.973   6.012   4.927  0.4514 -0.2107  0.3053
18664TIP3    H177407   5.008   6.098   4.950  1.6508 -0.9018  1.2199
18664TIP3    H277408   5.019   5.951   4.986 -0.4721 -1.4583 -0.2159
18665TIP3   OH277409   3.289   6.067   1.531  0.5284 -0.2119  0.3287
18665TIP3    H177410   3.323   6.052   1.619 -0.5554 -1.3646  0.5676
18665TIP3    H277411   3.262   5.981   1.500 -0.5325  0.4024 -0.5233
18666TIP3   OH277412   6.393   3.089   1.683  0.0565 -0.0155 -0.0590
18666TIP3    H177413   6.355   3.136   1.758  1.9052 -3.0588  3.0874
18666TIP3    H277414   6.321   3.034   1.650 -0.3488  0.1115  0.5990
18667TIP3   OH277415   6.253   1.663  16.311 -0.4741 -0.0228  0.2225
18667TIP3    H177416   6.323   1.685  16.372  1.1363  0.4043 -1.6549
18667TIP3    H277417   6.240   1.569  16.320  0.1111 -0.0440  0.8277
18668TIP3   OH277418   2.321   0.095  16.901 -0.5035 -0.4957  0.5323
18668TIP3    H177419   2.320   0.106  16.996 -1.2950  1.1825  0.3560
18668TIP3    H277420   2.397   0.038  16.884  0.6214  0.4779  2.0485
18669TIP3   OH277421   6.273   3.326   2.833  0.1562  0.4699  0.3687
18669TIP3    H177422   6.324   3.399   2.800 -0.5065  1.2766  1.0645
18669TIP3    H277423   6.274   3.337   2.928 -1.9670  1.0018  0.3842
18670TIP3   OH277424   0.148   4.201  12.800  0.4515  0.1210  0.3351
18670TIP3    H177425   0.114   4.207  12.890  1.2262 -0.7001  0.6979
18670TIP3    H277426   0.239   4.174  12.811 -0.2225 -2.9483 -0.7673
18671TIP3   OH277427   1.895   0.028  15.403  0.5313  0.4423 -0.0193
18671TIP3    H177428   1.823   0.050  15.343 -0.4265 -0.0475  0.9082
18671TIP3    H277429   1.970   0.010  15.346 -0.5075 -0.6126 -1.1120
18672TIP3   OH277430   5.962   6.665  16.135  0.1371  0.3621  0.2072
18672TIP3    H177431   5.898   6.594  16.134 -0.8912  1.2661 -0.6609
18672TIP3    H277432   6.046   6.622  16.118 -0.6935 -0.4739 -2.2359
18673TIP3   OH277433   3.251   4.198   6.724  0.2882  0.0671  0.0127
18673TIP3    H177434   3.165   4.175   6.690  0.7681 -0.6263 -0.7643
18673TIP3    H277435   3.254   4.294   6.716  0.2756 -0.0417 -1.6855
18674TIP3   OH277436   4.038   0.194  13.489 -0.0826  0.1535  0.2111
18674TIP3    H177437   4.070   0.111  13.455 -1.7122 -0.5133  0.2122
18674TIP3    H277438   3.975   0.224  13.423 -0.4689  0.7341  0.8352
18675TIP3   OH277439   2.722   3.021  14.639  0.5056  0.1521  0.2877
18675TIP3    H177440   2.659   3.000  14.708  0.6402 -0.4233  0.2417
18675TIP3    H277441   2.803   3.040  14.684  0.6328 -0.3713  0.2838
18676TIP3   OH277442   1.731   4.088  13.678 -0.3548  0.5519 -0.0707
18676TIP3    H177443   1.718   3.999  13.711 -0.9639  0.7171  0.1547
18676TIP3    H277444   1.712   4.082  13.584 -1.8726  0.7260  0.1992
18677TIP3   OH277445   0.688   0.515   3.533 -0.1445  0.0268  0.6379
18677TIP3    H177446   0.659   0.478   3.449  1.0533 -0.8926  0.5980
18677TIP3    H277447   0.773   0.555   3.514  0.1002 -0.1213  1.3869
18678TIP3   OH277448   1.812   3.302  16.702  0.4748 -0.0443  0.3281
18678TIP3    H177449   1.851   3.347  16.628 -0.4825  0.5060  0.1364
18678TIP3    H277450   1.718   3.310  16.688  0.2801 -0.9338  1.0057
18679TIP3   OH277451   4.644   0.625   0.917  0.0544 -0.2290 -0.4806
18679TIP3    H177452   4.574   0.686   0.893 -0.6386 -1.1781 -0.8880
18679TIP3    H277453   4.653   0.636   1.012  0.3844  0.9704 -0.6298
18680TIP3   OH277454   5.694   6.205  11.266  0.6296  0.1024 -0.2610
18680TIP3    H177455   5.780   6.247  11.274 -0.2703  1.8881  0.7625
18680TIP3    H277456   5.668   6.219  11.175  1.2347 -0.0777 -0.4640
18681TIP3   OH277457   4.810   3.184  13.691 -0.1293 -0.0224  0.1513
18681TIP3    H177458   4.776   3.260  13.645 -1.9264 -1.2096 -0.5868
18681TIP3    H277459   4.737   3.154  13.745  1.0601 -0.2968  1.6791
18682TIP3   OH277460   3.073   3.845  16.521 -0.1683 -0.2040 -0.4530
18682TIP3    H177461   3.087   3.829  16.615 -0.6205  0.3143 -0.2922
18682TIP3    H277462   2.980   3.832  16.508 -0.1417 -0.0637 -0.7882
18683TIP3   OH277463   5.610   2.488  14.363 -0.1491  0.0513  0.2134
18683TIP3    H177464   5.518   2.508  14.348 -0.0277  0.3306 -0.1851
18683TIP3    H277465   5.657   2.545  14.302  0.3271  0.5539  1.0283
18684TIP3   OH277466   3.754   6.780  13.528  0.0409 -0.0609  0.7578
18684TIP3    H177467   3.739   6.868  13.493 -2.2147 -0.7689 -0.2012
18684TIP3    H277468   3.679   6.764  13.584 -1.0867 -2.3965 -1.2625
18685TIP3   OH277469   1.675   0.296   5.358 -0.2246  0.7074 -0.1936
18685TIP3    H177470   1.723   0.379   5.352  0.2158  0.5145  0.5384
18685TIP3    H277471   1.743   0.230   5.371 -0.4797  0.0792 -1.8788
18686TIP3   OH277472   1.959   0.181   6.330 -0.0147 -0.3078  0.2006
18686TIP3    H177473   1.871   0.164   6.364 -0.3044  0.4534 -0.1530
18686TIP3    H277474   2.017   0.139   6.394 -0.6337 -1.2016  0.2048
18687TIP3   OH277475   2.777   4.942  16.587  0.0964  0.1951 -0.0960
18687TIP3    H177476   2.872   4.938  16.579  0.0785  0.7912 -0.7131
18687TIP3    H277477   2.759   5.032  16.615 -0.2369 -0.1641  0.8951
18688TIP3   OH277478   2.116   5.854  13.662  0.1857  0.0447  0.2317
18688TIP3    H177479   2.071   5.780  13.702  0.6826 -0.7447 -0.6351
18688TIP3    H277480   2.095   5.928  13.719  0.5580 -0.9527  1.7103
18689TIP3   OH277481   1.194   1.411   4.535 -0.4985 -0.2906  0.1527
18689TIP3    H177482   1.117   1.388   4.586 -1.0805  2.6730  0.8094
18689TIP3    H277483   1.184   1.363   4.452 -1.8029 -1.7470  1.1057
18690TIP3   OH277484   0.915   4.729  13.662  0.1371  0.1216  0.3780
18690TIP3    H177485   0.847   4.762  13.603 -0.0030 -0.5212  0.1763
18690TIP3    H277486   0.905   4.634  13.660  0.6218  0.0564  0.8550
18691TIP3   OH277487   5.575   6.080   3.840  0.3002 -0.9359 -0.0029
18691TIP3    H177488   5.644   6.040   3.787  0.8115 -0.2168  0.0957
18691TIP3    H277489   5.493   6.050   3.801  0.6708 -1.2982 -0.5085
18692TIP3   OH277490   2.899   0.595  15.144 -0.2002 -0.5670  0.1282
18692TIP3    H177491   2.856   0.582  15.229 -1.7793  1.2671 -0.3229
18692TIP3    H277492   2.879   0.515  15.095  0.6923 -1.6230  1.4251
18693TIP3   OH277493   2.390   5.206  15.354  0.0349 -0.1179  0.4010
18693TIP3    H177494   2.445   5.284  15.345  0.3243 -0.3602  0.0161
18693TIP3    H277495   2.303   5.240  15.375  0.0831  0.3208 -0.0941
18694TIP3   OH277496   3.769   4.365  17.056 -0.3954 -0.1457  0.1932
18694TIP3    H177497   3.798   4.362  17.147 -0.8882  0.6953  0.3946
18694TIP3    H277498   3.848   4.383  17.006 -0.1232 -0.6057  0.4554
18695TIP3   OH277499   3.309   3.937   3.248  0.3799  0.2309 -0.1381
18695TIP3    H177500   3.285   4.009   3.189 -0.1744 -1.1315 -1.6659
18695TIP3    H277501   3.297   3.859   3.195  0.8407 -1.0075  1.5183
18696TIP3   OH277502   4.005   6.478  11.402 -0.2880  0.2504 -0.1477
18696TIP3    H177503   3.938   6.427  11.448 -0.8194  1.3792  0.3627
18696TIP3    H277504   4.087   6.432  11.421 -0.7039 -0.1787  0.6479
18697TIP3   OH277505   5.392   1.422   2.625 -0.3418  0.0544  0.0819
18697TIP3    H177506   5.394   1.472   2.544 -0.6933  0.2980  0.2227
18697TIP3    H277507   5.317   1.456   2.673  0.1768  0.2925  0.7493
18698TIP3   OH277508   6.028   6.308  12.061  0.1179 -0.2018  0.2172
18698TIP3    H177509   6.090   6.339  12.127  0.2666  0.0428 -0.0362
18698TIP3    H277510   6.006   6.386  12.010 -1.9489  0.1600  1.5318
18699TIP3   OH277511   1.461   0.314   6.020  0.2300 -0.2986  0.3923
18699TIP3    H177512   1.414   0.389   5.983 -1.0070  0.2455  2.8847
18699TIP3    H277513   1.445   0.243   5.958 -1.5156  0.6144 -0.2755
18700TIP3   OH277514   6.569   2.047  15.398  0.8268  0.3520  0.0991
18700TIP3    H177515   6.524   2.059  15.481 -0.1446 -0.1375 -0.3372
18700TIP3    H277516   6.565   2.133  15.356  0.4090  0.3372  0.1126
18701TIP3   OH277517   1.225   0.736   4.517 -0.1157  0.2412  0.0137
18701TIP3    H177518   1.185   0.770   4.598  2.0212 -0.0696  1.2623
18701TIP3    H277519   1.315   0.768   4.519  0.5300 -1.3552 -1.2934
18702TIP3   OH277520   2.086   2.519  16.326 -0.2861  0.0058 -0.1105
18702TIP3    H177521   2.156   2.570  16.366  0.5246 -0.7545 -0.5127
18702TIP3    H277522   2.129   2.470  16.256 -1.1755 -0.6585 -0.2145
18703TIP3   OH277523   5.469   2.727  17.014  0.5330 -0.2362 -0.5804
18703TIP3    H177524   5.531   2.798  16.993  0.9518 -0.7003 -0.9584
18703TIP3    H277525   5.410   2.724  16.939  0.3916 -0.1560 -0.4721
18704TIP3   OH277526   3.502   0.579  16.770  0.1957 -0.5314  0.5692
18704TIP3    H177527   3.564   0.650  16.789 -0.8748  0.6410 -0.1503
18704TIP3    H277528   3.434   0.620  16.717  0.3518 -2.4604 -1.2680
18705TIP3   OH277529   4.594   0.354   6.166  0.5419 -0.0153  0.1809
18705TIP3    H177530   4.663   0.368   6.231 -0.9509 -1.6140  2.2791
18705TIP3    H277531   4.519   0.321   6.218 -1.2932  0.2121 -2.1629
18706TIP3   OH277532   0.289   2.741  15.371 -0.0697 -0.2324 -0.2210
18706TIP3    H177533   0.250   2.675  15.428  0.1390 -0.3293 -0.1896
18706TIP3    H277534   0.377   2.708  15.353  0.6252  0.8131  1.1062
18707TIP3   OH277535   0.873   3.296  14.204 -0.6146 -0.1607 -0.1325
18707TIP3    H177536   0.831   3.364  14.256 -1.2076  0.9033 -1.8969
18707TIP3    H277537   0.802   3.258  14.152 -0.0447 -1.1347 -0.2316
18708TIP3   OH277538   3.070   1.448  16.904 -0.9623  0.3767  0.7568
18708TIP3    H177539   3.046   1.516  16.841 -1.8166 -3.0407 -2.9688
18708TIP3    H277540   3.153   1.478  16.941 -1.2238  3.3264 -0.7526
18709TIP3   OH277541   6.056   5.878  16.153  0.2902  0.3485 -0.3105
18709TIP3    H177542   6.052   5.813  16.223 -0.6686 -0.8749 -1.4325
18709TIP3    H277543   5.965   5.904  16.139  0.4390  0.3971 -1.2452
18710TIP3   OH277544   6.254   3.917   1.619  0.0441 -0.0032 -0.2926
18710TIP3    H177545   6.329   3.971   1.644  0.0026  0.9712 -2.0657
18710TIP3    H277546   6.180   3.955   1.667  0.4935 -0.3356  0.6906
18711TIP3   OH277547   1.571   5.228   3.051  0.2368  0.2535 -1.3338
18711TIP3    H177548   1.498   5.276   3.013  0.4440  2.7305  1.0864
18711TIP3    H277549   1.539   5.197   3.135  1.9047  1.4383 -0.1923
18712TIP3   OH277550   3.816   0.877   0.353 -0.0905  0.1147  0.4615
18712TIP3    H177551   3.803   0.828   0.272  1.2219  0.2187  0.1689
18712TIP3    H277552   3.910   0.869   0.371 -0.1046  1.3528  1.1627
18713TIP3   OH277553   1.954   3.590  16.070 -0.2714  0.1777 -0.0933
18713TIP3    H177554   2.025   3.580  16.007 -1.2219 -0.1644 -1.1581
18713TIP3    H277555   1.936   3.684  16.073 -1.8975  0.0226 -2.3463
18714TIP3   OH277556   3.056   1.587  14.958 -0.3387  0.3620  0.2217
18714TIP3    H177557   3.129   1.526  14.949  0.4030  1.2928 -0.2884
18714TIP3    H277558   3.021   1.596  14.869 -1.8456 -0.9596  0.6352
18715TIP3   OH277559   0.060   0.098   2.547 -0.4860  0.4439  0.1493
18715TIP3    H177560   0.152   0.108   2.571 -1.2421  2.2720  2.7201
18715TIP3    H277561   0.042   0.172   2.489 -0.3012 -0.0406 -0.5341
18716TIP3   OH277562   1.070   5.511   5.649 -0.4073  0.4019  0.1807
18716TIP3    H177563   1.021   5.562   5.712 -0.9753  0.2248 -0.1058
18716TIP3    H277564   1.142   5.568   5.622 -1.5149  1.4012 -0.7786
18717TIP3   OH277565   2.660   3.667  13.397  0.2447 -0.4586 -0.0846
18717TIP3    H177566   2.603   3.657  13.321 -0.7153 -0.5636  0.6349
18717TIP3    H277567   2.678   3.578  13.426 -0.3549 -0.3904  0.5114
18718TIP3   OH277568   6.303   2.762  13.591  0.2165 -0.3212 -0.2119
18718TIP3    H177569   6.308   2.745  13.685  1.9317 -1.1175 -0.4177
18718TIP3    H277570   6.218   2.727  13.565 -1.1995  1.6969  1.3410
18719TIP3   OH277571   5.708   5.597   5.746 -0.1309  0.3141  0.6571
18719TIP3    H177572   5.729   5.504   5.762  0.5948  0.5400  1.0581
18719TIP3    H277573   5.719   5.639   5.831 -1.1099  0.6635  0.6254
18720TIP3   OH277574   3.691   6.459  14.301  0.0635 -0.3014  0.4145
18720TIP3    H177575   3.697   6.521  14.229  1.1077 -2.0460 -1.1092
18720TIP3    H277576   3.622   6.494  14.358  0.0569  1.7693 -0.7734
18721TIP3   OH277577   0.304   4.864  11.704  0.2832  0.0723 -0.0650
18721TIP3    H177578   0.350   4.938  11.665 -0.7011  0.3520 -0.7397
18721TIP3    H277579   0.357   4.840  11.779  1.3586  0.5712 -0.6405
18722TIP3   OH277580   4.918   2.317   0.573 -0.0802 -0.1974 -0.0837
18722TIP3    H177581   4.942   2.253   0.506 -3.0371 -1.5947 -0.0029
18722TIP3    H277582   4.998   2.332   0.623  1.0720 -2.7929 -0.9821
18723TIP3   OH277583   3.163   4.759   1.575  0.4866  0.3187 -0.2894
18723TIP3    H177584   3.142   4.851   1.591 -0.6280  0.2652 -1.3143
18723TIP3    H277585   3.111   4.735   1.498  0.9966 -1.0847 -0.2302
18724TIP3   OH277586   2.405   2.403  16.364  0.7842 -0.0130  0.5275
18724TIP3    H177587   2.500   2.390  16.364  0.8098  0.0991 -0.5507
18724TIP3    H277588   2.391   2.476  16.425  1.3360 -0.3366  1.0556
18725TIP3   OH277589   6.427   4.175   2.647 -0.5353  0.3707  0.0210
18725TIP3    H177590   6.456   4.219   2.567 -0.4217  1.4324  0.6277
18725TIP3    H277591   6.341   4.213   2.666 -0.2303  0.6888  0.8078
18726TIP3   OH277592   5.216   1.819   4.095  0.3802 -0.4818  0.2332
18726TIP3    H177593   5.166   1.892   4.132  0.3828  0.3035 -1.2743
18726TIP3    H277594   5.150   1.751   4.079  0.4013 -0.9079  1.7764
18727TIP3   OH277595   1.718   2.528   4.675 -0.7440 -0.1039  0.5124
18727TIP3    H177596   1.774   2.606   4.680 -1.5449  0.4098  2.0199
18727TIP3    H277597   1.658   2.537   4.748 -0.9929 -2.0553  0.6004
18728TIP3   OH277598   5.787   5.744   1.748  0.1293  0.0924  0.4141
18728TIP3    H177599   5.702   5.748   1.793 -0.1795 -2.8639  0.3148
18728TIP3    H277600   5.781   5.665   1.693  2.7048  0.1735 -0.1050
18729TIP3   OH277601   3.295   1.977   5.247  0.4615  0.2077 -0.3547
18729TIP3    H177602   3.304   1.963   5.341  0.6075 -1.5980 -0.6059
18729TIP3    H277603   3.222   2.039   5.239  1.7833  2.0523  0.9993
18730TIP3   OH277604   0.180   4.252   3.381  0.0969 -0.2212 -0.0362
18730TIP3    H177605   0.159   4.319   3.316 -1.3696 -0.6960 -0.0849
18730TIP3    H277606   0.274   4.263   3.397  0.8168 -0.8910 -3.1532
18731TIP3   OH277607   6.213   3.778   0.963 -0.6423 -0.1325 -0.1086
18731TIP3    H177608   6.183   3.764   0.873  0.8993 -1.2423 -0.4754
18731TIP3    H277609   6.244   3.692   0.992  4.7027  1.2314 -0.7416
18732TIP3   OH277610   0.316   3.701   0.964  0.2967 -0.2020  1.1116
18732TIP3    H177611   0.264   3.686   0.886  0.7015 -2.1596  1.1679
18732TIP3    H277612   0.389   3.757   0.935 -1.6549  2.5075  1.0229
18733TIP3   OH277613   2.028   1.716   3.377  0.4731 -0.4410  0.1325
18733TIP3    H177614   2.078   1.774   3.433 -1.9737  1.2796  0.6786
18733TIP3    H277615   2.008   1.641   3.433 -0.8049  0.6462  1.1992
18734TIP3   OH277616   5.019   2.741   3.258  0.2669 -0.2634  0.6710
18734TIP3    H177617   5.092   2.680   3.266  1.4793  0.7420 -1.6359
18734TIP3    H277618   4.997   2.740   3.165  0.3091  2.7187  0.5245
18735TIP3   OH277619   6.387   4.649   4.523 -0.2597 -0.3754  0.2150
18735TIP3    H177620   6.433   4.733   4.517  0.9125 -0.8076  2.2749
18735TIP3    H277621   6.374   4.636   4.616  1.0804 -3.2645  0.0877
18736TIP3   OH277622   5.061   5.012   0.757 -0.3379 -0.2310  0.7869
18736TIP3    H177623   5.046   4.943   0.692 -0.0078  0.1394  0.3150
18736TIP3    H277624   5.053   4.967   0.842 -1.0133 -0.6708  0.5044
18737TIP3   OH277625   0.905   5.793   0.290  0.2668 -0.2920  0.2614
18737TIP3    H177626   0.830   5.767   0.345 -0.3717  0.1790 -0.3713
18737TIP3    H277627   0.867   5.852   0.225  0.7810 -1.7895 -1.4730
18738TIP3   OH277628   5.708   3.277  14.524  0.1066  0.1441 -0.1056
18738TIP3    H177629   5.697   3.289  14.429 -0.6838 -0.6839 -0.1404
18738TIP3    H277630   5.801   3.261  14.536  0.1615 -0.0982 -0.7996
18739TIP3   OH277631   4.848   0.270  12.904  0.7915 -0.2243  0.2700
18739TIP3    H177632   4.882   0.318  12.829 -0.8189 -1.3091 -1.2309
18739TIP3    H277633   4.914   0.204  12.923  1.1611 -0.0196 -0.2819
18740TIP3   OH277634   1.899   2.415   5.974  0.0647 -0.3280  0.3774
18740TIP3    H177635   1.865   2.329   5.996 -1.6264  0.2501  0.1683
18740TIP3    H277636   1.938   2.404   5.887  0.4709 -1.0176  0.6426
18741TIP3   OH277637   5.172   3.729   4.303  0.2154  0.2211 -0.0693
18741TIP3    H177638   5.078   3.720   4.313  0.3830  0.7852  2.7671
18741TIP3    H277639   5.204   3.749   4.391  2.8347  1.4529 -1.1899
18742TIP3   OH277640   2.409   5.706  14.044  0.4314 -0.4250 -0.4087
18742TIP3    H177641   2.450   5.654  14.113  2.3618  0.6609 -0.6651
18742TIP3    H277642   2.471   5.778  14.028 -0.7100  0.2315 -2.1782
18743TIP3   OH277643   2.231   0.240  11.408  0.0753  0.4635  0.2724
18743TIP3    H177644   2.194   0.327  11.396 -3.1854 -0.6844  0.7632
18743TIP3    H277645   2.169   0.195  11.465  3.6510 -1.0514  3.3777
18744TIP3   OH277646   3.203   3.342  16.917  0.0052  0.1478  0.8214
18744TIP3    H177647   3.115   3.309  16.936  0.2734  0.6848  3.2915
18744TIP3    H277648   3.262   3.275  16.952  0.5963  0.2566  0.0618
18745TIP3   OH277649   2.393   6.336   0.390 -0.5472  0.1388  0.0628
18745TIP3    H177650   2.336   6.272   0.348 -0.5986 -0.0694  0.4368
18745TIP3    H277651   2.346   6.419   0.384  0.5886  0.6880 -2.6268
18746TIP3   OH277652   3.087   2.338  13.942 -0.0873 -0.3161 -0.2511
18746TIP3    H177653   3.155   2.354  13.876  0.1304  0.0832  0.0640
18746TIP3    H277654   3.096   2.245  13.963  1.9807  0.1887  1.5171
18747TIP3   OH277655   0.120   3.989  14.868  0.2919 -0.2525  0.7933
18747TIP3    H177656   0.118   3.899  14.838  0.7981  0.0095 -0.0740
18747TIP3    H277657   0.069   4.037  14.803 -0.0028  0.0895  1.2652
18748TIP3   OH277658   5.543   1.764  11.292 -0.1665 -0.0487 -0.3558
18748TIP3    H177659   5.544   1.701  11.363 -1.6328 -0.3107 -0.5326
18748TIP3    H277660   5.607   1.831  11.318 -0.8364 -0.0189  1.3229
18749TIP3   OH277661   4.789   5.422  12.512  0.0612  0.0401 -0.3955
18749TIP3    H177662   4.844   5.466  12.577 -0.3289 -1.0928  0.7596
18749TIP3    H277663   4.814   5.330  12.518 -3.0689 -0.8343  1.4326
18750TIP3   OH277664   4.834   1.323  15.339  0.6716  0.0460 -0.2870
18750TIP3    H177665   4.897   1.365  15.281  1.1321 -0.3890 -0.1049
18750TIP3    H277666   4.775   1.394  15.365  0.4539  0.2475 -1.2790
18751TIP3   OH277667   2.272   1.338  12.063 -0.0944  0.8168 -0.0292
18751TIP3    H177668   2.288   1.430  12.045  1.6297  0.3115 -1.4230
18751TIP3    H277669   2.265   1.332  12.158 -1.3994  2.5043  0.0302
18752TIP3   OH277670   5.867   5.110  12.276  0.3969  0.0552  0.6464
18752TIP3    H177671   5.887   5.178  12.212  3.4525 -1.1150  0.1648
18752TIP3    H277672   5.836   5.036  12.225 -2.2275  0.7430  1.1067
18753TIP3   OH277673   6.059   4.967  16.217  0.1099  0.1217  0.1937
18753TIP3    H177674   5.988   4.912  16.183 -1.6541  2.4007 -0.0190
18753TIP3    H277675   6.106   4.909  16.277 -0.0795 -2.3469 -1.8463
18754TIP3   OH277676   5.425   4.537  14.058  0.6504 -0.0617 -0.1633
18754TIP3    H177677   5.424   4.458  14.005  1.5341  0.2261 -0.6254
18754TIP3    H277678   5.368   4.517  14.132 -0.0165 -0.7278 -0.8345
18755TIP3   OH277679   6.188   6.595   4.067 -0.6977 -0.1172  0.2674
18755TIP3    H177680   6.098   6.572   4.089 -0.7907 -1.1548 -1.0661
18755TIP3    H277681   6.197   6.574   3.974  1.8872 -3.4296  1.0685
18756TIP3   OH277682   2.681   1.918   0.686 -0.0012 -0.0756 -0.2259
18756TIP3    H177683   2.770   1.887   0.667 -0.1690 -1.2526  0.7607
18756TIP3    H277684   2.625   1.843   0.665 -0.6335  0.2181  0.3727
18757TIP3   OH277685   0.966   6.069  16.047  0.0723 -0.0848 -0.1963
18757TIP3    H177686   0.899   6.137  16.052 -1.5088 -1.5887  0.1786
18757TIP3    H277687   0.995   6.069  15.956  0.3135  1.2540 -0.1375
18758TIP3   OH277688   1.523   1.120   4.965 -0.1659 -0.2796  0.5483
18758TIP3    H177689   1.442   1.077   4.993  1.6060 -2.9638  2.0270
18758TIP3    H277690   1.549   1.175   5.039 -1.0193  1.2775 -0.2672
18759TIP3   OH277691   5.243   4.280   5.556  0.6249  0.0257  0.4215
18759TIP3    H177692   5.287   4.359   5.588  3.4407 -0.9434 -0.7441
18759TIP3    H277693   5.262   4.213   5.622  0.8040 -0.3716 -0.0217
18760TIP3   OH277694   1.261   5.859  14.766  0.1738  0.4089  0.3200
18760TIP3    H177695   1.223   5.855  14.679  3.0609  0.8817 -1.0908
18760TIP3    H277696   1.326   5.930  14.760  1.8083 -0.8267  2.2535
18761TIP3   OH277697   0.052   5.149   0.651 -0.4631 -0.0822 -0.0282
18761TIP3    H177698   0.110   5.074   0.636 -1.3466 -0.9834  0.8600
18761TIP3    H277699   0.030   5.143   0.744 -0.1545  1.5966  0.1829
18762TIP3   OH277700   6.129   3.094   3.463  0.0540  0.1580 -0.5556
18762TIP3    H177701   6.058   3.158   3.458 -1.0305 -0.9984 -0.8959
18762TIP3    H277702   6.209   3.145   3.456 -0.7575  1.4891 -0.4966
18763TIP3   OH277703   0.234   3.802   4.716  0.2027 -0.0361  0.6422
18763TIP3    H177704   0.283   3.794   4.798  0.8202  2.0483  0.5321
18763TIP3    H277705   0.189   3.718   4.707  2.0913 -1.2542  1.8188
18764TIP3   OH277706   4.959   1.236  12.538  0.0203 -0.6782  0.1918
18764TIP3    H177707   5.050   1.266  12.546 -0.5085  0.6586  1.5812
18764TIP3    H277708   4.924   1.242  12.627 -1.3945 -1.2953 -0.3026
18765TIP3   OH277709   4.745   6.211   1.343 -0.0489 -0.2795  0.1568
18765TIP3    H177710   4.782   6.151   1.408 -0.8315  1.4848  2.3870
18765TIP3    H277711   4.783   6.183   1.260  3.5290 -0.7723  1.7589
18766TIP3   OH277712   0.169   2.068   0.511  0.4380 -0.4110  0.2143
18766TIP3    H177713   0.074   2.078   0.512  0.5482  2.1501 -1.8594
18766TIP3    H277714   0.190   2.024   0.593 -2.7015 -3.7018 -0.5159
18767TIP3   OH277715   1.726   5.783   6.164 -0.2057 -0.0367 -0.2835
18767TIP3    H177716   1.652   5.833   6.198 -0.2881  0.3739 -1.0584
18767TIP3    H277717   1.769   5.748   6.243 -2.0434 -1.5004  0.1398
18768TIP3   OH277718   1.458   4.435   5.375 -0.3597 -0.1558  1.0443
18768TIP3    H177719   1.454   4.457   5.282  0.5302  0.8641  1.2303
18768TIP3    H277720   1.380   4.381   5.390  0.6439 -2.2739 -0.7688
18769TIP3   OH277721   5.730   6.610   0.486 -0.2966 -0.4052  0.3184
18769TIP3    H177722   5.813   6.567   0.469 -0.2511  0.2672 -1.3159
18769TIP3    H277723   5.699   6.571   0.568  1.6079 -0.6598  0.9641
18770TIP3   OH277724   3.166   1.376  15.635  0.5296  0.4107 -0.9116
18770TIP3    H177725   3.201   1.436  15.701  0.8490 -1.3530  0.5750
18770TIP3    H277726   3.238   1.366  15.572  0.4349  1.6236 -1.2486
18771TIP3   OH277727   5.177   2.573   0.934 -0.2295  0.7054  0.1357
18771TIP3    H177728   5.232   2.593   1.010 -0.5153  0.8352  0.3089
18771TIP3    H277729   5.195   2.481   0.914 -0.3206  0.6106  0.4938
18772TIP3   OH277730   3.942   2.699   4.188  0.4532  0.1501 -0.4212
18772TIP3    H177731   3.994   2.780   4.198  1.8242 -0.9383  2.0801
18772TIP3    H277732   3.958   2.673   4.097  0.6751  2.1892 -1.0399
18773TIP3   OH277733   3.130   5.542  17.239  0.1242  0.7703 -0.2532
18773TIP3    H177734   3.104   5.633  17.224 -2.3896  0.5451  1.9379
18773TIP3    H277735   3.203   5.547  17.300  0.7625  1.3122 -1.0484
18774TIP3   OH277736   6.721   1.644  15.525  0.0093  0.1116  0.6353
18774TIP3    H177737   6.711   1.731  15.564  1.0676  0.4351  0.2274
18774TIP3    H277738   6.688   1.655  15.435  2.2806  0.7475 -0.1806
18775TIP3   OH277739   2.647   6.664  17.192  0.2937  0.0032  0.2130
18775TIP3    H177740   2.596   6.584  17.185 -0.3458  0.3682  0.6422
18775TIP3    H277741   2.732   6.635  17.226  0.0337 -0.4755  0.4604
18776TIP3   OH277742   2.746   3.775   1.038  0.3498 -0.2193 -0.4584
18776TIP3    H177743   2.678   3.710   1.021  2.0158 -2.3793  0.7133
18776TIP3    H277744   2.778   3.801   0.952 -1.0528 -0.1100 -0.9720
18777TIP3   OH277745   4.450   4.703  12.847 -0.0320  0.4910  0.3542
18777TIP3    H177746   4.459   4.613  12.876 -0.6186  0.7219  1.2893
18777TIP3    H277747   4.356   4.715  12.833  0.1834  0.5411 -1.1792
18778TIP3   OH277748   5.026   6.422  13.140  0.3343  0.4291 -0.1366
18778TIP3    H177749   5.061   6.481  13.073  2.2795  0.5970  0.9486
18778TIP3    H277750   5.078   6.342  13.131 -1.1822 -0.5606 -0.5150
18779TIP3   OH277751   5.134   1.452  15.711 -0.1743 -0.0522 -0.0879
18779TIP3    H177752   5.103   1.374  15.758 -1.0455  0.1814 -0.2629
18779TIP3    H277753   5.229   1.438  15.701 -0.6323 -2.2729 -2.3053
18780TIP3   OH277754   0.757   2.838  12.332 -0.0421  0.1806  0.3534
18780TIP3    H177755   0.709   2.786  12.396  0.1667 -2.3179 -1.3522
18780TIP3    H277756   0.759   2.782  12.253  2.9067  1.5014 -0.6475
18781TIP3   OH277757   1.584   3.085  13.457 -0.1970 -0.2073  1.0854
18781TIP3    H177758   1.591   2.990  13.456  0.2970 -0.1771 -0.8258
18781TIP3    H277759   1.666   3.115  13.497  0.5027 -0.5402 -0.0813
18782TIP3   OH277760   1.572   0.459  15.314  0.5058 -0.2750 -0.1478
18782TIP3    H177761   1.588   0.462  15.408  0.0065  0.3997 -0.0813
18782TIP3    H277762   1.653   0.424  15.277  1.0104  0.2395  0.4521
18783TIP3   OH277763   4.304   2.016   4.860 -0.3817  0.4060 -0.2578
18783TIP3    H177764   4.232   2.075   4.837  0.6084  1.3618 -1.0418
18783TIP3    H277765   4.297   2.005   4.955 -1.5634  0.4576 -0.3275
18784TIP3   OH277766   2.753   2.793  14.482 -0.6895  0.1783  0.0914
18784TIP3    H177767   2.783   2.862  14.541  1.7435 -0.0339 -0.7722
18784TIP3    H277768   2.667   2.769  14.515 -0.1407  1.2239  2.5090
18785TIP3   OH277769   5.117   5.266   6.294 -0.7371  0.7333 -0.0176
18785TIP3    H177770   5.177   5.223   6.232 -2.0736 -1.1717 -0.0766
18785TIP3    H277771   5.174   5.304   6.360  0.5826 -0.3287 -0.4950
18786TIP3   OH277772   2.393   5.076   6.157  0.6753 -0.0028 -0.6877
18786TIP3    H177773   2.485   5.057   6.175  0.7888  0.7637 -0.4254
18786TIP3    H277774   2.347   4.997   6.186  1.2104 -0.2325 -0.4376
18787TIP3   OH277775   1.784   6.377  15.813  0.5709 -0.7525 -0.7041
18787TIP3    H177776   1.825   6.292  15.830  0.8631 -0.4323  0.2326
18787TIP3    H277777   1.789   6.387  15.717  0.7782 -1.6637 -0.7950
18788TIP3   OH277778   5.967   0.925   3.905  0.1808 -0.2638  0.1668
18788TIP3    H177779   5.888   0.874   3.922  0.9394 -0.6734  2.7992
18788TIP3    H277780   6.032   0.860   3.877  0.4979 -0.4509  1.2866
18789TIP3   OH277781   1.843   4.029   3.899 -0.3566  0.0417  0.4428
18789TIP3    H177782   1.781   4.034   3.972 -0.5267  2.8199  0.1824
18789TIP3    H277783   1.929   4.021   3.941 -0.5284  0.6529  0.9125
18790TIP3   OH277784   0.549   3.332   3.637  0.1828  0.3899  0.0690
18790TIP3    H177785   0.604   3.254   3.636  0.4357  0.5469 -1.5395
18790TIP3    H277786   0.557   3.367   3.726  0.9254 -0.8083  0.4845
18791TIP3   OH277787   1.969   4.887  12.274  0.6328  0.3419  0.6070
18791TIP3    H177788   2.017   4.958  12.317 -0.1529  0.7706  0.8028
18791TIP3    H277789   1.876   4.910  12.286  0.3478 -1.0421  1.2258
18792TIP3   OH277790   1.712   1.135   2.183  0.0554  0.3044  0.1683
18792TIP3    H177791   1.743   1.147   2.273 -0.5316 -0.8910  0.5517
18792TIP3    H277792   1.790   1.151   2.129  0.1166  2.3771  0.7657
18793TIP3   OH277793   3.002   0.203  14.037 -0.4747  0.2021 -0.2930
18793TIP3    H177794   2.950   0.137  14.083 -0.2626  0.8197  0.8746
18793TIP3    H277795   2.938   0.267  14.006 -0.5470  0.2530 -0.0449
18794TIP3   OH277796   4.618   6.573  12.673 -0.7418  0.6433 -0.2975
18794TIP3    H177797   4.672   6.495  12.682  0.6583  1.3710 -1.9605
18794TIP3    H277798   4.668   6.631  12.615 -1.9687  2.5701  0.4677
18795TIP3   OH277799   4.674   0.791   2.587 -0.0089  0.3071 -0.3645
18795TIP3    H177800   4.763   0.818   2.611 -0.4769 -0.2071  2.2569
18795TIP3    H277801   4.631   0.873   2.561  1.0455  0.6417 -1.1677
18796TIP3   OH277802   5.988   5.141   1.193  0.0828 -0.3311 -0.2091
18796TIP3    H177803   6.016   5.098   1.112 -0.3345 -2.0843  0.5301
18796TIP3    H277804   6.067   5.145   1.247 -0.0746 -1.0765  0.0897
18797TIP3   OH277805   5.287   4.405  16.941  0.9096  0.1904 -0.0397
18797TIP3    H177806   5.345   4.413  17.016 -0.4992  2.4867  0.9306
18797TIP3    H277807   5.209   4.361  16.975  0.9807 -0.4087 -0.6323
18798TIP3   OH277808   3.246   4.457   1.328  0.1582 -0.3008  0.6376
18798TIP3    H177809   3.282   4.529   1.380 -0.1815 -0.2399  0.7913
18798TIP3    H277810   3.152   4.476   1.321 -0.8097 -2.7200  4.1280
18799TIP3   OH277811   2.774   2.212  11.184 -0.4997 -0.0608 -0.4194
18799TIP3    H177812   2.812   2.218  11.272  2.0953  2.6755 -1.5647
18799TIP3    H277813   2.807   2.129  11.150  2.6190  1.0150 -0.4056
18800TIP3   OH277814   5.741   3.246   3.798 -0.4864 -0.1908  0.7203
18800TIP3    H177815   5.769   3.183   3.731  1.2973  0.2213  1.0291
18800TIP3    H277816   5.682   3.197   3.854  0.4555 -1.4576  0.6485
18801TIP3   OH277817   2.809   1.225  15.530  0.0634  0.6279 -0.2100
18801TIP3    H177818   2.862   1.155  15.492  0.5918  1.8038 -1.7570
18801TIP3    H277819   2.838   1.231  15.621  0.0221 -1.1134 -0.0597
18802TIP3   OH277820   1.630   2.201   2.117 -0.1078  0.3397  0.4596
18802TIP3    H177821   1.564   2.134   2.100  0.0948  0.3274 -0.3119
18802TIP3    H277822   1.615   2.228   2.208 -0.9216  0.0637  0.4097
18803TIP3   OH277823   4.183   1.603   2.957  0.6072  0.6610 -0.4598
18803TIP3    H177824   4.247   1.625   3.024  0.0013  0.8814  0.0603
18803TIP3    H277825   4.163   1.511   2.972 -0.0144  0.8777  0.0934
18804TIP3   OH277826   5.814   5.049   5.023 -0.0952 -0.3026 -0.3208
18804TIP3    H177827   5.831   4.955   5.033 -1.8367 -0.8503 -1.8498
18804TIP3    H277828   5.877   5.091   5.081  0.6285 -2.4173  0.5397
18805TIP3   OH277829   2.997   3.459   5.794 -0.1281  0.6395 -0.1654
18805TIP3    H177830   3.067   3.409   5.835 -1.3782  1.0358  2.7631
18805TIP3    H277831   2.941   3.393   5.753  2.9028  0.4258 -4.6926
18806TIP3   OH277832   6.033   1.034  14.206 -0.3989  0.7882  0.1296
18806TIP3    H177833   6.011   1.112  14.257 -0.7247  0.1479  0.9968
18806TIP3    H277834   6.117   1.006  14.241  0.5240  1.6647 -1.3063
18807TIP3   OH277835   2.984   0.425  12.014 -0.1564  0.2508 -0.5063
18807TIP3    H177836   3.054   0.431  12.079 -1.2818  0.0536  0.7751
18807TIP3    H277837   2.955   0.334  12.019 -1.8276  0.7721  0.4931
18808TIP3   OH277838   5.359   3.925   3.786  0.0790  0.2859  0.2292
18808TIP3    H177839   5.450   3.912   3.761  0.2115 -1.3826  1.3864
18808TIP3    H277840   5.341   3.856   3.850 -1.6931  1.2120  0.8336
18809TIP3   OH277841   5.205   1.258   2.235  0.1047 -0.0073 -0.2530
18809TIP3    H177842   5.137   1.324   2.218  1.3074  1.9834  2.0533
18809TIP3    H277843   5.158   1.186   2.277 -0.6495  1.3107  1.2679
18810TIP3   OH277844   0.708   1.423  14.813  0.1296  0.3327 -0.2120
18810TIP3    H177845   0.777   1.418  14.748 -0.3287 -0.0425 -0.6761
18810TIP3    H277846   0.649   1.492  14.781  0.3611  0.7623  0.2603
18811TIP3   OH277847   0.630   0.165  11.207  0.5261 -0.0282 -0.4600
18811TIP3    H177848   0.633   0.261  11.198  0.6177 -0.1889 -2.5006
18811TIP3    H277849   0.633   0.132  11.117 -3.3996 -1.8817 -0.0922
18812TIP3   OH277850   0.450   2.430  12.497  0.3356  0.7584  0.4742
18812TIP3    H177851   0.432   2.360  12.434  1.9585 -0.5562  1.3924
18812TIP3    H277852   0.364   2.453  12.532 -0.3404 -0.1067 -0.5294
18813TIP3   OH277853   5.879   4.784  16.130  0.6388 -0.3729  0.2861
18813TIP3    H177854   5.909   4.796  16.040  2.3313 -0.3296  0.8250
18813TIP3    H277855   5.899   4.692  16.150  1.3648 -0.0815  0.9806
18814TIP3   OH277856   2.276   4.386  13.299  0.3679  0.1515  0.4767
18814TIP3    H177857   2.276   4.448  13.226  0.0889 -0.8367 -0.3905
18814TIP3    H277858   2.349   4.415  13.355  1.0153  0.5455 -0.5390
18815TIP3   OH277859   3.080   1.621   4.887  0.3588  0.2642 -0.0312
18815TIP3    H177860   3.007   1.601   4.828  0.0245  1.7263 -0.1670
18815TIP3    H277861   3.069   1.560   4.960 -0.0472 -0.6204 -0.8122
18816TIP3   OH277862   1.446   3.983  10.816  0.3308  0.4042 -0.8681
18816TIP3    H177863   1.449   4.058  10.756  3.4798  0.7138 -0.5292
18816TIP3    H277864   1.396   4.014  10.891  0.4069  1.7081 -1.3329
18817TIP3   OH277865   1.404   5.131  14.858 -0.0913  0.1954  0.4129
18817TIP3    H177866   1.442   5.169  14.779  0.8948 -1.1676  0.2029
18817TIP3    H277867   1.417   5.199  14.925  2.0146  0.1198  0.1488
18818TIP3   OH277868   3.975   6.447  16.292  0.3096  0.3675  0.2378
18818TIP3    H177869   3.905   6.479  16.235 -1.6189  0.0591  2.2955
18818TIP3    H277870   4.022   6.526  16.319 -1.3254  1.0005  1.3785
18819TIP3   OH277871   5.626   5.859  17.049  0.2218 -0.4258 -0.0389
18819TIP3    H177872   5.635   5.786  17.110 -1.4747 -0.9315 -0.3354
18819TIP3    H277873   5.716   5.887  17.031  0.9038 -2.2847  0.2702
18820TIP3   OH277874   4.731   3.411   4.850 -0.1279  0.1666 -0.1940
18820TIP3    H177875   4.728   3.348   4.778  1.1882 -0.8433  0.5823
18820TIP3    H277876   4.824   3.424   4.867 -0.3885  1.8180  0.1287
18821TIP3   OH277877   4.004   0.063  14.525  0.0669  0.2466 -0.4071
18821TIP3    H177878   3.920   0.108  14.514  0.8770  1.4911 -1.7122
18821TIP3    H277879   4.062   0.129  14.562  0.7641 -0.3115 -0.4844
18822TIP3   OH277880   4.074   4.657  14.485 -0.4471 -0.2853  0.7174
18822TIP3    H177881   4.143   4.629  14.545  0.0131 -0.9935 -0.1190
18822TIP3    H277882   4.095   4.614  14.403  0.2765  2.4585 -0.6761
18823TIP3   OH277883   6.394   6.627   1.135 -0.4685 -0.1147  0.1791
18823TIP3    H177884   6.378   6.714   1.098 -0.1040 -0.2155 -0.2267
18823TIP3    H277885   6.384   6.567   1.061  1.8548 -0.1733 -0.1498
18824TIP3   OH277886   6.721   1.982  13.882 -0.1794  0.2839  0.1220
18824TIP3    H177887   6.639   2.001  13.835  0.9159  1.1378 -1.5105
18824TIP3    H277888   6.790   2.016  13.825  1.2663  0.7059  2.0518
18825TIP3   OH277889   2.219   3.180  13.489 -0.9249 -0.5600 -0.1407
18825TIP3    H177890   2.128   3.202  13.472 -0.3295  0.9772 -1.5757
18825TIP3    H277891   2.229   3.091  13.455 -1.6017 -0.2852 -1.1097
18826TIP3   OH277892   1.319   3.152   5.972  0.3178 -0.2209  0.0993
18826TIP3    H177893   1.324   3.201   5.890  0.9537  0.2572  0.4119
18826TIP3    H277894   1.236   3.178   6.011  0.7546  0.8172  0.3753
18827TIP3   OH277895   4.002   4.772  13.339 -0.0854 -0.6334 -0.0742
18827TIP3    H177896   3.907   4.764  13.346 -0.0846 -0.9415 -0.3551
18827TIP3    H277897   4.022   4.860  13.369 -0.3978 -0.7781  0.5615
18828TIP3   OH277898   2.119   1.774  11.906  0.2098  0.2452  0.1544
18828TIP3    H177899   2.043   1.716  11.906 -0.7479  1.4646  0.2609
18828TIP3    H277900   2.157   1.763  11.819 -0.2696 -0.1409 -0.0137
18829TIP3   OH277901   6.664   2.912   6.513 -0.2765 -0.0035 -0.2429
18829TIP3    H177902   6.748   2.955   6.493 -0.1809 -0.4861 -0.9048
18829TIP3    H277903   6.599   2.966   6.469 -0.2005 -0.2696 -0.6872
18830TIP3   OH277904   5.622   0.138  12.922 -0.1476  0.2700 -0.6245
18830TIP3    H177905   5.702   0.180  12.954 -0.1469 -1.2908  1.6612
18830TIP3    H277906   5.552   0.195  12.952  0.0314  0.8942 -1.3739
18831TIP3   OH277907   4.820   2.361  11.506 -0.2100 -0.0531  0.2507
18831TIP3    H177908   4.812   2.358  11.411  0.4107 -0.4897  0.2081
18831TIP3    H277909   4.855   2.448  11.525  2.3264 -0.8947 -0.1490
18832TIP3   OH277910   5.639   2.751   3.999  0.1199 -0.3019 -0.0195
18832TIP3    H177911   5.707   2.721   3.940 -0.4007 -1.2751 -0.1513
18832TIP3    H277912   5.674   2.736   4.087  1.2239  1.9015 -0.0288
18833TIP3   OH277913   1.135   4.505   2.704  0.8857  0.1747 -0.1389
18833TIP3    H177914   1.149   4.564   2.778  0.6282  0.1291 -0.0541
18833TIP3    H277915   1.187   4.428   2.723  0.3566 -0.0828  0.2763
18834TIP3   OH277916   0.634   4.637   4.780 -0.1606  0.2957  0.2869
18834TIP3    H177917   0.542   4.661   4.773 -0.3001 -0.4256 -0.7636
18834TIP3    H277918   0.633   4.552   4.824  0.0678  0.6186  0.9290
18835TIP3   OH277919   4.133   5.169   1.413 -0.6456  0.4073 -0.0202
18835TIP3    H177920   4.078   5.246   1.423  0.1935  0.8926  1.1208
18835TIP3    H277921   4.182   5.163   1.495 -0.5855 -1.2646 -0.1393
18836TIP3   OH277922   5.895   0.819  13.106  0.3319  0.4224 -0.8111
18836TIP3    H177923   5.876   0.895  13.160  0.5126  0.2576 -0.5173
18836TIP3    H277924   5.913   0.749  13.168  0.8936  0.3216 -1.0864
18837TIP3   OH277925   5.669   6.661  15.113  0.3491 -0.1684  0.1238
18837TIP3    H177926   5.707   6.628  15.031 -0.6392 -1.3644  0.1145
18837TIP3    H277927   5.582   6.691  15.088  0.3965  0.3414  0.5683
18838TIP3   OH277928   3.159   3.631  15.047  0.4910  0.2837  0.0128
18838TIP3    H177929   3.208   3.649  14.967  0.8039 -0.5646  0.0032
18838TIP3    H277930   3.225   3.601  15.110  0.1728  0.4382  0.4263
18839TIP3   OH277931   3.060   0.877   1.897 -0.2279 -0.3366  0.0299
18839TIP3    H177932   3.122   0.887   1.969  1.2168  0.1494 -1.2370
18839TIP3    H277933   2.976   0.905   1.934  0.7490  1.3187  1.1401
18840TIP3   OH277934   0.271   0.629   3.269 -0.0384  0.4608 -0.1446
18840TIP3    H177935   0.203   0.667   3.213 -0.9549 -2.4377 -1.2027
18840TIP3    H277936   0.306   0.703   3.319 -2.2369  2.4598 -1.3776
18841TIP3   OH277937   4.349   1.572   4.992  0.1448 -0.2133  0.9950
18841TIP3    H177938   4.411   1.633   4.951 -0.4609  0.2032  0.6773
18841TIP3    H277939   4.403   1.515   5.045  0.7603  0.4291  1.0736
18842TIP3   OH277940   3.917   1.228   0.671 -0.2596 -0.7913 -0.1167
18842TIP3    H177941   3.998   1.274   0.691 -0.2752 -0.9867  0.4225
18842TIP3    H277942   3.921   1.212   0.577  0.6145 -1.3458  0.0051
18843TIP3   OH277943   5.233   5.585  14.767 -0.0149  0.0891  0.3223
18843TIP3    H177944   5.179   5.662  14.747 -0.3478 -0.3964 -0.7281
18843TIP3    H277945   5.206   5.559  14.854  0.0701  1.1315  0.6770
18844TIP3   OH277946   2.161   2.050  11.754  0.0606  0.3806  0.4737
18844TIP3    H177947   2.116   1.997  11.688  0.3451  3.0603 -2.1337
18844TIP3    H277948   2.091   2.101  11.795  0.1641  0.8102  0.1262
18845TIP3   OH277949   2.407   0.464  11.511  0.0230 -0.2681  0.5247
18845TIP3    H177950   2.326   0.445  11.559 -0.8065  1.3535 -0.1575
18845TIP3    H277951   2.377   0.501  11.428  1.4681  1.4060  0.7135
18846TIP3   OH277952   0.450   4.640  17.069  0.3454 -0.0289  0.1036
18846TIP3    H177953   0.525   4.690  17.100  1.8022 -2.7395  1.3006
18846TIP3    H277954   0.474   4.612  16.981  0.8137 -0.9458  0.5084
18847TIP3   OH277955   2.856   0.883  14.844  0.1120 -0.6002 -0.2225
18847TIP3    H177956   2.783   0.894  14.905  1.9501  3.1747  1.6531
18847TIP3    H277957   2.824   0.919  14.761 -1.3525 -2.7293 -0.6435
18848TIP3   OH277958   0.593   3.259   4.372 -0.1865  0.1778 -0.3647
18848TIP3    H177959   0.620   3.172   4.400 -0.2252  0.2232 -0.1863
18848TIP3    H277960   0.614   3.316   4.446  0.9683  0.5232 -0.9313
18849TIP3   OH277961   4.438   0.687   1.295 -0.3924 -0.1781 -0.1728
18849TIP3    H177962   4.467   0.610   1.246 -0.1555 -0.6894  0.7486
18849TIP3    H277963   4.520   0.730   1.322 -0.5213  0.6292 -1.0140
18850TIP3   OH277964   5.703   5.150  13.862 -0.7123  0.1567 -0.2388
18850TIP3    H177965   5.622   5.157  13.812 -0.4815 -0.3865 -0.6991
18850TIP3    H277966   5.677   5.106  13.943 -0.6692 -1.2240 -0.9388
18851TIP3   OH277967   4.578   0.274  14.555 -0.3042  0.7760  0.1794
18851TIP3    H177968   4.492   0.289  14.595 -1.0208 -0.4833 -0.8049
18851TIP3    H277969   4.574   0.318  14.471 -0.9723 -1.3280 -0.9790
18852TIP3   OH277970   6.569   1.978  12.087 -0.2658 -0.6986  0.2720
18852TIP3    H177971   6.650   1.994  12.037 -0.8569 -1.5834 -1.0113
18852TIP3    H277972   6.519   1.917  12.033 -2.0598  0.2705  0.7656
18853TIP3   OH277973   4.683   4.601   3.111 -0.5817 -0.0698 -0.6362
18853TIP3    H177974   4.651   4.682   3.070  0.6893  0.5967 -0.3578
18853TIP3    H277975   4.742   4.564   3.046  1.3259  0.9087  0.4629
18854TIP3   OH277976   5.945   1.395  13.372 -0.1359 -0.5332 -0.3682
18854TIP3    H177977   5.980   1.342  13.444 -1.2424 -0.4201  0.2668
18854TIP3    H277978   5.851   1.395  13.386 -0.2036  1.2061 -0.6345
18855TIP3   OH277979   5.858   0.316   1.427 -0.0031 -0.5099  0.3118
18855TIP3    H177980   5.784   0.294   1.370  0.2953 -0.2587 -0.1832
18855TIP3    H277981   5.935   0.285   1.379  0.1927 -0.9843  0.9328
18856TIP3   OH277982   5.059   1.282  15.910 -0.8245 -0.2672 -0.0833
18856TIP3    H177983   5.093   1.196  15.887  0.8587  0.1052  0.8555
18856TIP3    H277984   4.980   1.264  15.961 -1.0244 -1.2150 -0.7116
18857TIP3   OH277985   0.944   5.286   2.785 -0.0331 -0.2886  0.8399
18857TIP3    H177986   1.012   5.352   2.770 -1.6738  0.9403 -2.0295
18857TIP3    H277987   0.979   5.206   2.744 -0.6907  0.6520 -1.7234
18858TIP3   OH277988   3.042   3.634  10.778 -0.5528 -0.2725  0.7070
18858TIP3    H177989   2.951   3.665  10.781 -1.0757 -1.7674  1.5401
18858TIP3    H277990   3.094   3.710  10.803 -1.6896  0.2294  1.6590
18859TIP3   OH277991   4.473   6.310  14.351  0.5219 -0.2326  0.1667
18859TIP3    H177992   4.462   6.378  14.417 -1.2850  0.4810 -0.7982
18859TIP3    H277993   4.494   6.231  14.401 -1.4558  0.1270  1.6928
18860TIP3   OH277994   6.419   2.167   1.538 -1.0092 -0.0328 -0.3797
18860TIP3    H177995   6.496   2.214   1.505 -0.0213 -1.7145 -0.5551
18860TIP3    H277996   6.346   2.199   1.484  0.3956 -2.0806 -3.8283
18861TIP3   OH277997   4.694   1.486  16.604 -0.2644  0.1357 -0.2921
18861TIP3    H177998   4.607   1.453  16.583 -1.2136  1.2968  1.6181
18861TIP3    H277999   4.740   1.411  16.642 -1.4804  0.2712  1.5143
18862TIP3   OH278000   0.394   4.282   0.999 -0.3406 -0.7445  0.0640
18862TIP3    H178001   0.344   4.358   0.968  1.3400 -0.2268 -1.5244
18862TIP3    H278002   0.331   4.232   1.051 -1.7679  1.2135  0.3384
18863TIP3   OH278003   0.478   3.085  11.533  0.0770 -0.6523  0.4597
18863TIP3    H178004   0.573   3.089  11.541 -0.0257 -0.6114  2.0900
18863TIP3    H278005   0.453   3.174  11.506  0.4411 -0.3725  1.0125
18864TIP3   OH278006   0.940   2.226  12.858  0.7359 -0.1577  0.1548
18864TIP3    H178007   0.903   2.303  12.901 -1.2845 -1.7639  1.4796
18864TIP3    H278008   0.876   2.205  12.789  0.4563 -1.4910  0.7982
18865TIP3   OH278009   3.962   4.050   1.098  0.4132  0.7098  0.1004
18865TIP3    H178010   3.970   4.084   1.009 -1.0094 -0.9597 -0.7242
18865TIP3    H278011   3.875   4.077   1.127  0.9394  1.4078  1.0845
18866TIP3   OH278012   2.050   3.167   4.835 -0.1802  0.7099  0.4176
18866TIP3    H178013   2.071   3.204   4.749  0.3371 -0.0142  0.2232
18866TIP3    H278014   2.072   3.236   4.897  0.2707  0.9276  0.0256
18867TIP3   OH278015   4.281   5.584   3.599  0.0409 -0.0586 -0.3112
18867TIP3    H178016   4.323   5.552   3.519 -0.0332  0.4504 -0.5552
18867TIP3    H278017   4.187   5.577   3.580  0.0236  0.0643 -0.2686
18868TIP3   OH278018   4.122   4.207  12.741 -0.1480  0.2507  0.8851
18868TIP3    H178019   4.194   4.267  12.722  1.0815 -0.5085  2.8060
18868TIP3    H278020   4.085   4.240  12.823 -0.7112 -0.5025  0.9445
18869TIP3   OH278021   1.990   5.018  15.162  0.0050 -0.2440 -0.2384
18869TIP3    H178022   2.036   5.098  15.137  0.8037 -0.5597  0.2019
18869TIP3    H278023   1.984   5.023  15.257  0.2035 -0.7819 -0.1970
18870TIP3   OH278024   3.323   4.600  11.265  0.0571 -0.1798 -0.4749
18870TIP3    H178025   3.413   4.574  11.286 -0.0900 -0.7358 -0.5199
18870TIP3    H278026   3.329   4.694  11.246 -0.0415  0.8756  3.6844
18871TIP3   OH278027   3.910   0.635   0.764  0.1663  0.4424 -0.4982
18871TIP3    H178028   3.917   0.540   0.755  0.7202  0.4049  0.3195
18871TIP3    H278029   3.839   0.659   0.704 -0.2354 -0.5308 -0.4284
18872TIP3   OH278030   0.673   3.358  12.383  0.2445  0.5776  0.5830
18872TIP3    H178031   0.668   3.266  12.408 -0.2784  0.7284  1.0469
18872TIP3    H278032   0.761   3.368  12.346 -0.0024 -0.3028 -0.2811
18873TIP3   OH278033   3.844   6.774  17.134 -0.4962  0.2097  0.5227
18873TIP3    H178034   3.778   6.730  17.188  0.7934 -0.9821  1.2080
18873TIP3    H278035   3.887   6.703  17.087 -0.4370  1.0808 -0.7758
18874TIP3   OH278036   3.554   5.462  14.605 -0.0022  0.2032 -0.7088
18874TIP3    H178037   3.641   5.477  14.644 -0.2485  0.9653 -0.4386
18874TIP3    H278038   3.568   5.392  14.542  1.2080  1.5764 -2.0335
18875TIP3   OH278039   3.911   5.192   2.227  0.0613  0.1022 -0.4591
18875TIP3    H178040   3.964   5.122   2.267  2.1784  2.0189  0.2992
18875TIP3    H278041   3.842   5.208   2.291  1.0891  0.4243  0.6087
18876TIP3   OH278042   1.031   4.442  11.482 -0.0800  0.3243 -0.2474
18876TIP3    H178043   0.998   4.491  11.557  1.5149  0.4506  0.4115
18876TIP3    H278044   0.965   4.374  11.468  0.0293 -0.3090  1.9034
18877TIP3   OH278045   0.489   0.732  13.700  0.1901  0.2579  0.6544
18877TIP3    H178046   0.448   0.695  13.778  0.9218  1.7546  1.8246
18877TIP3    H278047   0.469   0.826  13.705 -0.6841  0.2699 -1.5876
18878TIP3   OH278048   3.145   3.109   0.426 -0.2160 -0.4301  0.4352
18878TIP3    H178049   3.187   3.024   0.419  0.4667 -0.0422 -0.2402
18878TIP3    H278050   3.146   3.144   0.337  0.3834  0.6874  0.8676
18879TIP3   OH278051   2.762   1.808   4.179 -0.0975  0.3313 -0.1312
18879TIP3    H178052   2.686   1.766   4.140 -0.6558  0.2010  1.0534
18879TIP3    H278053   2.769   1.893   4.134 -0.7536  0.2210 -0.4480
18880TIP3   OH278054   3.942   2.333   4.157 -0.5067 -0.2766 -0.7296
18880TIP3    H178055   3.908   2.246   4.135 -0.2308 -0.9528  1.3385
18880TIP3    H278056   3.893   2.393   4.101 -0.6196 -1.7547 -2.2941
18881TIP3   OH278057   6.424   6.333  13.486  0.0418  0.3820 -0.0002
18881TIP3    H178058   6.390   6.370  13.404 -2.0000  0.2981  0.7564
18881TIP3    H278059   6.519   6.324  13.471 -0.3934 -0.6053 -2.7296
18882TIP3   OH278060   5.642   4.324   2.988 -0.3529 -0.2608 -0.5819
18882TIP3    H178061   5.575   4.386   3.016 -2.1740 -1.8945 -1.1001
18882TIP3    H278062   5.669   4.355   2.902 -2.4404 -0.9935 -1.5712
18883TIP3   OH278063   6.533   1.273  14.545 -0.1162  0.8247 -0.2481
18883TIP3    H178064   6.626   1.288  14.527 -0.3161  0.6135 -1.4909
18883TIP3    H278065   6.494   1.360  14.548  0.0261  0.8885 -0.2470
18884TIP3   OH278066   6.782   6.460   3.281 -0.0547  0.1476  0.3987
18884TIP3    H178067   6.816   6.549   3.298  0.9908 -0.0089 -0.7709
18884TIP3    H278068   6.850   6.402   3.316 -0.5530 -0.2051  0.7973
18885TIP3   OH278069   0.319   4.162   4.954  0.1299  0.1674 -0.5294
18885TIP3    H178070   0.320   4.083   5.007 -3.7797  2.2293  3.3485
18885TIP3    H278071   0.273   4.137   4.874 -2.2875 -1.4201  1.1857
18886TIP3   OH278072   4.167   2.348   3.748 -0.6217  0.4059 -0.1435
18886TIP3    H178073   4.237   2.403   3.782  1.5487 -1.3305 -1.4886
18886TIP3    H278074   4.111   2.408   3.698  0.5456  1.6748  0.0239
18887TIP3   OH278075   0.245   0.843   4.405  0.0913  0.2660 -0.7643
18887TIP3    H178076   0.217   0.780   4.339 -2.0957 -0.0529  0.3818
18887TIP3    H278077   0.188   0.919   4.393  0.5212  0.7174 -0.0680
18888TIP3   OH278078   4.821   2.652   5.394  0.4604 -0.1102 -0.3346
18888TIP3    H178079   4.737   2.630   5.434  1.5557  0.6788  2.7241
18888TIP3    H278080   4.821   2.607   5.310 -2.3376 -1.4313  0.2764
18889TIP3   OH278081   5.631   5.641   1.199 -0.0690 -0.4375 -0.4197
18889TIP3    H178082   5.700   5.581   1.227 -1.6114 -1.6193  1.0208
18889TIP3    H278083   5.639   5.643   1.103  1.4329 -1.1636 -0.3429
18890TIP3   OH278084   5.540   4.276   0.892  0.4042  0.0644 -0.0969
18890TIP3    H178085   5.562   4.335   0.965 -5.4837 -0.2521  2.4755
18890TIP3    H278086   5.569   4.190   0.922  2.7270  0.5473 -0.7178
18891TIP3   OH278087   6.558   1.270  12.589  0.2479  0.3207  0.6495
18891TIP3    H178088   6.486   1.251  12.649 -0.4061 -1.0443 -0.5193
18891TIP3    H278089   6.637   1.259  12.642 -0.3547  0.9200  1.7044
18892TIP3   OH278090   0.050   3.227  12.067 -0.2634  0.2568  0.2958
18892TIP3    H178091   0.093   3.308  12.094 -2.0324  1.8269 -1.2980
18892TIP3    H278092   0.119   3.176  12.023  0.7771  1.0591  0.9581
18893TIP3   OH278093   5.216   1.193  12.162  0.0889  0.1654  0.1904
18893TIP3    H178094   5.200   1.128  12.093 -0.6107 -0.5423  0.9985
18893TIP3    H278095   5.172   1.272  12.131 -0.8470 -0.3604  0.1435
18894TIP3   OH278096   1.313   1.874   0.702 -0.1056  0.0397 -0.4176
18894TIP3    H178097   1.290   1.825   0.624 -1.8369 -0.4871  0.3871
18894TIP3    H278098   1.380   1.821   0.745  0.0172 -0.2356 -0.9364
18895TIP3   OH278099   6.636   5.749  14.135  0.1726  0.4456  0.0091
18895TIP3    H178100   6.607   5.732  14.225  2.0029  0.4924  0.6709
18895TIP3    H278101   6.602   5.675  14.084 -2.5923  1.4315  0.2807
18896TIP3   OH278102   5.849   0.291  12.793  0.3949  0.3291 -0.2300
18896TIP3    H178103   5.809   0.375  12.770 -0.1285  0.3246  0.6237
18896TIP3    H278104   5.826   0.233  12.720  0.9046  0.9558 -0.9087
18897TIP3   OH278105   0.346   1.355  16.758  0.6062 -0.0566 -0.5974
18897TIP3    H178106   0.364   1.300  16.833  0.2116 -0.0857 -0.5229
18897TIP3    H278107   0.330   1.294  16.686  0.1129 -0.0388 -0.5025
18898TIP3   OH278108   5.431   0.653   1.242 -0.8542 -0.3841 -0.0811
18898TIP3    H178109   5.411   0.600   1.165  1.2791 -1.7998  0.2538
18898TIP3    H278110   5.519   0.686   1.227 -1.8258  2.6118  0.0494
18899TIP3   OH278111   5.880   2.748   3.012 -0.3459  0.1140 -0.3301
18899TIP3    H178112   5.896   2.673   3.068 -0.2770  0.0724 -0.4054
18899TIP3    H278113   5.943   2.739   2.940 -0.6167  0.0218 -0.5548
18900TIP3   OH278114   6.239   1.433   0.920  0.6568 -0.1723  0.0651
18900TIP3    H178115   6.277   1.512   0.960  0.5863 -0.1206  0.0314
18900TIP3    H278116   6.253   1.364   0.985  2.3060 -0.5409 -0.6371
18901TIP3   OH278117   6.031   0.907  17.204  0.2436 -0.9044  0.0229
18901TIP3    H178118   6.094   0.913  17.132  1.7299 -0.3580  1.2964
18901TIP3    H278119   6.085   0.881  17.279 -0.9065  0.4645  1.3647
18902TIP3   OH278120   2.809   3.880  11.332  0.2097 -0.8666 -0.1128
18902TIP3    H178121   2.869   3.934  11.282  0.1952  0.3937  1.1643
18902TIP3    H278122   2.850   3.793  11.333  2.4782  0.1013  1.3476
18903TIP3   OH278123   5.972   0.754   1.142 -0.4924 -0.3349 -0.1221
18903TIP3    H178124   6.018   0.825   1.098  1.1541 -0.7195  0.8901
18903TIP3    H278125   6.011   0.674   1.105  0.6959 -0.6675  1.7394
18904TIP3   OH278126   5.073   5.416  15.914 -0.1529  0.8530 -0.3292
18904TIP3    H178127   5.113   5.418  16.001  2.2807  0.8027 -1.3877
18904TIP3    H278128   5.049   5.324  15.901  0.4623  0.6610 -0.1307
18905TIP3   OH278129   4.359   5.749  15.103  0.6874 -1.0455 -0.0674
18905TIP3    H178130   4.328   5.793  15.024  2.1968  1.6173  0.6746
18905TIP3    H278131   4.425   5.809  15.139  0.2565 -2.2602  3.0690
18906TIP3   OH278132   3.079   2.469   0.844  0.0331 -0.2835 -0.5058
18906TIP3    H178133   3.060   2.479   0.750  0.6330 -0.2613 -0.6257
18906TIP3    H278134   3.049   2.380   0.864 -0.9482  0.0361 -0.5037
18907TIP3   OH278135   2.366   2.325   5.766 -0.0200  0.0690  0.3110
18907TIP3    H178136   2.365   2.341   5.672 -0.1201 -1.7719 -0.0302
18907TIP3    H278137   2.274   2.333   5.792  0.1848  2.1644  0.5956
18908TIP3   OH278138   2.179   1.779  12.626 -0.3101 -0.2073 -0.2673
18908TIP3    H178139   2.092   1.818  12.623 -1.4306 -2.4019  1.1888
18908TIP3    H278140   2.169   1.700  12.680  3.2153  1.0050  2.5307
18909TIP3   OH278141   6.020   1.407  13.109 -0.4310  0.1782  0.6649
18909TIP3    H178142   5.957   1.349  13.065 -0.9362  1.0358  0.2302
18909TIP3    H278143   6.010   1.387  13.202  0.0232 -1.0389  0.4626
18910TIP3   OH278144   3.339   3.121  11.684  0.1699  0.2112 -0.2729
18910TIP3    H178145   3.433   3.106  11.694  0.0482 -0.2979  0.1282
18910TIP3    H278146   3.312   3.062  11.615  0.0107 -0.1771  0.1177
18911TIP3   OH278147   5.898   3.551  16.285 -0.0918 -0.0305  0.1359
18911TIP3    H178148   5.990   3.554  16.258  0.1008  1.2390  0.8732
18911TIP3    H278149   5.851   3.597  16.216 -0.2080 -0.8644 -0.3475
18912TIP3   OH278150   5.408   4.117   2.827  0.6058  0.3622  0.2356
18912TIP3    H178151   5.376   4.031   2.798  1.1950  0.1462  0.1977
18912TIP3    H278152   5.489   4.097   2.874  2.3040  1.1116 -2.1989
18913TIP3   OH278153   3.767   6.416  16.512 -0.6652  0.5815 -0.3710
18913TIP3    H178154   3.711   6.415  16.434  0.9952  0.0803 -1.6236
18913TIP3    H278155   3.856   6.430  16.477 -0.1958  3.5391  1.6869
18914TIP3   OH278156   1.098   4.702  12.673  0.6164 -0.7321 -0.1607
18914TIP3    H178157   1.027   4.704  12.609 -0.9421 -1.7616  1.4467
18914TIP3    H278158   1.107   4.794  12.700  2.2638 -0.0191 -2.7466
18915TIP3   OH278159   5.732   5.282   6.118  0.1831 -0.0287 -0.7320
18915TIP3    H178160   5.712   5.189   6.106  0.0592  0.1219 -1.8009
18915TIP3    H278161   5.815   5.283   6.166  0.1497 -0.6917 -0.6543
18916TIP3   OH278162   1.304   2.765   5.676 -0.2387 -0.8421 -0.5177
18916TIP3    H178163   1.325   2.687   5.625  0.3985 -0.9072 -0.1608
18916TIP3    H278164   1.303   2.836   5.612  3.3588 -0.4172 -0.3114
18917TIP3   OH278165   1.542   1.228   1.588 -0.2403  0.7152  0.2594
18917TIP3    H178166   1.567   1.203   1.677  0.7754 -0.4481 -0.3151
18917TIP3    H278167   1.608   1.292   1.562  0.2035  0.1229 -0.0879
18918TIP3   OH278168   4.532   2.969   3.472  0.1878  0.9514 -0.0471
18918TIP3    H178169   4.580   2.972   3.555  1.8833  2.6534 -0.9964
18918TIP3    H278170   4.447   3.008   3.493 -1.2236 -2.6509  1.7993
18919TIP3   OH278171   3.123   4.715  10.439  0.1554  0.5443 -0.2879
18919TIP3    H178172   3.094   4.758  10.519  1.6011 -0.7158  0.9548
18919TIP3    H278173   3.153   4.629  10.466  1.7320  0.4769 -1.9981
18920TIP3   OH278174   5.515   0.816   0.676 -0.3270  0.1576  0.3506
18920TIP3    H178175   5.590   0.826   0.617 -0.3177 -1.1439  0.1176
18920TIP3    H278176   5.553   0.783   0.758 -0.5403  0.3328  0.5206
18921TIP3   OH278177   5.312   3.602  14.198 -0.0848 -0.2636  0.3038
18921TIP3    H178178   5.316   3.576  14.105 -2.1365  1.7318 -0.4313
18921TIP3    H278179   5.348   3.527  14.245  0.4066 -1.6192 -2.0594
18922TIP3   OH278180   2.570   0.043  16.245 -0.2027 -0.0656  0.2219
18922TIP3    H178181   2.494   0.098  16.259  0.8072  1.8620 -1.2940
18922TIP3    H278182   2.545  -0.016  16.174 -1.0577 -1.1594  1.3900
18923TIP3   OH278183   2.355   6.423   6.182  0.3417  0.3769 -0.0604
18923TIP3    H178184   2.339   6.338   6.223  0.7967  1.1375  1.8079
18923TIP3    H278185   2.313   6.416   6.096 -3.1645 -0.3958  1.5269
18924TIP3   OH278186   4.702   4.929   5.749  0.4811 -0.0444  0.4040
18924TIP3    H178187   4.610   4.953   5.765  0.3945  1.1767 -1.5926
18924TIP3    H278188   4.702   4.833   5.748 -0.6012 -0.0743  1.1989
18925TIP3   OH278189   5.724   1.810   5.276  0.7245  0.0158  0.0246
18925TIP3    H178190   5.718   1.796   5.370 -0.1907 -2.7278 -0.3544
18925TIP3    H278191   5.790   1.879   5.266  2.1920 -0.8897  2.5982
18926TIP3   OH278192   6.125   5.679  12.009 -0.6525  0.3464 -0.5436
18926TIP3    H178193   6.181   5.603  11.994 -0.2823  0.1780  1.4624
18926TIP3    H278194   6.048   5.663  11.955  1.1193  0.5644 -3.3681
18927TIP3   OH278195   5.278   6.115   0.973  0.0686  0.9776  0.2201
18927TIP3    H178196   5.366   6.101   1.007  0.0015  1.3496  0.5486
18927TIP3    H278197   5.292   6.163   0.891  0.3779 -1.8607 -1.5185
18928TIP3   OH278198   3.839   3.893  11.140 -0.1869 -0.1210  0.4432
18928TIP3    H178199   3.889   3.940  11.207 -0.6245 -0.1359  0.7854
18928TIP3    H278200   3.885   3.810  11.130 -0.7351 -0.5854  1.5344
18929TIP3   OH278201   6.122   6.381  11.730 -0.0554 -0.2412 -0.0604
18929TIP3    H178202   6.196   6.435  11.701 -0.2423  0.0180 -0.0533
18929TIP3    H278203   6.163   6.311  11.781  0.0511  1.1673  1.8857
18930TIP3   OH278204   3.604   6.649   4.146 -0.1792 -0.3415  0.0308
18930TIP3    H178205   3.648   6.595   4.211  2.5438  0.3287 -1.1425
18930TIP3    H278206   3.586   6.590   4.073  0.6059 -0.2103 -0.2779
18931TIP3   OH278207   3.161   6.026   1.187 -0.6321 -0.3884 -0.3656
18931TIP3    H178208   3.105   6.102   1.198  1.5220  1.3246 -0.5709
18931TIP3    H278209   3.101   5.951   1.187 -2.7963  1.2654  0.0712
18932TIP3   OH278210   4.339   4.120  17.202  0.3940  0.5296  0.4253
18932TIP3    H178211   4.351   4.080  17.116  1.7595 -0.0510  0.8586
18932TIP3    H278212   4.356   4.213  17.188  0.2202  0.4993 -0.0073
18933TIP3   OH278213   0.210   5.275  14.784 -0.3053 -0.5090 -0.1697
18933TIP3    H178214   0.254   5.352  14.821  0.2011 -0.1199 -1.5102
18933TIP3    H278215   0.192   5.219  14.859  1.8718 -0.3703  0.5129
18934TIP3   OH278216   0.604   4.894   4.459 -0.9723  0.5498 -0.3421
18934TIP3    H178217   0.658   4.934   4.392  3.1690 -1.4740  1.3981
18934TIP3    H278218   0.618   4.948   4.537  0.7667 -1.3486  0.7670
18935TIP3   OH278219   3.285   1.905   1.241  0.3291  0.1918 -0.1657
18935TIP3    H178220   3.198   1.864   1.241  0.0388  0.7921 -0.5601
18935TIP3    H278221   3.333   1.858   1.309  0.5686 -1.9771 -1.7241
18936TIP3   OH278222   4.825   3.861  11.193 -0.0760  0.1178 -0.1960
18936TIP3    H178223   4.788   3.779  11.225 -1.0719  0.4670 -0.4112
18936TIP3    H278224   4.854   3.842  11.103 -0.8435  0.1444 -0.4556
18937TIP3   OH278225   3.336   3.313   5.027 -0.0417  0.1081 -0.2401
18937TIP3    H178226   3.400   3.281   5.090 -0.4412 -3.7908 -1.5520
18937TIP3    H278227   3.261   3.254   5.035 -0.9244  0.6946 -2.9234
18938TIP3   OH278228   5.240   3.651  15.507  0.2427  0.2645  0.4585
18938TIP3    H178229   5.327   3.649  15.548  0.6970  0.1990 -0.4839
18938TIP3    H278230   5.251   3.709  15.432 -0.0009 -1.2920 -0.8205
18939TIP3   OH278231   4.216   3.046  16.764  0.5112  0.3034  0.5665
18939TIP3    H178232   4.227   3.058  16.670 -0.9492 -2.0226  0.0229
18939TIP3    H278233   4.293   3.087  16.803 -1.0629  5.7221 -1.1840
18940TIP3   OH278234   4.118   1.074   1.287 -0.0167  0.0928 -0.5394
18940TIP3    H178235   4.141   0.990   1.326 -1.8925  0.0180  0.5186
18940TIP3    H278236   4.065   1.052   1.210 -1.6733  0.2632  0.5050
18941TIP3   OH278237   4.218   2.817  15.283  0.5601 -0.2344  0.0430
18941TIP3    H178238   4.175   2.901  15.297  1.0590 -0.1957  1.4829
18941TIP3    H278239   4.149   2.752  15.296  0.7970 -0.1547  1.9882
18942TIP3   OH278240   2.800   5.728   0.649  0.6502  0.4714  0.7238
18942TIP3    H178241   2.888   5.708   0.678  0.7585 -2.0166 -0.9399
18942TIP3    H278242   2.799   5.704   0.556 -1.2501  2.3228  0.1669
18943TIP3   OH278243   0.282   3.190  12.967 -0.0051  0.5683  0.0211
18943TIP3    H178244   0.353   3.125  12.974 -0.9497 -0.6283 -0.9172
18943TIP3    H278245   0.296   3.230  12.881  0.0047  0.9201  0.1855
18944TIP3   OH278246   2.230   0.934  15.756  0.1628 -0.1449  0.6892
18944TIP3    H178247   2.155   0.905  15.705  0.1496 -0.0786  0.6703
18944TIP3    H278248   2.193   0.960  15.840  0.0877  0.3956  0.4974
18945TIP3   OH278249   2.737   3.652   5.730  0.9488 -0.2413 -0.4447
18945TIP3    H178250   2.646   3.623   5.725  1.4423 -2.0902  0.2055
18945TIP3    H278251   2.751   3.704   5.651 -1.1765  1.7767  0.3989
18946TIP3   OH278252   5.333   3.419   6.209 -0.3588 -0.2953  0.2963
18946TIP3    H178253   5.323   3.513   6.222  0.5589 -0.1085 -0.2750
18946TIP3    H278254   5.295   3.402   6.123 -1.0000 -0.5419  0.6218
18947TIP3   OH278255   3.491   0.576  11.165 -0.3155  0.1239 -0.5592
18947TIP3    H178256   3.481   0.582  11.070 -0.3840  0.7539 -0.5180
18947TIP3    H278257   3.403   0.560  11.198 -0.4938  1.0758 -0.5286
18948TIP3   OH278258   5.968   3.147  16.501  0.0660  0.0739 -0.3823
18948TIP3    H178259   6.015   3.101  16.570  0.7393 -0.1828 -1.0096
18948TIP3    H278260   5.908   3.081  16.464 -0.4636  0.2746  0.1037
18949TIP3   OH278261   2.025   5.087   1.957 -0.2561 -0.8405  0.4929
18949TIP3    H178262   1.947   5.054   1.914 -0.0422 -0.5763 -0.1171
18949TIP3    H278263   2.043   5.025   2.027 -0.2129 -1.6767 -0.2413
18950TIP3   OH278264   2.965   2.717   1.808  0.3162 -0.1671  0.6558
18950TIP3    H178265   2.875   2.709   1.838  0.0173  0.6497  0.0099
18950TIP3    H278266   3.018   2.682   1.879 -0.4248  0.7150  1.6611
18951TIP3   OH278267   1.587   6.127  12.672 -0.3219 -0.9298 -0.5402
18951TIP3    H178268   1.671   6.169  12.692 -0.6180 -0.3914 -0.3993
18951TIP3    H278269   1.549   6.180  12.602 -0.8012 -0.8232 -0.2062
18952TIP3   OH278270   5.030   3.203   4.015 -0.6098 -0.7732 -0.4611
18952TIP3    H178271   5.124   3.213   4.030 -0.9274  1.1419  0.7002
18952TIP3    H278272   5.003   3.136   4.079 -0.3120  0.0842  0.6048
18953TIP3   OH278273   4.413   1.091   3.006  0.2039 -0.2660 -0.1199
18953TIP3    H178274   4.491   1.087   2.951 -0.9841  1.8116 -2.1073
18953TIP3    H278275   4.435   1.153   3.075  1.1138 -1.5938  0.8328
18954TIP3   OH278276   6.650   5.540  16.120  0.1484 -0.5347  0.9467
18954TIP3    H178277   6.700   5.621  16.114  1.2209 -1.1662  0.9564
18954TIP3    H278278   6.569   5.558  16.073  0.9247  0.1315 -0.2069
18955TIP3   OH278279   0.029   0.920   5.455 -0.2853  0.3169  0.0827
18955TIP3    H178280   0.014   0.828   5.434 -1.5907  0.3296  0.8572
18955TIP3    H278281  -0.015   0.933   5.539 -0.4858  1.7495 -0.2119
18956TIP3   OH278282   1.255   0.183  16.954 -0.0333  0.1114 -0.2087
18956TIP3    H178283   1.306   0.158  17.031  0.4257 -0.8934 -0.8247
18956TIP3    H278284   1.299   0.141  16.881 -2.2155 -1.5358 -0.6688
18957TIP3   OH278285   3.319   4.603  14.510 -0.0378  0.4293 -0.1270
18957TIP3    H178286   3.410   4.574  14.501  0.2367  1.2341  0.0434
18957TIP3    H278287   3.295   4.578  14.599  0.1361  0.5503 -0.0457
18958TIP3   OH278288   4.338   5.461   5.490  0.0309 -0.5257 -0.1569
18958TIP3    H178289   4.288   5.493   5.415  1.2753  2.0084 -0.0209
18958TIP3    H278290   4.331   5.531   5.555  0.9969 -1.5802  1.1276
18959TIP3   OH278291   0.806   0.910   0.588 -0.9199 -0.0116 -0.0321
18959TIP3    H178292   0.821   0.855   0.511 -1.6395 -1.5295  0.8638
18959TIP3    H278293   0.877   0.975   0.586  0.4202 -1.4461 -0.7308
18960TIP3   OH278294   1.138   6.768  13.466 -0.2693  0.1038  0.2617
18960TIP3    H178295   1.158   6.748  13.375  1.9195 -0.1911  0.7365
18960TIP3    H278296   1.202   6.835  13.490  1.8682 -2.4815  2.5590
18961TIP3   OH278297   0.787   0.113   4.260  0.0442 -0.2542 -0.1226
18961TIP3    H178298   0.873   0.132   4.297  0.1181  0.4126 -0.6262
18961TIP3    H278299   0.746   0.056   4.325 -0.3390  1.9640  1.7193
18962TIP3   OH278300   5.223   4.480  15.319  0.0620 -0.0807 -0.1700
18962TIP3    H178301   5.154   4.515  15.263 -0.7485  0.2383  0.9851
18962TIP3    H278302   5.295   4.462  15.259 -0.3832  1.2387 -1.1588
18963TIP3   OH278303   1.267   6.006   4.852  0.9301  0.1297 -0.3312
18963TIP3    H178304   1.205   6.070   4.887  1.0171  1.0730 -1.8455
18963TIP3    H278305   1.215   5.926   4.841  0.1795  0.6739 -0.8075
18964TIP3   OH278306   1.736   4.474   1.487  0.5242 -0.2800 -0.1596
18964TIP3    H178307   1.786   4.399   1.455  0.7539 -0.3869  0.4368
18964TIP3    H278308   1.712   4.450   1.576  1.2195  0.6493  0.2942
18965TIP3   OH278309   6.282   5.612   1.731  0.0611  0.2187 -0.5133
18965TIP3    H178310   6.337   5.674   1.682  0.8017  0.0277  0.0606
18965TIP3    H278311   6.329   5.529   1.727  0.7985  0.4709  1.5507
18966TIP3   OH278312   3.068   4.084   1.236  0.2607  0.1974 -0.0775
18966TIP3    H178313   2.975   4.073   1.217 -0.2405  0.4894  2.0008
18966TIP3    H278314   3.099   3.996   1.257  0.0367  0.3327  0.8649
18967TIP3   OH278315   4.643   4.122   3.138  0.3979  0.1777 -0.4340
18967TIP3    H178316   4.688   4.166   3.066  0.4906 -0.7099 -0.9304
18967TIP3    H278317   4.683   4.035   3.142 -0.0272  0.0083  0.2972
18968TIP3   OH278318   5.155   1.954   2.984 -0.5525  0.3131 -0.3606
18968TIP3    H178319   5.165   1.859   2.995  1.6387  0.4818 -0.4097
18968TIP3    H278320   5.155   1.967   2.889  0.0609  0.4097 -0.3547
18969TIP3   OH278321   6.462   2.725  10.520 -0.0865 -0.0529 -0.1062
18969TIP3    H178322   6.438   2.786  10.450  0.1672  1.4347  1.0522
18969TIP3    H278323   6.541   2.763  10.558 -0.8974 -0.1585  1.7613
18970TIP3   OH278324   1.976   0.892  14.310  0.0264 -0.4273  0.4189
18970TIP3    H178325   1.945   0.845  14.232 -1.6707  1.8474 -0.4036
18970TIP3    H278326   1.934   0.848  14.383  0.1289 -1.4596 -0.1334
18971TIP3   OH278327   6.720   1.669   5.567  0.4915  0.0638  0.0505
18971TIP3    H178328   6.681   1.708   5.489  1.8772  0.0907 -0.6582
18971TIP3    H278329   6.805   1.711   5.576 -0.1738  1.0955  2.4222
18972TIP3   OH278330   2.333   1.602  14.689  0.4008 -0.3545 -0.1771
18972TIP3    H178331   2.239   1.586  14.684  0.1445  0.4649  1.2724
18972TIP3    H278332   2.342   1.697  14.676  0.8765 -0.2240  0.9723
18973TIP3   OH278333   6.102   3.252   4.424 -0.4843  0.1289  0.0212
18973TIP3    H178334   6.087   3.287   4.512 -0.4721 -1.0152  0.4938
18973TIP3    H278335   6.016   3.221   4.396 -0.4031  0.1050 -0.1991
18974TIP3   OH278336   0.937   4.160  13.422 -0.0704  0.1956  0.0422
18974TIP3    H178337   0.903   4.234  13.472 -0.3868  0.8206 -1.0628
18974TIP3    H278338   1.030   4.157  13.444 -0.2516  0.2781  0.8686
18975TIP3   OH278339   2.330   3.762  16.532  0.4959 -0.1006 -0.2876
18975TIP3    H178340   2.283   3.681  16.515  1.2525 -0.8932  1.1828
18975TIP3    H278341   2.402   3.737  16.590  1.4308  1.4377 -0.7145
18976TIP3   OH278342   0.277   2.130  15.759 -0.1248 -0.2685 -0.3786
18976TIP3    H178343   0.304   2.045  15.792  0.9369  0.0128 -0.4896
18976TIP3    H278344   0.257   2.181  15.838 -2.0971 -1.0076 -0.3393
18977TIP3   OH278345   0.764   3.013   4.992  0.3734 -0.0735  0.1352
18977TIP3    H178346   0.850   3.039   4.959  0.2364  0.7487  0.3938
18977TIP3    H278347   0.755   2.921   4.967  1.6534 -0.3987  0.7853
18978TIP3   OH278348   0.993   2.425   1.376  0.5004 -0.0910  0.0949
18978TIP3    H178349   1.019   2.461   1.291 -0.4282  0.1364 -0.1012
18978TIP3    H278350   0.897   2.419   1.371  0.1838  2.1157  1.9501
18979TIP3   OH278351   2.115   3.441   1.620 -0.3973  0.6127  0.0155
18979TIP3    H178352   2.135   3.519   1.568 -0.3255  0.8178  0.3467
18979TIP3    H278353   2.042   3.400   1.574 -0.0402  0.5457 -0.4981
18980TIP3   OH278354   6.401   6.792   2.553  0.1568  1.0209  0.5799
18980TIP3    H178355   6.433   6.767   2.466  0.1897  3.5343 -0.2339
18980TIP3    H278356   6.480   6.807   2.604  0.1464  0.0480  0.8827
18981TIP3   OH278357   4.107   5.869   0.214 -0.0568  0.0436 -0.3819
18981TIP3    H178358   4.064   5.904   0.292  1.1153 -0.7072  0.6382
18981TIP3    H278359   4.195   5.847   0.243  0.3020 -0.5810 -1.8472
18982TIP3   OH278360   6.352   0.679   2.570 -0.1818 -0.0431  0.5435
18982TIP3    H178361   6.344   0.640   2.657  0.0030 -0.8525  0.2118
18982TIP3    H278362   6.279   0.640   2.520 -1.0965  1.4201  0.6820
18983TIP3   OH278363   1.673   4.875   4.235 -0.0731  0.0167  0.0976
18983TIP3    H178364   1.589   4.905   4.201  0.1517  2.1028  1.2198
18983TIP3    H278365   1.667   4.891   4.329  0.8772 -1.6438  0.4740
18984TIP3   OH278366   1.450   2.312  15.598  0.2212 -0.0002 -0.3129
18984TIP3    H178367   1.529   2.357  15.626  0.6341 -0.1870 -1.1319
18984TIP3    H278368   1.413   2.275  15.678  0.2481  1.1965  0.2600
18985TIP3   OH278369   5.894   1.389   5.853 -0.1185 -0.2262  0.4524
18985TIP3    H178370   5.978   1.430   5.872 -0.3028  0.0080  0.7751
18985TIP3    H278371   5.883   1.324   5.924 -0.5312  0.2306  0.8132
18986TIP3   OH278372   6.753   4.615  12.243  0.5387 -0.3421  0.2432
18986TIP3    H178373   6.797   4.684  12.194 -0.2312  0.1272  0.1927
18986TIP3    H278374   6.809   4.599  12.319  0.7011  0.3666  0.2781
18987TIP3   OH278375   3.076   1.171   2.631  0.0750 -0.0920 -0.2169
18987TIP3    H178376   2.981   1.172   2.646 -0.1120 -0.6542 -1.2708
18987TIP3    H278377   3.088   1.217   2.548  0.6774 -0.3901 -0.3034
18988TIP3   OH278378   4.494   2.249  13.846 -0.3389 -0.0931 -0.1273
18988TIP3    H178379   4.565   2.280  13.788 -0.8556  0.5211 -0.4503
18988TIP3    H278380   4.535   2.183  13.901  0.2855 -0.3657 -0.8915
18989TIP3   OH278381   5.334   3.913  13.273  0.2981 -0.3587  0.2821
18989TIP3    H178382   5.363   3.910  13.182  0.8390 -2.7522  0.4644
18989TIP3    H278383   5.387   3.982  13.312  1.5187 -0.6458 -0.7847
18990TIP3   OH278384   0.838   2.659   6.716  0.4420 -0.0576 -0.1193
18990TIP3    H178385   0.865   2.684   6.804  2.0951 -0.7876 -0.3851
18990TIP3    H278386   0.843   2.564   6.715 -2.7781 -0.3394 -0.0542
18991TIP3   OH278387   0.426   4.874  11.960  0.1161  0.1538  0.3746
18991TIP3    H178388   0.433   4.810  12.031 -0.2975 -0.8296 -0.4672
18991TIP3    H278389   0.508   4.924  11.966  1.4240 -1.8086 -0.2632
18992TIP3   OH278390   3.747   4.597   3.194 -0.5446 -0.4415  0.3895
18992TIP3    H178391   3.821   4.545   3.163  0.1044 -0.2092  1.5126
18992TIP3    H278392   3.724   4.558   3.278 -1.5510 -0.3596  0.1652
18993TIP3   OH278393   0.603   3.601   0.757  0.2651  0.2062 -0.3949
18993TIP3    H178394   0.571   3.672   0.813  0.3677  0.3420 -0.5106
18993TIP3    H278395   0.587   3.631   0.668  2.1399  0.9808 -0.5317
18994TIP3   OH278396   4.663   1.066   2.538  0.3442 -0.4891  0.4571
18994TIP3    H178397   4.620   1.072   2.624 -1.1532  1.5964 -0.3601
18994TIP3    H278398   4.750   1.103   2.552  0.2968 -0.6441  1.1967
18995TIP3   OH278399   0.908   2.281   0.735 -0.6348 -0.0795 -0.0105
18995TIP3    H178400   0.874   2.240   0.815  0.7941 -0.9939  0.1636
18995TIP3    H278401   0.911   2.209   0.671  0.8235 -0.0117 -0.0481
18996TIP3   OH278402   0.646   4.420   0.387  0.0616  0.2486 -0.1447
18996TIP3    H178403   0.639   4.370   0.469 -1.6722 -0.4005 -0.6446
18996TIP3    H278404   0.556   4.448   0.369  0.7026  1.9695 -0.8833
18997TIP3   OH278405   4.543   0.750  15.549 -0.3345  0.8419 -0.5471
18997TIP3    H178406   4.582   0.685  15.490  1.4025  0.6221  0.7634
18997TIP3    H278407   4.513   0.820  15.491  1.1026  0.5360 -1.7242
18998TIP3   OH278408   5.803   5.187  11.503 -0.1688  0.2031  0.4551
18998TIP3    H178409   5.861   5.112  11.518 -0.7432 -0.6334 -1.2222
18998TIP3    H278410   5.724   5.149  11.466 -0.4309  1.6383 -0.5609
18999TIP3   OH278411   2.453   2.461  16.690 -0.0560 -0.1063 -0.0687
18999TIP3    H178412   2.437   2.380  16.641  1.1931 -0.0782 -0.5438
18999TIP3    H278413   2.543   2.454  16.720  0.0148  1.0369  0.0292
19000TIP3   OH278414   1.435   4.148  16.309 -0.1655 -0.1588  0.1055
19000TIP3    H178415   1.506   4.086  16.298 -0.9392 -0.6117 -3.6498
19000TIP3    H278416   1.474   4.221  16.357  2.2742 -1.2067 -0.1639
19001TIP3   OH278417   3.340   4.448  11.773  0.1172 -0.1017 -0.4266
19001TIP3    H178418   3.419   4.418  11.730  1.0164 -0.7102  1.5532
19001TIP3    H278419   3.283   4.478  11.702  2.5549  1.4529 -1.8342
19002TIP3   OH278420   6.185   1.211   0.406 -0.0568 -0.4835  0.0960
19002TIP3    H178421   6.105   1.174   0.369 -0.2194 -0.5261  0.4854
19002TIP3    H278422   6.165   1.224   0.499  0.6056 -1.1041  0.3384
19003TIP3   OH278423   2.899   5.334   4.199  0.1466 -0.1415 -0.0124
19003TIP3    H178424   2.826   5.292   4.154 -0.0337  2.0520 -1.9936
19003TIP3    H278425   2.875   5.427   4.202  1.5031  0.2022  2.0896
19004TIP3   OH278426   3.291   6.517   3.113  0.0123 -0.3779 -0.0840
19004TIP3    H178427   3.308   6.610   3.127  1.8280 -0.4441 -1.4326
19004TIP3    H278428   3.378   6.479   3.098 -0.7639 -2.1637 -0.2928
19005TIP3   OH278429   0.614   6.547  11.369  0.2508 -0.3715  0.1970
19005TIP3    H178430   0.532   6.520  11.328  0.1212  0.6924 -0.2785
19005TIP3    H278431   0.608   6.513  11.458 -1.8466  1.7224  0.9802
19006TIP3   OH278432   6.527   4.295  16.060 -0.1009 -0.9199 -0.0102
19006TIP3    H178433   6.540   4.372  16.116 -1.6127  1.2108 -2.4147
19006TIP3    H278434   6.596   4.301  15.994 -1.7997 -0.0683 -1.7731
19007TIP3   OH278435   1.723   5.347  15.509 -0.6765 -0.1905  0.1607
19007TIP3    H178436   1.687   5.266  15.473  0.8202 -0.7420 -0.1979
19007TIP3    H278437   1.691   5.416  15.452 -1.2278 -0.6446 -0.0867
19008TIP3   OH278438   5.846   2.156  16.221 -0.1440  0.0115 -0.1553
19008TIP3    H178439   5.930   2.124  16.189 -0.0439 -1.9583  1.8179
19008TIP3    H278440   5.857   2.159  16.317 -2.0540  0.4994  0.0856
19009TIP3   OH278441   0.585   2.727   3.134 -0.0889  0.1668 -0.7572
19009TIP3    H178442   0.528   2.761   3.065 -0.6734  0.5579 -0.0963
19009TIP3    H278443   0.587   2.632   3.120 -1.8198 -0.0005 -0.1339
19010TIP3   OH278444   4.578   3.441  16.263  0.0476 -0.3339  0.5819
19010TIP3    H178445   4.538   3.441  16.350 -2.5290 -0.7429 -0.5097
19010TIP3    H278446   4.564   3.353  16.229 -0.6360  0.3191 -0.9257
19011TIP3   OH278447   4.458   3.917   2.084 -0.2524  0.3082  0.8373
19011TIP3    H178448   4.488   4.002   2.054 -1.0710  0.0014 -0.9618
19011TIP3    H278449   4.531   3.858   2.067 -0.5923  0.1989 -0.3333
19012TIP3   OH278450   1.703   3.790   2.509 -0.0834 -0.0780 -0.2410
19012TIP3    H178451   1.764   3.783   2.436 -0.4063  0.6271 -0.5893
19012TIP3    H278452   1.684   3.700   2.534 -2.4507 -0.4936 -3.0962
19013TIP3   OH278453   3.922   6.113  13.300 -0.2795 -0.0810  0.4398
19013TIP3    H178454   3.865   6.185  13.325 -0.9602 -0.2010 -0.6729
19013TIP3    H278455   3.869   6.034  13.311  0.3864 -0.4061  1.4390
19014TIP3   OH278456   4.231   4.547  17.161 -0.5270  0.2893  0.0483
19014TIP3    H178457   4.229   4.637  17.195 -0.4498  0.1967  0.2988
19014TIP3    H278458   4.166   4.501  17.214 -0.8495  0.2874 -0.3430
19015TIP3   OH278459   0.856   0.954  12.596  0.1470 -0.7198 -0.2949
19015TIP3    H178460   0.880   1.001  12.516 -1.3300 -2.3745 -1.8058
19015TIP3    H278461   0.906   0.998  12.665  1.5884  0.7005 -2.1128
19016TIP3   OH278462   4.090   1.573  15.299 -0.0241 -0.5625  0.1145
19016TIP3    H178463   4.066   1.516  15.227  1.9946  0.4150 -1.4295
19016TIP3    H278464   4.008   1.589  15.346 -1.2305 -1.9137 -1.4405
19017TIP3   OH278465   5.332   1.657   4.667 -0.0223 -0.2257  0.4757
19017TIP3    H178466   5.404   1.612   4.624 -0.8249 -1.6188  0.5498
19017TIP3    H278467   5.306   1.726   4.606  1.3328  0.2791  0.4382
19018TIP3   OH278468   3.911   3.171   3.266 -0.2860  0.1358 -0.0060
19018TIP3    H178469   3.942   3.251   3.309 -1.0291  0.8896 -0.8275
19018TIP3    H278470   3.966   3.163   3.188  0.7116 -0.9423  0.7678
19019TIP3   OH278471   4.853   0.954  15.491  0.2598 -0.1557  0.0784
19019TIP3    H178472   4.871   0.872  15.537  0.4973 -0.2145 -0.1183
19019TIP3    H278473   4.914   1.017  15.530 -0.1876  0.0281  0.5043
19020TIP3   OH278474   4.046   4.313   5.189 -0.4221  0.0771 -0.2554
19020TIP3    H178475   4.015   4.375   5.255  1.0408 -0.1612  0.7015
19020TIP3    H278476   4.067   4.234   5.239  1.0041 -0.0104 -0.9591
19021TIP3   OH278477   4.877   0.504   3.527 -0.4089 -0.2948  0.5529
19021TIP3    H178478   4.844   0.579   3.477 -0.3893 -1.6013 -1.5238
19021TIP3    H278479   4.939   0.543   3.589 -0.7686  1.4531 -0.1170
19022TIP3   OH278480   0.324   5.649  11.765 -0.6122  0.1860  0.1512
19022TIP3    H178481   0.231   5.625  11.759 -0.4407 -0.5361  0.3196
19022TIP3    H278482   0.338   5.666  11.858 -0.3108 -0.8263  0.3015
19023TIP3   OH278483   6.100   1.578   1.857 -0.3219 -0.1926 -0.5915
19023TIP3    H178484   6.014   1.556   1.893  0.2779 -0.8622  0.4633
19023TIP3    H278485   6.135   1.496   1.824 -0.2457  0.1577 -1.4339
19024TIP3   OH278486   6.470   2.597   3.681 -0.2054 -0.1428  0.3957
19024TIP3    H178487   6.497   2.506   3.693  0.3662 -0.2105 -1.2804
19024TIP3    H278488   6.382   2.591   3.644 -0.2137  0.0045  0.3921
19025TIP3   OH278489   6.305   5.009   4.334 -0.2825 -1.0257 -0.1814
19025TIP3    H178490   6.240   5.024   4.402  0.6646 -0.9505  0.7362
19025TIP3    H278491   6.292   4.919   4.307  0.8277 -1.8250  1.7688
19026TIP3   OH278492   1.304   1.245  16.631 -0.8578 -0.3327 -0.0931
19026TIP3    H178493   1.269   1.172  16.683 -1.2540  0.8813  1.4214
19026TIP3    H278494   1.230   1.306  16.623  0.5141  1.7812  2.2394
19027TIP3   OH278495   2.348   3.783   1.291  0.6158  0.0037  0.1533
19027TIP3    H178496   2.442   3.779   1.310  1.0747  0.7632 -1.7045
19027TIP3    H278497   2.335   3.719   1.221 -0.2526 -0.0612  0.3662
19028TIP3   OH278498   3.675   4.152   3.289  0.1955  0.2703 -0.2819
19028TIP3    H178499   3.679   4.238   3.332 -1.5207 -0.3835  1.2980
19028TIP3    H278500   3.758   4.145   3.242  0.2771  2.9058 -0.6800
19029TIP3   OH278501   3.263   4.715  11.539 -0.1479 -0.3316 -0.0319
19029TIP3    H178502   3.342   4.769  11.536 -0.2659 -0.1448  0.2528
19029TIP3    H278503   3.273   4.654  11.465  1.0511 -1.4245  0.9831
19030TIP3   OH278504   6.675   0.998   4.515 -0.0742 -0.2232 -0.1307
19030TIP3    H178505   6.593   0.956   4.490  0.0557  0.1566 -1.2834
19030TIP3    H278506   6.706   0.948   4.590 -1.5328 -0.1453  0.5668
19031TIP3   OH278507   1.090   1.244   5.880  0.3311  0.0556  0.3636
19031TIP3    H178508   1.085   1.329   5.838 -2.7209 -1.2256 -2.2697
19031TIP3    H278509   1.098   1.181   5.808  0.7579 -2.0038  2.0780
19032TIP3   OH278510   3.523   0.012   2.654  0.1032 -0.1296 -0.2632
19032TIP3    H178511   3.525   0.041   2.745  2.2974  1.7199 -0.8287
19032TIP3    H278512   3.434   0.033   2.624 -0.5244 -0.3956  1.2881
19033TIP3   OH278513   0.942   5.918  13.193 -0.0109  0.3686  0.7855
19033TIP3    H178514   0.904   5.935  13.279 -0.1165 -0.4100  0.8999
19033TIP3    H278515   0.954   5.823  13.190 -2.7067 -0.0425 -1.1647
19034TIP3   OH278516   1.331   5.795  13.123  0.3342  0.4131  0.0168
19034TIP3    H178517   1.398   5.777  13.189 -0.3182  0.6674  0.7524
19034TIP3    H278518   1.251   5.755  13.158  0.5578 -1.9469 -1.9045
19035TIP3   OH278519   1.879   1.065   3.314 -0.0106  0.2548  0.4944
19035TIP3    H178520   1.848   1.004   3.247  1.6610 -1.2518  1.0183
19035TIP3    H278521   1.955   1.022   3.353 -0.8328  1.1356  3.2862
19036TIP3   OH278522   5.888   3.951   4.840 -0.7105  0.2271 -0.1206
19036TIP3    H178523   5.876   3.977   4.932 -0.4409 -0.4335  0.1086
19036TIP3    H278524   5.900   4.034   4.794 -1.3530  0.5996  0.3625
19037TIP3   OH278525   5.855   2.764   1.371  0.0972  0.8715 -0.2412
19037TIP3    H178526   5.788   2.808   1.319  0.8155  2.6641  0.2660
19037TIP3    H278527   5.836   2.789   1.462 -0.5565 -1.4087  0.3264
19038TIP3   OH278528   0.641   4.782   1.695  0.2353  0.5041 -0.0349
19038TIP3    H178529   0.701   4.708   1.705 -0.9131 -0.3306  0.9158
19038TIP3    H278530   0.683   4.853   1.745  0.0746 -0.3071  1.3032
19039TIP3   OH278531   0.095   4.110  11.604  0.8948 -0.2923 -0.2845
19039TIP3    H178532   0.077   4.037  11.545  0.5446 -0.1060 -0.4076
19039TIP3    H278533   0.112   4.068  11.688  0.8939 -0.5293 -0.3994
19040TIP3   OH278534   5.154   2.155  15.585  0.0912 -0.5848 -0.0609
19040TIP3    H178535   5.179   2.246  15.572 -0.1658 -0.2732  1.4469
19040TIP3    H278536   5.109   2.130  15.504 -1.3514  1.1463  0.1731
19041TIP3   OH278537   1.227   5.114  17.114 -0.5217 -0.1532  0.1447
19041TIP3    H178538   1.211   5.138  17.206 -0.6754  0.7553 -0.1055
19041TIP3    H278539   1.290   5.180  17.084  0.2208 -0.9791 -0.1581
19042TIP3   OH278540   0.257   0.227   4.329  0.1229  0.1569  0.3242
19042TIP3    H178541   0.280   0.136   4.310  2.0884  0.6027  0.3724
19042TIP3    H278542   0.288   0.276   4.253 -2.5364  0.6391 -0.5372
19043TIP3   OH278543   6.156   3.557   1.471 -0.0339  0.4128 -0.2146
19043TIP3    H178544   6.146   3.510   1.554 -0.7039 -1.2914 -1.1995
19043TIP3    H278545   6.107   3.504   1.408  1.1078  1.2467 -1.8659
19044TIP3   OH278546   1.934   0.842   0.891  0.5134 -0.6311  0.7257
19044TIP3    H178547   1.847   0.834   0.852  1.1402  1.9685 -1.4982
19044TIP3    H278548   1.995   0.830   0.818  1.8789  0.8819  1.5270
19045TIP3   OH278549   0.719   2.229   5.207 -0.0691  0.1971  0.5153
19045TIP3    H178550   0.794   2.249   5.263  0.0946  1.0807 -0.0009
19045TIP3    H278551   0.758   2.200   5.125 -0.2298  1.8924 -0.2116
19046TIP3   OH278552   6.244   3.813  16.993  0.1483 -0.3868  0.0614
19046TIP3    H178553   6.312   3.748  16.978  1.4217  1.3628 -2.5654
19046TIP3    H278554   6.280   3.869  17.063 -0.6012 -1.9065  1.7491
19047TIP3   OH278555   6.404   6.451  10.956  0.5103  0.3860 -0.4814
19047TIP3    H178556   6.313   6.422  10.965  1.0583 -1.4369 -0.4378
19047TIP3    H278557   6.409   6.485  10.866  0.0452 -0.5383 -0.8714
19048TIP3   OH278558   6.564   5.284   1.815  0.1627 -0.4005 -0.7595
19048TIP3    H178559   6.642   5.229   1.826  0.5918  0.3570  0.1216
19048TIP3    H278560   6.491   5.222   1.810  0.6676 -1.0578 -0.1185
19049TIP3   OH278561   1.743   2.239   1.826 -0.1220 -0.2901 -0.2955
19049TIP3    H178562   1.824   2.201   1.861  0.0253  2.1433  2.4142
19049TIP3    H278563   1.677   2.221   1.893 -0.7447  1.4475 -0.3974
19050TIP3   OH278564   5.110   2.543   5.812  0.0375  0.3331 -0.2674
19050TIP3    H178565   5.073   2.480   5.750  1.2899  0.5829 -1.3331
19050TIP3    H278566   5.150   2.489   5.880  2.7001 -0.2153 -2.0946
19051TIP3   OH278567   5.472   3.666  14.995 -0.0641 -0.4310 -0.2276
19051TIP3    H178568   5.526   3.726  15.046  0.2804 -0.1530 -0.9097
19051TIP3    H278569   5.411   3.723  14.948  0.5833 -0.5613 -1.2619
19052TIP3   OH278570   4.966   6.496  16.506  0.1840 -0.1605 -0.1571
19052TIP3    H178571   5.024   6.457  16.571 -0.6867 -1.2340  0.0159
19052TIP3    H278572   4.961   6.588  16.531  0.2048 -0.4672  1.0542
19053TIP3   OH278573   1.259   0.211   5.160 -0.6092 -0.4794 -0.0573
19053TIP3    H178574   1.301   0.291   5.191 -0.1526 -0.5951 -0.3574
19053TIP3    H278575   1.203   0.184   5.232 -1.1028  0.3472 -0.1232
19054TIP3   OH278576   4.322   3.305  14.423  0.1848  0.8148  0.4351
19054TIP3    H178577   4.286   3.297  14.335  1.1010  0.8715  0.0429
19054TIP3    H278578   4.246   3.300  14.481 -0.1696 -2.5736 -0.1237
19055TIP3   OH278579   5.398   4.840   0.205  0.6340 -0.0711 -0.1747
19055TIP3    H178580   5.446   4.763   0.233 -1.7931 -1.1603  1.3568
19055TIP3    H278581   5.464   4.898   0.166  2.6967 -2.4331 -0.3876
19056TIP3   OH278582   0.220   1.632   1.251  0.1304 -0.1339 -0.1560
19056TIP3    H178583   0.140   1.583   1.270 -1.0659  1.8216  0.1695
19056TIP3    H278584   0.266   1.637   1.335 -0.8814  1.1665  0.3632
19057TIP3   OH278585   4.417   0.994   2.222 -0.0728 -0.0083  0.6507
19057TIP3    H178586   4.328   1.027   2.207 -0.2651 -0.8870 -0.2532
19057TIP3    H278587   4.413   0.950   2.307 -0.7906 -0.9655  0.1399
19058TIP3   OH278588   6.197   5.250  14.123 -0.3341  0.6306  0.3906
19058TIP3    H178589   6.145   5.273  14.046  2.4731  0.3001 -1.7369
19058TIP3    H278590   6.217   5.334  14.165 -0.5359  0.9590 -0.1663
19059TIP3   OH278591   5.200   6.492  15.543 -0.2183 -0.0104  0.5410
19059TIP3    H178592   5.206   6.397  15.539  0.7637  0.0736 -0.0423
19059TIP3    H278593   5.200   6.512  15.637  1.0528 -0.4990  0.6529
19060TIP3   OH278594   2.007   6.361  14.502  0.1946 -0.1655  0.4109
19060TIP3    H178595   1.997   6.266  14.492 -0.6833 -0.0227 -0.0629
19060TIP3    H278596   1.919   6.393  14.517  0.0970  0.8907 -2.0384
19061TIP3   OH278597   3.571   5.251  14.405 -0.7686 -0.8023  0.2742
19061TIP3    H178598   3.543   5.321  14.345 -0.1127 -0.2255  0.6283
19061TIP3    H278599   3.490   5.207  14.429 -1.2621  0.1875  0.4777
19062TIP3   OH278600   4.336   1.662   0.860 -0.4532 -0.5090 -0.3008
19062TIP3    H178601   4.298   1.746   0.885  0.1732 -0.2582 -0.1774
19062TIP3    H278602   4.425   1.683   0.833  0.2491 -1.3461  1.2568
19063TIP3   OH278603   4.714   3.114  14.547  0.4227  0.0338 -0.1879
19063TIP3    H178604   4.781   3.171  14.583 -0.3758  0.3532  0.8304
19063TIP3    H278605   4.632   3.161  14.561 -0.1564 -0.9466 -0.1744
19064TIP3   OH278606   3.653   5.068  11.832  0.0908 -0.1852 -0.6456
19064TIP3    H178607   3.655   5.127  11.907 -0.1913 -0.2015 -0.6272
19064TIP3    H278608   3.620   5.121  11.760 -0.0444 -0.2862 -0.6585
19065TIP3   OH278609   5.155   2.650  15.326  0.1551 -0.1973  0.1503
19065TIP3    H178610   5.115   2.642  15.239 -0.7845 -1.5054  0.6697
19065TIP3    H278611   5.093   2.701  15.377 -0.1049 -0.8553  0.5073
19066TIP3   OH278612   2.856   4.831  13.444  0.1168  0.3662  0.1011
19066TIP3    H178613   2.949   4.821  13.424  0.0416 -1.4516  0.4598
19066TIP3    H278614   2.812   4.773  13.382 -0.6005 -0.4115  1.3033
19067TIP3   OH278615   2.847   4.610   3.066 -0.4483  0.8135 -0.3530
19067TIP3    H178616   2.872   4.574   2.980  0.6975  0.6772  0.0139
19067TIP3    H278617   2.859   4.705   3.056  0.9926  0.6958  0.0312
19068TIP3   OH278618   0.815   3.068  15.960 -0.3178 -0.7148  0.5527
19068TIP3    H178619   0.736   3.112  15.990 -0.6119 -0.8923  0.0565
19068TIP3    H278620   0.862   3.134  15.908 -1.4191 -1.3292 -1.3366
19069TIP3   OH278621   4.703   2.083  15.298 -0.2727 -0.3239 -0.0670
19069TIP3    H178622   4.684   2.164  15.346 -1.0234 -0.4447 -0.1403
19069TIP3    H278623   4.726   2.019  15.365  1.1679  0.1600 -0.0690
19070TIP3   OH278624   3.282   0.341  12.714  0.4283  0.0052 -0.5921
19070TIP3    H178625   3.360   0.305  12.672  0.5892  0.2096 -0.4735
19070TIP3    H278626   3.260   0.418  12.661  2.4434  2.1158  1.3958
19071TIP3   OH278627   4.759   2.912  16.708  0.0099  0.3144  0.1740
19071TIP3    H178628   4.831   2.866  16.751 -0.9981 -0.4302  1.1257
19071TIP3    H278629   4.681   2.887  16.759 -1.0015  0.6425 -1.1706
19072TIP3   OH278630   2.726   6.366   1.443  0.0970 -0.4487  0.4868
19072TIP3    H178631   2.670   6.292   1.465 -0.7909  0.2577  0.6551
19072TIP3    H278632   2.668   6.443   1.447  1.1112  0.3286  0.8765
19073TIP3   OH278633   1.986   4.886  12.895 -0.1838  0.3922 -0.1965
19073TIP3    H178634   1.996   4.850  12.983 -1.6852 -0.1224 -0.2143
19073TIP3    H278635   1.921   4.830  12.853  1.3754 -0.1278 -2.0686
19074TIP3   OH278636   6.202   4.706  17.128 -0.1643  0.3179 -0.2588
19074TIP3    H178637   6.163   4.620  17.145 -1.0726  0.3201 -2.0633
19074TIP3    H278638   6.295   4.693  17.144 -0.0841 -1.4102 -1.7212
19075TIP3   OH278639   3.794   0.649   1.308 -0.2941 -0.1008  0.9993
19075TIP3    H178640   3.848   0.678   1.382  2.2815 -1.5662 -0.1752
19075TIP3    H278641   3.778   0.556   1.324  0.4945 -0.5010 -0.3499
19076TIP3   OH278642   6.089   2.020  14.108 -0.0575 -0.0561  0.0422
19076TIP3    H178643   6.079   1.937  14.154  2.6161  0.8690  2.6609
19076TIP3    H278644   6.149   2.000  14.036 -0.1141 -0.5671  0.1324
19077TIP3   OH278645   2.612   2.221   2.461 -0.3054  0.3216  0.1842
19077TIP3    H178646   2.640   2.312   2.453  0.2026  0.2679  1.1632
19077TIP3    H278647   2.554   2.207   2.386  1.6728  0.6774 -1.4916
19078TIP3   OH278648   0.427   5.847  13.870  0.5553 -0.0677 -0.3149
19078TIP3    H178649   0.476   5.857  13.952  2.4987 -1.3686 -1.2535
19078TIP3    H278650   0.452   5.923  13.817 -0.4703  0.6145  0.1463
19079TIP3   OH278651   5.259   5.914   3.906 -0.4765 -0.3306  0.3752
19079TIP3    H178652   5.169   5.884   3.892 -0.0180 -1.2822 -0.7014
19079TIP3    H278653   5.273   5.904   4.000 -1.6532  0.3199  0.6443
19080TIP3   OH278654   0.897   4.912  12.967  0.0583  0.0373  0.7830
19080TIP3    H178655   0.904   4.858  13.046 -2.1300  0.4667  1.3287
19080TIP3    H278656   0.899   5.002  12.999 -2.3983  0.2181  0.5730
19081TIP3   OH278657   2.496   3.196   1.448 -0.3451 -0.2094  0.3641
19081TIP3    H178658   2.429   3.135   1.480 -0.2358  0.4017  1.8151
19081TIP3    H278659   2.471   3.280   1.485 -1.2740  1.0068 -2.7048
19082TIP3   OH278660   0.512   6.235   1.336  0.1007  0.3713  0.4355
19082TIP3    H178661   0.453   6.308   1.355 -0.9706 -0.1524 -0.7538
19082TIP3    H278662   0.480   6.163   1.391  1.3343  0.8360  1.8273
19083TIP3   OH278663   3.026   4.365  14.471  0.2392 -0.1131  0.0734
19083TIP3    H178664   2.968   4.439  14.491 -2.0044 -2.1554  1.8074
19083TIP3    H278665   2.998   4.334  14.385  0.9609  0.8051 -0.5078
19084TIP3   OH278666   4.370   6.398   4.535  0.3875 -0.3430 -0.4108
19084TIP3    H178667   4.345   6.462   4.603 -0.2025 -0.2510 -0.7062
19084TIP3    H278668   4.327   6.430   4.456  0.1047 -1.0963 -0.5680
19085TIP3   OH278669   5.853   6.042   1.236  0.2880  0.2013  0.0392
19085TIP3    H178670   5.833   5.958   1.277 -1.5591  0.4398 -0.2836
19085TIP3    H278671   5.836   6.107   1.304 -0.6526  0.4544 -0.4278
19086TIP3   OH278672   0.632   1.084  13.652 -0.6859  0.1838 -0.2451
19086TIP3    H178673   0.552   1.106  13.699 -1.1766  0.0189 -0.9812
19086TIP3    H278674   0.700   1.137  13.694 -1.4026  1.2738 -0.4162
19087TIP3   OH278675   1.237   4.570   2.951 -0.0176 -0.1082 -0.0178
19087TIP3    H178676   1.155   4.618   2.961  0.4534  0.7801 -0.2636
19087TIP3    H278677   1.250   4.528   3.036 -0.4650  0.1742  0.1970
19088TIP3   OH278678   1.826   1.901   5.276 -0.7826 -0.7351  0.2434
19088TIP3    H178679   1.870   1.986   5.280  3.4958 -2.6452 -0.5526
19088TIP3    H278680   1.802   1.882   5.367  0.7581  0.2095  0.8854
19089TIP3   OH278681   6.473   3.683   3.883 -0.5572  0.1567  0.7010
19089TIP3    H178682   6.567   3.689   3.865 -1.1046  2.6571 -2.0649
19089TIP3    H278683   6.464   3.712   3.974  1.1823  2.0419  0.3402
19090TIP3   OH278684   1.314   3.483   3.464 -0.5111 -0.8093  0.3806
19090TIP3    H178685   1.270   3.567   3.456  0.8274  0.0070  1.1204
19090TIP3    H278686   1.363   3.473   3.382  0.4038 -0.1927  0.8344
19091TIP3   OH278687   2.076   4.894   0.809 -0.5757  0.3404  0.8658
19091TIP3    H178688   2.057   4.831   0.740 -1.7921 -0.2232  1.6626
19091TIP3    H278689   2.136   4.957   0.770 -1.2750  0.0674 -0.7119
19092TIP3   OH278690   0.289   5.501  14.919  0.2955 -0.0760 -0.1528
19092TIP3    H178691   0.206   5.543  14.942 -0.5272 -2.0949  0.9002
19092TIP3    H278692   0.344   5.512  14.997  1.1965  1.5569 -0.9752
19093TIP3   OH278693   5.524   4.853   2.538  0.4753  0.2230  0.2322
19093TIP3    H178694   5.479   4.912   2.599  0.4008  0.0649  0.3296
19093TIP3    H278695   5.557   4.911   2.469 -1.5209  0.1413 -0.8590
19094TIP3   OH278696   0.567   3.293  17.101  0.3919  0.1922 -0.0097
19094TIP3    H178697   0.661   3.279  17.096  0.5082  0.9785 -0.0075
19094TIP3    H278698   0.555   3.386  17.085 -0.2400  0.4380  1.6873
19095TIP3   OH278699   6.209   2.650  12.313  0.3172  0.5540  0.3361
19095TIP3    H178700   6.143   2.581  12.309 -0.6171  1.3773  1.0244
19095TIP3    H278701   6.163   2.730  12.287  1.1970  1.0495  0.2426
19096TIP3   OH278702   6.109   0.541   2.417  0.3004  0.1742  0.2600
19096TIP3    H178703   6.107   0.464   2.361  1.5326  0.7540 -0.6255
19096TIP3    H278704   6.068   0.610   2.364  1.5740  0.7523 -0.0180
19097TIP3   OH278705   2.686   5.395   5.678 -0.1625  0.6716 -0.1522
19097TIP3    H178706   2.648   5.428   5.596  1.6778  3.5679  0.0193
19097TIP3    H278707   2.723   5.473   5.720  1.1933 -1.1350  2.2213
19098TIP3   OH278708   0.183   1.098  14.815 -0.2033 -0.2155  0.6183
19098TIP3    H178709   0.164   1.122  14.905  1.6121  1.7786  0.5642
19098TIP3    H278710   0.187   1.182  14.768  0.9427 -1.0261 -0.8351
19099TIP3   OH278711   0.424   4.168  15.929  0.2330 -0.1112  0.0687
19099TIP3    H178712   0.501   4.204  15.972  2.4195 -2.6110 -1.4018
19099TIP3    H278713   0.428   4.203  15.840 -0.4114 -0.1397  0.0270
19100TIP3   OH278714   1.213   4.315  13.871  0.1786  0.0107 -0.2059
19100TIP3    H178715   1.300   4.276  13.864  0.8468  1.3740  0.0190
19100TIP3    H278716   1.158   4.247  13.909  1.5332 -0.3677  1.1542
19101TIP3   OH278717   0.019   1.838   1.254 -0.3542 -0.1260  0.6674
19101TIP3    H178718  -0.009   1.747   1.241 -0.5364  0.2766 -2.9648
19101TIP3    H278719   0.115   1.832   1.260 -0.2314 -0.5347 -1.0383
19102TIP3   OH278720   6.598   5.384   2.508 -0.1303 -0.7115 -0.2219
19102TIP3    H178721   6.513   5.354   2.476 -0.0171  0.2624 -1.5727
19102TIP3    H278722   6.653   5.306   2.510 -0.8381 -1.2103 -0.0979
19103TIP3   OH278723   2.079   4.980   2.721  0.1514 -0.1331  0.4132
19103TIP3    H178724   2.041   5.036   2.654 -1.3003  0.3844  1.6047
19103TIP3    H278725   2.103   5.040   2.792  2.6335 -0.5268  0.0018
19104TIP3   OH278726   6.568   2.038   5.684  0.0934  0.3132  0.4339
19104TIP3    H178727   6.661   2.059   5.679 -0.1909  1.4171 -0.9866
19104TIP3    H278728   6.524   2.119   5.658 -1.1888 -0.9576 -1.6373
19105TIP3   OH278729   4.011   3.445   4.581  0.0807 -0.5849  0.0062
19105TIP3    H178730   4.026   3.515   4.645 -0.7849  0.2118 -0.6358
19105TIP3    H278731   3.937   3.395   4.617  1.4574 -1.9519  1.0719
19106TIP3   OH278732   3.877   6.284   2.506  0.2311  1.0087  0.1051
19106TIP3    H178733   3.830   6.320   2.582 -0.7852 -1.0436  0.5191
19106TIP3    H278734   3.917   6.204   2.539  1.1790  0.9376 -1.1454
19107TIP3   OH278735   0.743   3.844   3.222 -0.1398  0.1124 -0.1799
19107TIP3    H178736   0.686   3.792   3.166  0.8437  0.6055 -1.7330
19107TIP3    H278737   0.698   3.929   3.229 -0.7030 -0.2380  0.5574
19108TIP3   OH278738   5.219   5.424  11.104  0.2888  0.0825  0.6320
19108TIP3    H178739   5.141   5.452  11.056  0.5281 -0.4363 -0.0929
19108TIP3    H278740   5.189   5.411  11.194 -0.7271 -1.1545  0.1496
19109TIP3   OH278741   2.245   2.073   3.441  0.2514 -0.3761 -0.0415
19109TIP3    H178742   2.228   1.988   3.480  0.0931 -0.2468  0.1766
19109TIP3    H278743   2.300   2.055   3.365  3.1385 -0.3739  1.8990
19110TIP3   OH278744   1.365   6.604   5.838 -0.1769 -0.0471 -0.3140
19110TIP3    H178745   1.270   6.616   5.837 -0.1444  0.2163 -0.3254
19110TIP3    H278746   1.388   6.588   5.746 -0.3776 -1.4781 -0.1248
19111TIP3   OH278747   2.039   6.610   4.322  0.0065 -0.6015  0.2029
19111TIP3    H178748   2.114   6.667   4.302 -0.5912 -0.1111 -0.6829
19111TIP3    H278749   2.023   6.624   4.415  0.9420 -0.6245  0.3809
19112TIP3   OH278750   6.600   5.607  10.895 -0.1752 -0.0092 -0.8265
19112TIP3    H178751   6.618   5.520  10.930  1.7422  0.4899 -0.4452
19112TIP3    H278752   6.679   5.658  10.915 -0.2604  1.1747 -3.0797
19113TIP3   OH278753   2.933   6.681  13.004 -0.2410  0.4639  0.0994
19113TIP3    H178754   2.839   6.696  13.015  0.1083  1.9200  1.5443
19113TIP3    H278755   2.945   6.589  13.025 -1.0826  0.7825  2.2837
19114TIP3   OH278756   2.135   3.804  13.669  0.3508  0.5662 -0.4353
19114TIP3    H178757   2.101   3.720  13.636 -0.5888  1.3722 -1.5998
19114TIP3    H278758   2.108   3.806  13.761 -0.6358  0.0811 -0.6965
19115TIP3   OH278759   5.945   5.896  17.043 -0.0851 -0.4575 -0.2577
19115TIP3    H178760   5.977   5.857  17.125 -1.3750 -1.1280 -0.0419
19115TIP3    H278761   5.987   5.982  17.039  0.8492 -0.8535  0.5496
19116TIP3   OH278762   6.493   6.310   1.172 -0.0964  0.5056  0.0002
19116TIP3    H178763   6.412   6.336   1.216  0.0442 -0.4402  0.8498
19116TIP3    H278764   6.487   6.349   1.085 -1.8608 -0.2511 -0.2522
19117TIP3   OH278765   6.046   3.630  11.116 -0.5316  0.2430 -0.2707
19117TIP3    H178766   6.067   3.662  11.029  1.9100 -0.5372 -0.0400
19117TIP3    H278767   5.995   3.551  11.101  0.6294 -0.3831 -1.0438
19118TIP3   OH278768   5.671   3.168  16.048 -0.4481  0.5972  0.3572
19118TIP3    H178769   5.760   3.166  16.083 -1.0549  1.1985  1.9906
19118TIP3    H278770   5.672   3.101  15.979  1.4301  1.0447 -0.1086
19119TIP3   OH278771   6.065   6.598  14.020  0.0337  0.4815  0.1909
19119TIP3    H178772   6.090   6.521  13.970  0.4272  0.1861  0.8331
19119TIP3    H278773   6.079   6.574  14.111 -0.0620  1.2304  0.4159
19120TIP3   OH278774   4.146   2.504   6.340 -0.6938 -0.5020 -0.9157
19120TIP3    H178775   4.111   2.591   6.322 -2.8050 -0.7405  1.4449
19120TIP3    H278776   4.069   2.447   6.344  0.0576 -1.5309  2.1232
19121TIP3   OH278777   3.729   4.654  11.874  0.0318  0.3043 -0.0366
19121TIP3    H178778   3.642   4.651  11.836  0.0418 -1.6867 -0.0287
19121TIP3    H278779   3.714   4.665  11.968 -0.2120  0.2538 -0.0686
19122TIP3   OH278780   4.963   1.000   6.288 -0.3694 -0.2310  0.2144
19122TIP3    H178781   4.897   0.952   6.338 -1.6448  0.5098 -0.6974
19122TIP3    H278782   4.937   0.988   6.196 -0.7628  2.1470 -0.0488
19123TIP3   OH278783   1.763   5.057   3.260 -0.2421 -0.4230  0.0053
19123TIP3    H178784   1.842   5.109   3.270 -0.4765  0.2397 -1.3525
19123TIP3    H278785   1.755   5.044   3.165 -2.7791  1.1915 -0.0935
19124TIP3   OH278786   2.181   6.169  13.236 -0.2871 -0.1143  0.1150
19124TIP3    H178787   2.133   6.241  13.278 -0.6718  0.1667 -0.7901
19124TIP3    H278788   2.263   6.208  13.208  0.1007 -0.3773  0.8640
19125TIP3   OH278789   3.196   5.664  10.342  0.4222 -0.4411  0.4632
19125TIP3    H178790   3.252   5.706  10.408  0.3633 -1.2127  1.0095
19125TIP3    H278791   3.164   5.585  10.384 -2.0388  0.5389  0.5881
19126TIP3   OH278792   6.671   4.905  16.200  0.6751 -0.0167  0.3113
19126TIP3    H178793   6.763   4.891  16.224  0.6087  0.7919  1.0762
19126TIP3    H278794   6.659   4.999  16.207 -0.3995 -0.1852  0.8918
19127TIP3   OH278795   6.206   6.475  16.208  0.6707 -0.0292 -0.1189
19127TIP3    H178796   6.230   6.511  16.122  2.6139 -1.4826 -0.2393
19127TIP3    H278797   6.238   6.385  16.206 -1.3321 -0.8297  1.3155
19128TIP3   OH278798   6.416   1.103   3.750 -0.1657  0.1929 -0.4776
19128TIP3    H178799   6.378   1.047   3.817 -0.7962  1.8738  0.6383
19128TIP3    H278800   6.442   1.182   3.796 -0.4312  1.3268 -2.1648
19129TIP3   OH278801   2.127   6.226   2.896  0.9370  0.0632  0.7228
19129TIP3    H178802   2.101   6.303   2.844  0.3359 -0.0556  0.8326
19129TIP3    H278803   2.093   6.244   2.983 -0.5958 -1.0041  0.3896
19130TIP3   OH278804   2.601   0.180   3.358 -0.3165 -0.5856  0.2766
19130TIP3    H178805   2.580   0.125   3.433  0.1764  0.3510  1.1269
19130TIP3    H278806   2.641   0.258   3.396 -2.8143  1.3041 -0.7434
19131TIP3   OH278807   3.612   1.936  15.571  0.0106  0.1080 -0.0204
19131TIP3    H178808   3.621   1.843  15.589  0.5607  0.5844  2.6001
19131TIP3    H278809   3.702   1.968  15.565 -0.1687  0.4542 -1.3251
19132TIP3   OH278810   4.853   0.347  12.453 -0.5981 -0.1208  0.1859
19132TIP3    H178811   4.931   0.401  12.465 -1.3796  1.0191  0.2699
19132TIP3    H278812   4.886   0.264  12.417  0.5095  0.7874 -0.9576
19133TIP3   OH278813   1.019   3.968   4.061  0.0626 -0.3454  0.2554
19133TIP3    H178814   0.946   4.026   4.083  0.2504 -0.1884  0.4697
19133TIP3    H278815   1.095   4.009   4.102  0.3981 -0.1293 -0.5762
19134TIP3   OH278816   2.229   0.234  12.223 -0.1990 -0.0752 -0.3027
19134TIP3    H178817   2.294   0.278  12.278 -0.9431 -2.2722  2.5362
19134TIP3    H278818   2.155   0.294  12.220  0.5655  0.8914 -0.5766
19135TIP3   OH278819   4.401   4.280  11.267  0.9733  0.2555 -0.1623
19135TIP3    H178820   4.332   4.262  11.330 -0.5625  2.5806 -1.0441
19135TIP3    H278821   4.363   4.257  11.182  0.9792  2.1040 -0.7196
19136TIP3   OH278822   1.123   3.585   4.677  0.3614  0.1221 -0.5942
19136TIP3    H178823   1.148   3.588   4.770 -0.2030  1.1287 -0.4683
19136TIP3    H278824   1.182   3.520   4.639  0.4562 -0.4703  0.5151
19137TIP3   OH278825   0.777   0.568   5.097 -0.1971  0.1293 -0.2284
19137TIP3    H178826   0.781   0.629   5.171 -0.0289 -0.2135  0.0506
19137TIP3    H278827   0.765   0.482   5.138  2.5085 -0.4283 -0.4206
19138TIP3   OH278828   0.948   0.371   5.390  0.2539 -0.0401  0.2355
19138TIP3    H178829   0.884   0.367   5.319  1.4575  1.7302 -1.0374
19138TIP3    H278830   0.931   0.456   5.433 -0.2525 -0.9420  1.9124
19139TIP3   OH278831   5.470   5.452  14.971 -0.0297  0.5048 -0.4484
19139TIP3    H178832   5.456   5.545  14.952  0.2296  0.5526 -0.4114
19139TIP3    H278833   5.403   5.430  15.036  0.5043  0.9067  0.2558
19140TIP3   OH278834   1.717   2.269  12.864  0.2055  0.5765  0.0891
19140TIP3    H178835   1.637   2.221  12.841 -0.1026  1.5846 -1.0371
19140TIP3    H278836   1.697   2.309  12.949 -0.6310  1.0778 -0.3254
19141TIP3   OH278837   0.258   6.486   2.621 -0.4338 -0.6713  0.9023
19141TIP3    H178838   0.302   6.489   2.705 -0.3718 -0.0756  0.8544
19141TIP3    H278839   0.319   6.440   2.563 -0.3727 -0.8637  1.1151
19142TIP3   OH278840   0.287   0.873  11.893  0.0374  0.7064  0.5819
19142TIP3    H178841   0.279   0.842  11.984 -0.6872  2.9598  1.3390
19142TIP3    H278842   0.270   0.795  11.841  0.3011 -0.6280  2.3744
19143TIP3   OH278843   1.863   6.208  16.728  0.6819 -0.6287 -0.5881
19143TIP3    H178844   1.853   6.150  16.652 -0.0688 -1.6764  0.2797
19143TIP3    H278845   1.829   6.293  16.698 -1.9805 -1.6576 -0.7069
19144TIP3   OH278846   1.929   6.160   3.535 -0.1186  0.3224 -0.2709
19144TIP3    H178847   1.948   6.100   3.608 -1.2408  1.0667  0.6675
19144TIP3    H278848   1.834   6.158   3.527 -0.1859  2.0201 -0.1718
19145TIP3   OH278849   0.192   6.789  16.481 -0.0377 -0.2339 -0.3381
19145TIP3    H178850   0.194   6.875  16.439  0.5284  0.3753  0.9032
19145TIP3    H278851   0.284   6.764  16.489 -0.1839 -0.7908 -0.3386
19146TIP3   OH278852   5.487   2.906  12.632  0.5795  0.3341 -0.1276
19146TIP3    H178853   5.543   2.926  12.707  1.0781  0.2147 -0.4653
19146TIP3    H278854   5.401   2.889  12.671  1.3448 -2.1039  0.6556
19147TIP3   OH278855   2.933   4.855   0.596  0.0749 -0.0658 -0.1905
19147TIP3    H178856   2.884   4.936   0.578  0.0273  0.3262  1.4771
19147TIP3    H278857   2.913   4.836   0.688  0.6288 -1.6104 -0.3682
19148TIP3   OH278858   1.953   5.788  16.798 -0.8022  0.1406  0.1113
19148TIP3    H178859   2.019   5.852  16.824 -0.3591 -0.4342  0.4307
19148TIP3    H278860   1.891   5.785  16.871 -0.5768 -0.1117  0.2976
19149TIP3   OH278861   6.722   4.087  14.640  0.5194 -0.3465 -0.3984
19149TIP3    H178862   6.655   4.085  14.709 -0.7523 -0.5579 -1.5871
19149TIP3    H278863   6.710   4.173  14.598 -0.1939 -1.0387 -1.6987
19150TIP3   OH278864   2.990   1.948  15.352  0.5131 -0.4674 -1.1886
19150TIP3    H178865   2.946   2.032  15.355  1.0774 -0.1940 -0.4155
19150TIP3    H278866   2.973   1.916  15.263  0.4056  0.5152 -1.5368
19151TIP3   OH278867   2.411   3.436   1.537  0.2521  0.2586 -0.2531
19151TIP3    H178868   2.335   3.456   1.592  0.8870  0.2190  0.6623
19151TIP3    H278869   2.486   3.469   1.587  0.9493 -0.7620 -0.5850
19152TIP3   OH278870   3.562   2.702   4.624  0.0737  0.1781  0.2921
19152TIP3    H178871   3.483   2.735   4.582 -1.1829 -2.0697  0.7015
19152TIP3    H278872   3.625   2.774   4.619 -1.0866  1.1300 -2.4615
19153TIP3   OH278873   1.070   2.060  10.412  0.2933  0.4371 -0.1356
19153TIP3    H178874   1.136   2.039  10.477 -0.7636 -3.7219 -0.1307
19153TIP3    H278875   1.116   2.058  10.328  0.5536 -0.4896  0.0230
19154TIP3   OH278876   2.165   2.464   0.384  0.1379  0.3876 -0.2819
19154TIP3    H178877   2.201   2.419   0.461  1.1013  0.3993 -0.7082
19154TIP3    H278878   2.131   2.394   0.329 -0.4829  0.3729  0.1057
19155TIP3   OH278879   4.514   6.288  11.078 -0.3314 -0.2841 -0.7380
19155TIP3    H178880   4.602   6.250  11.069 -0.5155 -0.7453 -0.5910
19155TIP3    H278881   4.459   6.232  11.024 -0.4635  0.2831 -1.2136
19156TIP3   OH278882   2.869   0.145  12.041  0.4928  0.1045 -0.2730
19156TIP3    H178883   2.851   0.074  12.103  1.9385 -0.0501 -0.0114
19156TIP3    H278884   2.786   0.193  12.037  0.0136 -0.5647  0.8852
19157TIP3   OH278885   5.967   5.806  14.590  1.0238  0.1763 -0.0358
19157TIP3    H178886   6.028   5.820  14.663  0.3803 -0.6876  0.6877
19157TIP3    H278887   5.917   5.887  14.585  0.7966  0.0955  0.7554
19158TIP3   OH278888   2.357   4.163   0.895 -0.1036  0.1540 -0.0092
19158TIP3    H178889   2.366   4.258   0.885 -0.7455  0.0578 -2.0087
19158TIP3    H278890   2.339   4.132   0.806  2.9093 -2.2092  0.0899
19159TIP3   OH278891   2.165   6.199  12.375 -0.5087  0.4364 -0.1918
19159TIP3    H178892   2.082   6.236  12.345 -0.3739  0.6681 -0.2880
19159TIP3    H278893   2.150   6.178  12.467 -2.1841 -3.8977 -1.2508
19160TIP3   OH278894   5.372   1.183   6.077  0.0255 -0.0795  0.3010
19160TIP3    H178895   5.327   1.170   6.161  0.8752 -0.8539  0.6565
19160TIP3    H278896   5.440   1.115   6.076  1.3165  1.1698 -0.1155
19161TIP3   OH278897   2.159   4.775   1.418 -0.2945 -0.1401 -0.0146
19161TIP3    H178898   2.113   4.699   1.382 -0.6996  0.1598 -0.1447
19161TIP3    H278899   2.197   4.744   1.500 -0.2959 -0.5339 -0.1643
19162TIP3   OH278900   1.441   3.633  15.633 -0.3313  0.0634  0.3438
19162TIP3    H178901   1.515   3.685  15.604  1.0684 -1.4871  0.9848
19162TIP3    H278902   1.423   3.663  15.722 -1.1922  1.1457 -0.1631
19163TIP3   OH278903   1.364   1.028  17.131  0.5533 -0.2843 -0.0197
19163TIP3    H178904   1.451   0.996  17.157 -0.1246  0.0505  3.0882
19163TIP3    H278905   1.368   1.123  17.146 -0.6536 -0.4155  1.3242
19164TIP3   OH278906   2.529   3.248  11.911  0.1219 -0.8102 -0.4005
19164TIP3    H178907   2.548   3.295  11.829  1.0226 -0.7304 -0.1622
19164TIP3    H278908   2.478   3.173  11.884 -0.8884  0.0142 -0.8581
19165TIP3   OH278909   2.529   0.648  15.320 -0.2263  0.2412  0.5134
19165TIP3    H178910   2.480   0.714  15.370 -0.8098  0.4167 -0.2711
19165TIP3    H278911   2.504   0.565  15.360 -1.2965  0.3128  0.0440
19166TIP3   OH278912   1.970   2.934  15.989  1.0151 -0.2719 -0.0138
19166TIP3    H178913   2.060   2.923  16.020  1.9569  0.8795 -2.1578
19166TIP3    H278914   1.953   2.856  15.935  0.6739 -0.5070  0.4165
19167TIP3   OH278915   0.941   0.268   2.312 -0.6370  0.0584  0.4345
19167TIP3    H178916   1.027   0.257   2.352 -0.5539 -2.2729 -0.2620
19167TIP3    H278917   0.955   0.256   2.219 -1.5320  0.9382  0.1655
19168TIP3   OH278918   6.264   2.782   3.240 -0.2310  0.2269  0.3454
19168TIP3    H178919   6.256   2.863   3.190  0.5359 -0.8648 -1.6270
19168TIP3    H278920   6.357   2.774   3.258 -0.1562 -0.7612 -0.4312
19169TIP3   OH278921   1.732   3.355  13.301  0.1238 -0.5927 -0.6300
19169TIP3    H178922   1.689   3.283  13.254 -0.5281 -0.6805  0.0704
19169TIP3    H278923   1.716   3.432  13.246 -1.5536 -0.4963 -0.0942
19170TIP3   OH278924   3.034   0.471   2.343  0.0203  0.0344 -0.1225
19170TIP3    H178925   3.042   0.564   2.365 -1.7190  0.1839 -0.0356
19170TIP3    H278926   2.980   0.468   2.265 -0.8729 -0.9474  0.4942
19171TIP3   OH278927   4.858   2.747   3.014 -0.1471 -0.0119  0.4400
19171TIP3    H178928   4.886   2.657   2.997 -0.9705 -0.2610  0.3888
19171TIP3    H278929   4.764   2.741   3.030 -0.3854  0.9706 -0.5097
19172TIP3   OH278930   4.228   3.824  15.087 -0.0510  0.0139  0.1562
19172TIP3    H178931   4.246   3.867  15.004  0.7264  2.4541  1.4764
19172TIP3    H278932   4.311   3.784  15.112 -0.1768 -0.3831 -0.0629
19173TIP3   OH278933   3.283   1.873  15.921 -0.1423  0.1829 -0.0726
19173TIP3    H178934   3.368   1.844  15.954 -0.1783 -0.8264 -0.8014
19173TIP3    H278935   3.301   1.958  15.880  0.4341  0.1586  0.1218
19174TIP3   OH278936   1.776   2.252   5.022  0.1190 -0.3378 -0.2460
19174TIP3    H178937   1.739   2.283   4.939  0.0784 -0.9052 -0.4469
19174TIP3    H278938   1.699   2.225   5.073 -0.0160  1.6463  0.6923
19175TIP3   OH278939   2.510   5.089   0.046 -0.5975  0.3746  0.1694
19175TIP3    H178940   2.594   5.074   0.088 -0.5214  0.7911  0.1682
19175TIP3    H278941   2.495   5.184   0.055 -0.7948  0.3923 -0.3339
19176TIP3   OH278942   4.689   4.433   3.601 -0.2579 -0.4184  0.5550
19176TIP3    H178943   4.778   4.463   3.582  0.8101 -0.7552  4.3149
19176TIP3    H278944   4.639   4.457   3.523  3.0096  0.0699 -1.6000
19177TIP3   OH278945   4.586   3.572  16.825  0.0106  0.3452 -0.3328
19177TIP3    H178946   4.660   3.569  16.887  0.2891  1.1362 -0.6078
19177TIP3    H278947   4.627   3.580  16.739 -0.3986  0.8616 -0.4842
19178TIP3   OH278948   0.761   4.753   6.560 -0.1012 -0.2337  0.5731
19178TIP3    H178949   0.710   4.823   6.600  0.4971  0.6078 -0.0943
19178TIP3    H278950   0.850   4.767   6.593  0.0870 -0.4805  0.1725
19179TIP3   OH278951   4.104   2.104  12.369 -0.4052 -0.2649  0.1563
19179TIP3    H178952   4.157   2.032  12.333  0.3027  0.2464  0.1502
19179TIP3    H278953   4.027   2.061  12.406  0.4250 -1.1334  0.9554
19180TIP3   OH278954   1.298   0.559   5.527  0.7929  0.1560  0.2557
19180TIP3    H178955   1.217   0.564   5.578  1.2485  1.0681  0.9351
19180TIP3    H278956   1.325   0.651   5.517  1.7641 -0.1384  0.0813
19181TIP3   OH278957   4.268   4.236   2.953  0.0040  0.7390 -0.4666
19181TIP3    H178958   4.345   4.202   2.908 -0.4821 -0.9312 -0.0897
19181TIP3    H278959   4.304   4.286   3.027  0.7448  1.2923 -1.1879
19182TIP3   OH278960   0.850   2.373   6.621 -0.6210  0.3876 -0.0492
19182TIP3    H178961   0.911   2.303   6.596 -0.1164  1.0475 -0.6941
19182TIP3    H278962   0.780   2.368   6.555 -0.8269  0.2039  0.1774
19183TIP3   OH278963   2.300   5.122   1.600 -0.1133 -0.3047  0.2727
19183TIP3    H178964   2.221   5.069   1.616 -1.2713  1.8555  2.3597
19183TIP3    H278965   2.269   5.194   1.545  0.0981  1.0649  1.8613
19184TIP3   OH278966   6.430   2.906   4.926 -0.5208  0.6081 -0.6189
19184TIP3    H178967   6.419   2.938   4.837  0.0933  1.6802 -0.3288
19184TIP3    H278968   6.343   2.917   4.966 -0.5575  1.0146 -0.8078
19185TIP3   OH278969   3.148   6.004   0.833 -0.2413  0.3896  0.3012
19185TIP3    H178970   3.073   6.017   0.890  0.3941  0.1295  1.2228
19185TIP3    H278971   3.124   6.047   0.751 -1.7097 -0.3716  0.2992
19186TIP3   OH278972   0.997   6.154  14.075 -0.2424 -0.0551 -0.0936
19186TIP3    H178973   0.945   6.090  14.123 -0.3368  0.5676  0.6592
19186TIP3    H278974   0.940   6.231  14.070  0.2529  0.3125 -0.0853
19187TIP3   OH278975   5.268   4.500   0.143  0.4748  0.3094 -0.1863
19187TIP3    H178976   5.315   4.474   0.222 -0.2389 -2.3730 -0.5407
19187TIP3    H278977   5.337   4.513   0.077  0.8949 -0.6991  0.0434
19188TIP3   OH278978   4.397   6.533  16.388 -0.1654 -0.8771  0.0674
19188TIP3    H178979   4.492   6.540  16.377  0.0726 -2.8364  0.5281
19188TIP3    H278980   4.363   6.529  16.299  0.3776 -1.9758 -0.1146
19189TIP3   OH278981   2.127   3.191   0.570  0.0850 -0.3759 -0.3118
19189TIP3    H178982   2.124   3.108   0.523 -0.5544 -0.3389 -0.3517
19189TIP3    H278983   2.129   3.166   0.663  1.0269 -0.4436 -0.3354
19190TIP3   OH278984   6.029   3.705  14.951  0.4468 -0.2535  0.5097
19190TIP3    H178985   6.065   3.743  14.871  0.8087  1.3240  1.3870
19190TIP3    H278986   5.991   3.779  14.998  0.6173 -1.0778  2.0105
19191TIP3   OH278987   6.327   5.163   2.753  0.5329 -0.0238 -0.4029
19191TIP3    H178988   6.390   5.203   2.813 -0.0950 -2.4576  2.0833
19191TIP3    H278989   6.247   5.215   2.765  0.3690 -0.5603  1.0547
19192TIP3   OH278990   1.152   5.453   1.781  0.1937 -0.0678  0.7575
19192TIP3    H178991   1.156   5.427   1.689  1.2580 -0.9483  1.0449
19192TIP3    H278992   1.220   5.401   1.824  0.9549  1.6707  1.7260
19193TIP3   OH278993   5.894   0.492  11.667 -0.3195  0.2206 -0.2236
19193TIP3    H178994   5.832   0.544  11.719  0.3076  1.2870 -0.4974
19193TIP3    H278995   5.959   0.556  11.638  1.5179 -1.0403  0.9258
19194TIP3   OH278996   2.092   1.636   4.565 -0.3195 -0.1025  0.2718
19194TIP3    H178997   1.997   1.628   4.566 -0.1924 -2.1475 -0.4559
19194TIP3    H278998   2.119   1.617   4.655 -0.6221  1.1959  0.6513
19195TIP3   OH278999   6.058   4.415   1.199  0.2548  0.3428 -0.1424
19195TIP3    H179000   6.005   4.335   1.204  0.3870  0.2530 -0.1746
19195TIP3    H279001   6.148   4.384   1.208  0.2208  0.6752  2.0974
19196TIP3   OH279002   3.535   5.485   3.195 -0.0119 -0.8098  0.2839
19196TIP3    H179003   3.464   5.548   3.208  0.3963  0.0209 -1.3040
19196TIP3    H279004   3.500   5.402   3.229 -1.2268 -0.1345  0.7441
19197TIP3   OH279005   6.152   2.131   6.055  0.3309 -0.2471 -0.1940
19197TIP3    H179006   6.084   2.074   6.092  0.0309 -1.0102 -1.8164
19197TIP3    H279007   6.200   2.164   6.131 -3.0065  1.8866  1.2326
19198TIP3   OH279008   1.993   6.093   1.462  0.1869 -0.3482  0.0984
19198TIP3    H179009   1.978   6.183   1.492 -1.5663 -0.5541 -0.0491
19198TIP3    H279010   1.909   6.049   1.476  1.4832 -2.4630  1.8243
19199TIP3   OH279011   3.206   2.926  11.512 -0.3584  0.0004 -0.9296
19199TIP3    H179012   3.122   2.959  11.545  0.4214  1.1962 -0.0397
19199TIP3    H279013   3.188   2.901  11.421 -1.8933 -0.6767 -0.4692
19200TIP3   OH279014   1.819   1.031  12.912  0.2155  0.0208  0.3919
19200TIP3    H179015   1.904   1.023  12.869  0.5786 -1.7775  1.3535
19200TIP3    H279016   1.830   1.102  12.975  0.0948  1.7426 -1.4050
19201TIP3   OH279017   0.231   6.631   5.074 -0.3523 -0.1642  0.4682
19201TIP3    H179018   0.205   6.541   5.054 -2.6485  0.1763  1.5541
19201TIP3    H279019   0.211   6.641   5.167  0.4005  1.3147  0.4916
19202TIP3   OH279020   0.211   0.402   1.245 -0.2874 -0.4406 -0.3691
19202TIP3    H179021   0.145   0.463   1.276 -0.4669 -0.5483 -0.5388
19202TIP3    H279022   0.279   0.403   1.313 -1.5385 -2.1131  0.9802
19203TIP3   OH279023   5.441   5.131  14.247  0.1327  0.0541 -0.7575
19203TIP3    H179024   5.534   5.149  14.259 -0.0131  0.7208 -0.5915
19203TIP3    H279025   5.402   5.217  14.230 -0.4756 -0.1996 -0.6645
19204TIP3   OH279026   1.875   1.618  11.931  0.2624 -0.2424 -0.6155
19204TIP3    H179027   1.797   1.662  11.964 -0.0566  0.0678 -1.7138
19204TIP3    H279028   1.906   1.564  12.003 -0.0366  0.8705  0.3733
19205TIP3   OH279029   2.451   6.115  13.075 -0.1037 -0.1304  0.2668
19205TIP3    H179030   2.484   6.026  13.066 -0.4140 -0.1393 -1.0431
19205TIP3    H279031   2.429   6.141  12.985  2.6193  2.2618  0.1242
19206TIP3   OH279032   1.284   5.687   4.665  0.3161  0.5086 -0.1480
19206TIP3    H179033   1.209   5.748   4.659 -0.7788 -0.8173 -0.4493
19206TIP3    H279034   1.281   5.655   4.755 -0.6337 -0.9106 -0.6473
19207TIP3   OH279035   5.295   0.281  10.813  0.2029  0.4515 -0.1953
19207TIP3    H179036   5.281   0.189  10.835  2.1833  0.1400  0.0054
19207TIP3    H279037   5.327   0.279  10.723  0.9919  0.8544  0.0651
19208TIP3   OH279038   3.065   6.050  16.554 -0.3212  0.3185 -0.4132
19208TIP3    H179039   3.147   6.079  16.513  0.1132  0.6226  0.6253
19208TIP3    H279040   3.038   5.974  16.503  0.6668  0.1543 -0.7116
19209TIP3   OH279041   1.018   3.657  15.553  0.3629 -0.4372  0.0573
19209TIP3    H179042   0.931   3.684  15.521  0.3091  0.3754  0.8615
19209TIP3    H279043   1.065   3.630  15.474 -0.6783 -1.0720 -0.3698
19210TIP3   OH279044   5.073   3.314  16.723  0.5728 -0.4614 -0.5250
19210TIP3    H179045   5.049   3.405  16.707  1.1748 -0.4990 -1.8132
19210TIP3    H279046   5.013   3.264  16.667  2.0243 -0.6747 -1.9802
19211TIP3   OH279047   1.097   4.361  13.531  0.6861  0.0906  0.4661
19211TIP3    H179048   1.146   4.305  13.591  1.4194  0.2089 -0.0105
19211TIP3    H279049   1.017   4.382  13.578  0.2980 -1.5283  0.5824
19212TIP3   OH279050   2.051   4.567  13.321  0.4568 -0.1825 -0.1276
19212TIP3    H179051   2.112   4.501  13.290  0.5553 -0.1695  0.0329
19212TIP3    H279052   2.036   4.545  13.413 -0.1942 -0.4933 -0.3036
19213TIP3   OH279053   2.386   3.356  11.612  0.6154  0.1823  0.1930
19213TIP3    H179054   2.310   3.364  11.670  0.2859  0.0145 -0.2069
19213TIP3    H279055   2.358   3.397  11.531  0.7333 -0.4244 -0.1590
19214TIP3   OH279056   4.784   4.825   1.458  0.3267 -0.4016  0.1867
19214TIP3    H179057   4.872   4.792   1.473  0.4123 -0.2732 -0.0350
19214TIP3    H279058   4.767   4.806   1.365  0.3398  0.0896  0.0849
19215TIP3   OH279059   4.055   4.624  11.525 -0.6369  0.4821  0.6957
19215TIP3    H179060   4.133   4.670  11.495 -1.1881 -0.0351 -1.8201
19215TIP3    H279061   3.985   4.690  11.521 -0.7896  0.3078  0.3984
19216TIP3   OH279062   6.610   6.700  13.686 -0.1776  0.0112  0.0545
19216TIP3    H179063   6.628   6.663  13.599  0.5274  0.1917  0.1157
19216TIP3    H279064   6.603   6.794  13.670  1.1345  0.1886  0.3494
19217TIP3   OH279065   2.207   2.575   5.817 -0.0831 -0.0696 -0.0784
19217TIP3    H179066   2.135   2.535   5.769 -0.1060 -0.4684  0.2847
19217TIP3    H279067   2.251   2.630   5.752  1.6187 -2.7667 -1.3589
19218TIP3   OH279068   4.723   4.443  15.608  0.1735 -0.2340 -0.2357
19218TIP3    H179069   4.671   4.365  15.627  0.3370 -0.8572 -2.1434
19218TIP3    H279070   4.659   4.512  15.592  0.0168 -0.1146  0.8480
19219TIP3   OH279071   3.692   6.300  14.825  0.4615 -0.6262  0.4032
19219TIP3    H179072   3.633   6.301  14.750  2.0579  1.1934 -0.9440
19219TIP3    H279073   3.685   6.212  14.861 -2.2960 -0.7679 -0.2680
19220TIP3   OH279074   3.107   0.325  13.398 -0.6376 -0.2802 -0.4612
19220TIP3    H179075   3.168   0.391  13.364  0.0880 -1.0457 -0.6623
19220TIP3    H279076   3.059   0.295  13.320 -0.6368 -0.3334 -0.4404
19221TIP3   OH279077   0.345   4.214  14.759 -0.0562 -0.1750  0.4652
19221TIP3    H179078   0.429   4.231  14.715 -0.2731  0.5602  0.3201
19221TIP3    H279079   0.341   4.119  14.765  0.1138 -0.2932 -0.8571
19222TIP3   OH279080   3.874   6.154   0.449  0.2876 -0.3019  0.1735
19222TIP3    H179081   3.916   6.233   0.415 -0.3878 -0.2647 -0.6051
19222TIP3    H279082   3.794   6.186   0.492 -0.0410 -0.5547 -0.2327
19223TIP3   OH279083   2.959   6.710   1.833 -0.3324 -0.6804  0.5320
19223TIP3    H179084   2.930   6.663   1.755 -1.1974 -0.5726  0.7767
19223TIP3    H279085   3.022   6.651   1.874  1.2089 -0.1439 -0.9726
19224TIP3   OH279086   4.357   5.243  13.208  0.1007  0.2891 -0.4725
19224TIP3    H179087   4.300   5.284  13.143 -0.1070  3.3289  1.3958
19224TIP3    H279088   4.375   5.156  13.174 -2.4202  0.6498 -3.0581
19225TIP3   OH279089   2.191   2.769   5.114  0.4144 -0.3159 -0.5804
19225TIP3    H179090   2.208   2.853   5.071  0.6805 -0.7928 -1.4493
19225TIP3    H279091   2.218   2.782   5.205 -2.1678  1.3796  0.0509
19226TIP3   OH279092   1.547   5.546  12.465 -0.6025  0.3786  0.0853
19226TIP3    H179093   1.578   5.503  12.545 -1.2901 -1.3169 -0.5157
19226TIP3    H279094   1.475   5.602  12.495  0.0682  0.8548  0.8457
19227TIP3   OH279095   3.190   3.976   5.466 -0.3887 -0.3832  0.3388
19227TIP3    H179096   3.252   3.913   5.501  1.8061  0.8200 -1.1584
19227TIP3    H279097   3.142   4.009   5.543  1.1663 -0.9969  1.6105
19228TIP3   OH279098   4.635   4.369  11.377  0.5008  0.1582  0.4558
19228TIP3    H179099   4.557   4.355  11.323  0.0961 -2.0111  1.4946
19228TIP3    H279100   4.705   4.386  11.314 -0.1143 -1.4594 -0.7378
19229TIP3   OH279101   4.107   2.956  13.978 -0.6542  0.7302 -0.0950
19229TIP3    H179102   4.186   2.913  13.946 -0.8811  1.3832 -1.6044
19229TIP3    H279103   4.129   3.049  13.983 -1.5909  1.0703 -1.5368
19230TIP3   OH279104   6.378   4.120  14.319  0.0523 -0.2607  0.0440
19230TIP3    H179105   6.420   4.206  14.318  0.0654 -0.2653 -0.5152
19230TIP3    H279106   6.450   4.057  14.326 -0.0264 -0.2070  1.7535
19231TIP3   OH279107   3.929   2.301  12.174  0.5061 -0.1497  0.1941
19231TIP3    H179108   3.937   2.212  12.208 -1.7948 -1.2121 -1.7543
19231TIP3    H279109   3.854   2.338  12.220  1.7700  1.0457  1.3818
19232TIP3   OH279110   1.866   6.243  13.825  0.7591 -0.8104 -0.1465
19232TIP3    H179111   1.929   6.187  13.870  0.8589 -0.7369 -0.1964
19232TIP3    H279112   1.885   6.231  13.732  0.1808 -1.4104 -0.2030
19233TIP3   OH279113   3.920   2.603   3.925 -0.0666  0.4596 -0.3350
19233TIP3    H179114   3.968   2.660   3.865  0.1334  1.9875  1.1983
19233TIP3    H279115   3.857   2.557   3.869  2.0306 -0.4007 -2.1452
19234TIP3   OH279116   4.015   1.651  11.449  0.4347 -0.5929  0.1690
19234TIP3    H179117   4.015   1.680  11.358 -1.7414 -0.7429  0.0632
19234TIP3    H279118   4.076   1.710  11.493  1.2741 -0.3109 -1.3089
19235TIP3   OH279119   1.358   4.776  12.273  0.0840 -0.2966 -1.1901
19235TIP3    H179120   1.350   4.774  12.177 -0.0902  1.9183 -1.2732
19235TIP3    H279121   1.444   4.814  12.289  0.7774 -2.0523 -0.3943
19236TIP3   OH279122   4.024   3.752  13.670 -0.0715  0.0705  0.1345
19236TIP3    H179123   4.046   3.720  13.758 -1.1737 -2.8828 -0.5475
19236TIP3    H279124   4.092   3.715  13.614  1.0142  2.4959 -0.2834
19237TIP3   OH279125   1.562   0.435  13.141 -0.2288 -0.4959 -0.2135
19237TIP3    H179126   1.625   0.363  13.147 -0.5662 -1.0244 -2.2137
19237TIP3    H279127   1.615   0.513  13.125  0.1223 -0.2724  1.7584
19238TIP3   OH279128   5.418   1.196   2.441 -0.3038  0.4201 -1.4430
19238TIP3    H179129   5.444   1.268   2.499 -0.4572 -0.9339  0.4274
19238TIP3    H279130   5.349   1.233   2.387  0.8201  2.1568 -1.7863
19239TIP3   OH279131   2.520   6.034   1.023  0.4445  0.0403  0.2052
19239TIP3    H179132   2.573   6.020   0.944  1.1397 -2.2939  1.0043
19239TIP3    H279133   2.489   6.124   1.015  0.2269 -0.1918 -2.8659
19240TIP3   OH279134   5.762   4.284   3.815 -0.2434 -0.0016  1.0816
19240TIP3    H179135   5.844   4.234   3.812 -0.4246 -0.2851 -2.0385
19240TIP3    H279136   5.785   4.370   3.779 -1.2164  0.0332  0.5087
19241TIP3   OH279137   5.406   2.152   1.014  0.0934 -0.6352  0.0779
19241TIP3    H179138   5.473   2.118   1.073  0.3783  0.7927  0.6271
19241TIP3    H279139   5.327   2.102   1.036  0.4467 -0.8134  0.9926
19242TIP3   OH279140   2.223   5.089  14.382  0.6955 -0.1107 -0.0487
19242TIP3    H179141   2.232   5.027  14.454  2.3726 -1.0124 -0.9550
19242TIP3    H279142   2.162   5.155  14.413  0.3962 -1.1689  1.6956
19243TIP3   OH279143   0.530   0.798  16.121  0.4944  0.2180 -0.5153
19243TIP3    H179144   0.560   0.886  16.098  1.0215  0.3182  0.5300
19243TIP3    H279145   0.564   0.742  16.051 -1.1367  1.0183 -2.0534
19244TIP3   OH279146   5.218   4.025  15.244 -0.2066  0.2929  0.1900
19244TIP3    H179147   5.165   4.058  15.171 -0.6577  0.6292  0.6593
19244TIP3    H279148   5.241   4.103  15.294  0.4131  0.1041  0.2100
19245TIP3   OH279149   4.837   0.127   6.340 -0.3961 -0.6221  0.1402
19245TIP3    H179150   4.833   0.223   6.345  0.7722 -0.5005 -0.8227
19245TIP3    H279151   4.753   0.098   6.375 -0.9856  0.7684 -0.0471
19246TIP3   OH279152   0.623   2.288   5.489  0.1337  0.2844 -0.0923
19246TIP3    H179153   0.588   2.311   5.403 -0.6186 -2.1430 -0.4950
19246TIP3    H279154   0.709   2.250   5.471  0.1598  0.1646  0.2644
19247TIP3   OH279155   4.394   6.778  13.357  0.2525  0.0787  0.0621
19247TIP3    H179156   4.405   6.736  13.442 -0.1600  0.0234  0.0921
19247TIP3    H279157   4.454   6.853  13.358 -0.5077  0.6946  0.8077
19248TIP3   OH279158   2.400   6.018  13.635 -0.3736 -0.0648  0.1248
19248TIP3    H179159   2.411   5.929  13.668 -0.7124 -0.3716 -0.5603
19248TIP3    H279160   2.339   6.009  13.561  1.1506  0.4241 -1.2634
19249TIP3   OH279161   2.066   3.408   0.419  0.2397 -0.8768 -0.7948
19249TIP3    H179162   2.088   3.352   0.493 -0.6606  0.3100  0.4131
19249TIP3    H279163   2.150   3.433   0.382  0.7505 -0.8186  0.3584
19250TIP3   OH279164   4.977   3.881   6.126 -0.0228  0.0908  0.3036
19250TIP3    H179165   4.958   3.787   6.134  3.0009 -0.5725  0.8068
19250TIP3    H279166   5.012   3.906   6.211  1.3189  1.1200 -0.5115
19251TIP3   OH279167   2.310   5.375   4.940  0.0630 -0.5905  0.4815
19251TIP3    H179168   2.277   5.407   4.856  2.4174 -1.0821 -0.7296
19251TIP3    H279169   2.246   5.310   4.969  0.2359 -2.0320 -2.0844
19252TIP3   OH279170   3.111   6.107   0.548  0.4294  0.3559 -0.6649
19252TIP3    H179171   3.171   6.179   0.527 -0.8781  1.6780 -0.0687
19252TIP3    H279172   3.024   6.144   0.534 -0.3266 -0.6316  1.1069
19253TIP3   OH279173   4.246   5.261  12.881  0.4493  0.4444 -0.3860
19253TIP3    H179174   4.170   5.251  12.824  0.1430  0.3903  0.0287
19253TIP3    H279175   4.209   5.280  12.968  0.8912  0.0228 -0.0965
19254TIP3   OH279176   1.444   5.753  11.227 -0.2862 -0.4220 -0.6805
19254TIP3    H179177   1.351   5.762  11.245 -0.8218  1.0482 -3.6384
19254TIP3    H279178   1.451   5.673  11.175 -0.6693  1.5323 -4.0487
19255TIP3   OH279179   5.147   2.822  15.689  0.0709  0.3377  0.0490
19255TIP3    H179180   5.060   2.815  15.728 -0.4428 -0.2483 -1.1496
19255TIP3    H279181   5.143   2.768  15.611  1.5246  0.2937 -0.0329
19256TIP3   OH279182   0.300   1.421   0.069  0.6713  0.8866  0.2773
19256TIP3    H179183   0.248   1.366   0.010 -0.6882  1.6322  0.7281
19256TIP3    H279184   0.283   1.384   0.156 -0.0307  1.8169  0.5502
19257TIP3   OH279185   3.483   0.119  15.635  0.1239 -0.1004  0.3127
19257TIP3    H179186   3.391   0.124  15.608  0.2109  0.6623  0.1401
19257TIP3    H279187   3.504   0.208  15.663  0.8145 -0.2731  0.3471
19258TIP3   OH279188   5.483   5.885  14.033 -0.3986 -0.8315 -0.0945
19258TIP3    H179189   5.564   5.859  13.990 -0.1070  0.5231 -0.4161
19258TIP3    H279190   5.502   5.877  14.126  1.7323  3.5358  0.1269
19259TIP3   OH279191   3.994   5.535   2.480 -0.0772  0.1515  0.2415
19259TIP3    H179192   4.089   5.535   2.465 -0.0608  1.0647  0.2694
19259TIP3    H279193   3.983   5.486   2.562  0.4471  0.6244  0.6038
19260TIP3   OH279194   6.122   3.450   0.957  0.1541 -0.2565 -0.1954
19260TIP3    H179195   6.167   3.463   0.874  1.1106 -0.9615  0.1990
19260TIP3    H279196   6.173   3.383   1.002  0.7056  1.3649  1.7329
19261TIP3   OH279197   4.482   2.783   4.858  0.6263 -0.1924 -0.0344
19261TIP3    H179198   4.541   2.763   4.931  0.7200  0.0264 -0.0497
19261TIP3    H279199   4.484   2.704   4.804 -0.5520 -0.9205  0.9290
19262TIP3   OH279200   4.449   5.678   2.444 -0.2011 -0.5159 -0.0544
19262TIP3    H179201   4.477   5.748   2.502 -0.5242  0.4907 -1.0833
19262TIP3    H279202   4.353   5.677   2.453 -0.3753  0.4775 -1.4445
19263TIP3   OH279203   1.025   1.234   2.126 -0.1293 -0.1220 -0.0580
19263TIP3    H179204   0.998   1.149   2.160 -0.0208 -0.8971 -1.8256
19263TIP3    H279205   0.954   1.260   2.068 -0.1419  0.9959  0.4332
19264TIP3   OH279206   2.740   3.504  10.757  0.1598 -0.0114 -0.3717
19264TIP3    H179207   2.753   3.598  10.770  1.0581 -0.2699  0.7740
19264TIP3    H279208   2.664   3.482  10.811  0.7579 -0.1615  0.4327
19265TIP3   OH279209   2.164   4.364   4.007  0.4704  0.1631  0.3468
19265TIP3    H179210   2.221   4.333   4.077  0.0812  0.9249  1.0268
19265TIP3    H279211   2.110   4.432   4.049 -0.7589 -0.3628 -0.3238
19266TIP3   OH279212   2.664   3.623   2.610  0.0221  0.1984 -0.5919
19266TIP3    H179213   2.594   3.672   2.653 -0.7277 -0.7843 -0.6538
19266TIP3    H279214   2.632   3.610   2.520  0.5175  0.1851 -0.7713
19267TIP3   OH279215   3.075   6.620  15.383  0.2290 -0.1725 -0.7772
19267TIP3    H179216   3.034   6.562  15.448 -1.7330  0.9156 -0.9776
19267TIP3    H279217   3.042   6.707  15.405  0.2936  0.3518 -2.6469
19268TIP3   OH279218   5.016   3.112   1.053 -0.5285  0.2472  0.2289
19268TIP3    H179219   4.942   3.070   1.009  0.1548 -0.5340 -0.1908
19268TIP3    H279220   5.028   3.061   1.134 -0.5037  0.4320  0.3433
19269TIP3   OH279221   0.018   2.949   5.709 -0.2716 -0.0160 -0.0173
19269TIP3    H179222   0.081   2.999   5.657 -0.5075  0.7426  0.4186
19269TIP3    H279223   0.072   2.889   5.761  0.1460  1.0617  0.8216
19270TIP3   OH279224   3.026   5.631   1.646  0.7563 -0.0163  0.2395
19270TIP3    H179225   2.978   5.556   1.681 -0.5605  0.0441 -1.3102
19270TIP3    H279226   3.030   5.692   1.720 -0.7425 -0.4368  0.7169
19271TIP3   OH279227   1.807   0.214  15.606  0.2205  0.3050  0.5328
19271TIP3    H179228   1.799   0.147  15.539 -0.5868  0.7623  0.1607
19271TIP3    H279229   1.900   0.215  15.628  0.1426 -1.4313  1.0720
19272TIP3   OH279230   6.767   6.703   0.065  0.4450 -0.6829  0.0891
19272TIP3    H179231   6.682   6.720   0.106  0.4916  1.7738 -0.7047
19272TIP3    H279232   6.747   6.638  -0.002 -0.6452 -0.7848  0.4758
19273TIP3   OH279233   6.542   5.786   0.150  0.2384 -0.3801 -0.0351
19273TIP3    H179234   6.637   5.787   0.146  0.2080 -0.4594 -1.0300
19273TIP3    H279235   6.516   5.874   0.121  0.0147 -0.3789  0.1729
19274TIP3   OH279236   1.318   0.993  13.904 -0.0968 -0.0037  0.1490
19274TIP3    H179237   1.268   0.933  13.848  0.3524  0.7653 -1.1052
19274TIP3    H279238   1.277   0.983  13.991 -1.2852 -0.6754 -0.4556
19275TIP3   OH279239   1.421   2.428  16.802  0.1736  0.0944 -0.4694
19275TIP3    H179240   1.419   2.521  16.827  1.9412 -0.2770  1.2773
19275TIP3    H279241   1.513   2.410  16.784 -0.2280 -1.2026 -1.3984
19276TIP3   OH279242   6.209   4.653   0.724 -0.1395  0.1355  0.4272
19276TIP3    H179243   6.141   4.679   0.786 -1.3494 -1.7381 -0.0430
19276TIP3    H279244   6.249   4.736   0.697 -2.9925  1.4528 -0.1394
19277TIP3   OH279245   5.951   1.423  15.225 -0.0994  0.0123 -0.2044
19277TIP3    H179246   5.925   1.482  15.295 -1.2148  0.8906 -1.3109
19277TIP3    H279247   6.011   1.361  15.267 -0.5946  0.6038  1.4687
19278TIP3   OH279248   4.033   5.469   3.529  0.2917  0.1994  0.5326
19278TIP3    H179249   4.106   5.408   3.521 -0.6059 -0.7735 -0.6951
19278TIP3    H279250   3.959   5.415   3.556 -0.4827  0.7536 -0.4095
19279TIP3   OH279251   0.807   1.354  11.059 -0.2074  0.2179  0.0089
19279TIP3    H179252   0.897   1.380  11.038  0.3217 -1.3067  0.2046
19279TIP3    H279253   0.754   1.391  10.988  0.7423  0.1605 -0.7618
19280TIP3   OH279254   6.477   1.187  16.432 -0.2822  0.2644 -0.2813
19280TIP3    H179255   6.421   1.110  16.430  3.0511 -2.4085 -0.8804
19280TIP3    H279256   6.516   1.191  16.345  2.2908  0.3336  0.7588
19281TIP3   OH279257   3.124   3.098   5.167  0.7192  0.7660  0.7986
19281TIP3    H179258   3.045   3.045   5.179  0.1638  0.6013 -2.6181
19281TIP3    H279259   3.191   3.053   5.217 -0.8418 -0.2997  2.0357
19282TIP3   OH279260   0.045   1.961   1.514  0.9186 -0.7809 -0.3227
19282TIP3    H179261   0.130   1.919   1.524  1.1798 -0.6312 -1.7562
19282TIP3    H279262   0.002   1.912   1.444  0.7918  0.6569 -1.2894
19283TIP3   OH279263   0.335   5.251  12.794 -0.5861  0.1291 -0.9840
19283TIP3    H179264   0.317   5.338  12.829 -0.5825  0.0230 -0.7115
19283TIP3    H279265   0.292   5.191  12.855 -1.8531 -0.0151 -1.9720
19284TIP3   OH279266   6.629   6.185   3.453  0.6579  0.0975 -0.0618
19284TIP3    H179267   6.706   6.139   3.485  0.1818 -0.7497 -0.0933
19284TIP3    H279268   6.626   6.266   3.503  2.0399  0.5409 -0.6618
19285TIP3   OH279269   3.061   5.687  13.488 -0.2582  0.5238  0.1217
19285TIP3    H179270   3.017   5.704  13.404 -0.8016 -1.1073  0.0351
19285TIP3    H279271   3.143   5.644  13.463 -0.5190 -0.1586  0.4210
19286TIP3   OH279272   6.540   3.563  12.102 -0.0526  0.4425  0.0740
19286TIP3    H179273   6.595   3.600  12.171 -0.9403  0.6455  0.6851
19286TIP3    H279274   6.515   3.477  12.134 -1.4547  1.0052  0.5867
19287TIP3   OH279275   4.273   0.854   3.083 -0.4456 -0.2925 -0.0521
19287TIP3    H179276   4.294   0.932   3.032 -2.0255  1.4400  1.7324
19287TIP3    H279277   4.337   0.854   3.155 -0.0948 -0.9841 -0.3589
19288TIP3   OH279278   1.671   6.351   1.326  0.3509  0.0709  0.7719
19288TIP3    H179279   1.766   6.351   1.340  0.1350  0.9608  2.5133
19288TIP3    H279280   1.650   6.261   1.300  1.8523  0.2396 -1.3000
19289TIP3   OH279281   5.463   6.070  13.837 -0.7709  0.7144 -0.3818
19289TIP3    H179282   5.456   6.005  13.906  0.3135 -0.1863 -1.0910
19289TIP3    H279283   5.401   6.041  13.771  0.7671 -0.5195 -1.3713
19290TIP3   OH279284   3.176   1.954  15.567  0.2172  0.0696 -0.4388
19290TIP3    H179285   3.121   1.967  15.645  1.6223  0.9864  0.4554
19290TIP3    H279286   3.119   1.976  15.493 -0.8479  0.2117  0.4038
19291TIP3   OH279287   0.660   5.881   0.945 -0.9560 -0.4432  0.6747
19291TIP3    H179288   0.684   5.792   0.918  1.0272 -0.3856  2.0855
19291TIP3    H279289   0.643   5.874   1.039  0.2898  0.8374  1.0294
19292TIP3   OH279290   0.910   2.133  12.483 -0.0382 -0.6186  0.0953
19292TIP3    H179291   0.835   2.101  12.433 -0.5984  1.4235 -0.4644
19292TIP3    H279292   0.872   2.186  12.553  0.8331  1.1127 -0.6693
19293TIP3   OH279293   1.082   0.549   2.779 -0.2139 -0.1112  0.4324
19293TIP3    H179294   1.127   0.527   2.860 -0.9992  1.3407  1.3204
19293TIP3    H279295   1.067   0.644   2.786 -2.2899 -0.3374 -0.3648
19294TIP3   OH279296   1.825   3.739  11.518  0.0605 -0.8552 -0.0075
19294TIP3    H179297   1.862   3.804  11.458 -2.5253  0.1821 -0.6204
19294TIP3    H279298   1.889   3.668  11.520  1.6397  0.4527 -1.5775
19295TIP3   OH279299   0.754   3.180  15.067  0.2666  0.3363 -0.0537
19295TIP3    H179300   0.781   3.233  14.992 -1.0084 -1.7610 -2.1272
19295TIP3    H279301   0.704   3.240  15.122  3.9203  2.7712  0.9327
19296TIP3   OH279302   2.778   3.209  16.006  0.5946  0.2089 -0.3109
19296TIP3    H179303   2.850   3.148  16.018 -0.9907 -1.7939 -0.3865
19296TIP3    H279304   2.815   3.295  16.025  2.8348 -0.8021  0.1586
19297TIP3   OH279305   3.903   5.339  13.759  0.2260  0.9628 -0.4642
19297TIP3    H179306   3.815   5.301  13.752  0.3332  0.8393 -1.2905
19297TIP3    H279307   3.888   5.433  13.766  0.0514  1.1880 -2.9201
19298TIP3   OH279308   5.154   0.557   3.241 -0.1494 -0.3409  0.1491
19298TIP3    H179309   5.060   0.563   3.223 -0.2155  1.1155  0.8931
19298TIP3    H279310   5.160   0.503   3.320 -0.2942 -0.9999 -0.2777
19299TIP3   OH279311   3.788   0.365   2.377 -0.6660 -0.0667  0.5052
19299TIP3    H179312   3.753   0.279   2.399 -2.4910  0.5427  0.2435
19299TIP3    H279313   3.730   0.426   2.422 -1.0962  1.0574 -1.4463
19300TIP3   OH279314   1.479   3.868   4.446 -0.0837 -0.1792  0.4579
19300TIP3    H179315   1.544   3.939   4.453 -0.5699  0.2682  0.4723
19300TIP3    H279316   1.413   3.891   4.511 -0.6413 -0.2255 -0.0889
19301TIP3   OH279317   3.171   3.952   6.243  0.1178  0.3263  0.8424
19301TIP3    H179318   3.147   3.867   6.207  0.3231 -0.4708  2.4757
19301TIP3    H279319   3.244   3.981   6.190 -1.9179  1.0154 -1.7802
19302TIP3   OH279320   2.089   2.277   4.145 -0.2555 -0.4685  0.1004
19302TIP3    H179321   2.079   2.189   4.182  2.0209 -0.0570  1.9513
19302TIP3    H279322   2.010   2.290   4.092 -2.4576 -2.2418  2.6510
19303TIP3   OH279323   1.263   2.472  17.118 -0.6432  0.1483  0.6534
19303TIP3    H179324   1.230   2.561  17.130  0.1116  0.5522 -0.1730
19303TIP3    H279325   1.349   2.483  17.078 -1.3793 -0.9726 -1.4019
19304TIP3   OH279326   3.179   0.597  12.539 -0.0853  0.1669 -0.1852
19304TIP3    H179327   3.240   0.628  12.471  0.3851  0.2539  0.2691
19304TIP3    H279328   3.102   0.569  12.491 -0.3532  1.6092 -0.6533
19305TIP3   OH279329   6.073   3.471  13.562 -0.6004 -0.4114 -0.1595
19305TIP3    H179330   5.989   3.478  13.607 -0.1001 -0.1758  0.7645
19305TIP3    H279331   6.065   3.529  13.487 -0.9227  0.3865  0.4699
19306TIP3   OH279332   2.664   0.936  16.624  0.0679  0.5115  0.0100
19306TIP3    H179333   2.648   1.029  16.613  1.3866  0.7176 -0.3706
19306TIP3    H279334   2.731   0.931  16.693 -0.3680 -0.1914  0.4024
19307TIP3   OH279335   4.997   1.041   0.626  0.3991  0.8012 -0.4717
19307TIP3    H179336   5.083   1.035   0.584  0.7392 -0.4990  0.3515
19307TIP3    H279337   4.997   1.127   0.668  1.7147  0.4225  0.3630
19308TIP3   OH279338   5.716   2.191   2.048  0.1937 -0.3959 -0.1606
19308TIP3    H179339   5.700   2.279   2.016  0.9691 -0.9892 -2.3986
19308TIP3    H279340   5.808   2.191   2.074  0.0340 -0.3955  0.4145
19309TIP3   OH279341   1.866   3.451   5.266  0.3683 -0.5400  0.1601
19309TIP3    H179342   1.919   3.470   5.189 -0.3838 -1.5604 -0.6311
19309TIP3    H279343   1.783   3.420   5.231 -0.7091  0.8126  1.3590
19310TIP3   OH279344   3.221   0.138   2.715  0.2016  0.6462  0.7643
19310TIP3    H179345   3.290   0.201   2.694  1.5548 -1.0785 -0.1592
19310TIP3    H279346   3.151   0.156   2.652  1.4824 -0.1471 -0.9455
19311TIP3   OH279347   0.208   2.800   5.816  0.5063  0.2762 -0.6918
19311TIP3    H179348   0.216   2.704   5.822  0.4897  0.3156  0.0994
19311TIP3    H279349   0.257   2.832   5.891 -0.6926  0.8252 -0.1281
19312TIP3   OH279350   3.290   2.492   0.082 -0.2834  1.1393 -0.5996
19312TIP3    H179351   3.300   2.435   0.006  1.2734 -0.9763  1.0791
19312TIP3    H279352   3.201   2.475   0.112 -0.3336  0.6978 -0.9756
19313TIP3   OH279353   6.437   5.479   1.121 -0.4492  0.2126 -0.6074
19313TIP3    H179354   6.373   5.537   1.079 -0.5739  0.8239  0.4059
19313TIP3    H279355   6.464   5.525   1.200 -0.8938 -1.3057  0.4780
19314TIP3   OH279356   4.370   5.235  15.935  0.4616 -0.1070 -0.4911
19314TIP3    H179357   4.322   5.207  16.013  2.2067 -1.6463  0.1242
19314TIP3    H279358   4.406   5.320  15.958  1.7440 -0.9451  0.8261
19315TIP3   OH279359   0.635   2.741  11.124  0.4812 -0.1982 -0.2286
19315TIP3    H179360   0.665   2.828  11.151  0.8424  0.3660 -2.2817
19315TIP3    H279361   0.586   2.756  11.044  1.5001 -1.9898 -1.2558
19316TIP3   OH279362   4.854   3.507   3.225  0.0687 -0.3090 -0.3138
19316TIP3    H179363   4.855   3.576   3.290 -0.3948 -0.4663 -0.1334
19316TIP3    H279364   4.814   3.547   3.148  0.8634 -0.0452 -0.5960
19317TIP3   OH279365   3.274   5.183  15.657 -0.2551 -0.1202  0.0201
19317TIP3    H179366   3.318   5.099  15.667  1.5590  0.6761 -0.8618
19317TIP3    H279367   3.215   5.171  15.583  1.1852 -0.1841 -1.1449
19318TIP3   OH279368   4.001   6.681   3.106 -0.0328 -0.0787 -0.4029
19318TIP3    H179369   3.991   6.774   3.127  0.9149 -0.1925  0.7048
19318TIP3    H279370   4.096   6.668   3.098 -0.2011 -0.7568 -1.5580
19319TIP3   OH279371   2.713   3.529   1.304  0.6542 -0.2798 -0.2257
19319TIP3    H179372   2.807   3.524   1.287  0.5966 -0.1786 -0.5723
19319TIP3    H279373   2.695   3.454   1.361  0.6730 -1.2273 -1.4155
19320TIP3   OH279374   5.117   2.287  13.115  0.7279 -0.2271  0.0504
19320TIP3    H179375   5.083   2.213  13.165  0.0049  0.9852  1.4289
19320TIP3    H279376   5.212   2.286  13.131  0.6937 -0.6922  0.2400
19321TIP3   OH279377   4.665   2.573  11.866 -0.2362  0.1271  0.1414
19321TIP3    H179378   4.653   2.497  11.923  1.3453  0.0496  0.4113
19321TIP3    H279379   4.742   2.552  11.813 -0.1586  1.2637 -0.2366
19322TIP3   OH279380   2.563   4.188  11.783  0.4647 -0.1170  1.2891
19322TIP3    H179381   2.588   4.096  11.773 -0.7242 -0.4210  1.0102
19322TIP3    H279382   2.469   4.186  11.796  0.6665  0.9161  3.3147
19323TIP3   OH279383   3.753   5.701   0.666  0.1546  0.1992 -0.0112
19323TIP3    H179384   3.708   5.785   0.654 -2.1235 -0.9470  0.0263
19323TIP3    H279385   3.795   5.709   0.752 -0.8671  0.9606  0.4425
19324TIP3   OH279386   4.663   2.839  11.040 -0.0481 -0.1434 -0.1973
19324TIP3    H179387   4.587   2.806  10.992  0.2079  1.1781 -1.5812
19324TIP3    H279388   4.726   2.864  10.972  0.8885  0.4930  0.8654
19325TIP3   OH279389   6.730   0.597   3.241 -0.1012 -0.3544  0.0428
19325TIP3    H179390   6.737   0.658   3.167 -0.2568 -0.9329 -0.4500
19325TIP3    H279391   6.723   0.655   3.318 -0.2793  0.2538 -0.4191
19326TIP3   OH279392   2.326   4.947   3.262 -0.3559  0.3659 -0.5291
19326TIP3    H179393   2.307   5.036   3.291  1.2705  0.0742  1.6982
19326TIP3    H279394   2.338   4.954   3.167 -1.0080  2.3481 -0.4956
19327TIP3   OH279395   0.773   3.074   3.166 -0.3499 -0.0977 -0.2378
19327TIP3    H179396   0.756   3.059   3.259 -0.1845  1.2241  0.0219
19327TIP3    H279397   0.856   3.030   3.149  0.4390  1.0032  0.6445
19328TIP3   OH279398   3.041   2.455  14.423  0.4152  1.1394  0.1119
19328TIP3    H179399   3.036   2.471  14.517 -2.3876  0.3004  0.2044
19328TIP3    H279400   2.955   2.420  14.400  0.5890  2.3912 -2.9776
19329TIP3   OH279401   5.710   0.731  16.122 -0.1350 -0.3405  0.0820
19329TIP3    H179402   5.622   0.731  16.159 -0.1560 -0.9902  0.0555
19329TIP3    H279403   5.721   0.641  16.089  0.8181 -0.4762  0.7610
19330TIP3   OH279404   0.026   5.036   2.655  0.2858 -0.5618 -0.8947
19330TIP3    H179405   0.049   5.115   2.703 -0.1863 -0.4666 -0.8236
19330TIP3    H279406  -0.064   5.050   2.627  0.5990 -0.5561 -1.9396
19331TIP3   OH279407   1.005   3.851   2.629  0.0659 -0.2547 -0.1633
19331TIP3    H179408   1.006   3.756   2.640 -1.1692 -0.0332  2.7495
19331TIP3    H279409   1.096   3.874   2.608  0.6030 -1.9914  0.1369
19332TIP3   OH279410   4.456   2.556  12.223  0.0963  0.2816 -0.4191
19332TIP3    H179411   4.524   2.510  12.173  2.8047 -1.2750  4.1336
19332TIP3    H279412   4.408   2.488  12.268  0.2713  1.6262  1.9432
19333TIP3   OH279413   5.072   2.988   0.799  0.3330  0.0412  0.2583
19333TIP3    H179414   5.042   3.076   0.776  1.4508 -0.0056 -1.5475
19333TIP3    H279415   5.148   3.003   0.855  0.5965  0.2226 -0.1481
19334TIP3   OH279416   3.057   4.954  16.537  0.1539  0.0194 -0.1561
19334TIP3    H179417   3.069   4.861  16.520  1.2901  0.1378 -0.0907
19334TIP3    H279418   3.057   4.994  16.450 -4.2254 -0.3790 -0.5357
19335TIP3   OH279419   3.796   1.134   5.984  0.1995  0.3999 -0.6202
19335TIP3    H179420   3.863   1.090   5.932  0.4251 -1.0843  0.8609
19335TIP3    H279421   3.759   1.065   6.040 -1.5357  1.4878 -0.3448
19336TIP3   OH279422   6.319   6.221   2.296 -0.2796  0.3485  0.1130
19336TIP3    H179423   6.276   6.239   2.379  0.2754 -0.1609  0.5180
19336TIP3    H279424   6.394   6.281   2.294 -0.4884  0.5993 -0.1726
19337TIP3   OH279425   3.731   5.332  15.932  0.1234  0.1219 -0.0518
19337TIP3    H179426   3.663   5.265  15.937  0.2717 -0.0577 -0.4100
19337TIP3    H279427   3.691   5.403  15.881  0.1763  0.0514 -0.1908
19338TIP3   OH279428   6.227   1.986  14.524  0.0722 -0.3561 -0.2617
19338TIP3    H179429   6.216   2.063  14.468  0.2279 -1.1404 -1.4039
19338TIP3    H279430   6.163   1.998  14.595  0.1955  0.8815 -0.3416
19339TIP3   OH279431   3.826   6.138   2.084 -0.6902 -0.3087 -0.3272
19339TIP3    H179432   3.788   6.108   2.002 -0.7619 -1.4734  0.1036
19339TIP3    H279433   3.915   6.103   2.084 -0.4213  0.3611 -0.2576
19340TIP3   OH279434   5.573   3.111   4.708  0.1031 -0.3774  0.1709
19340TIP3    H179435   5.666   3.131   4.710 -0.4028  2.5224 -1.1815
19340TIP3    H279436   5.569   3.018   4.732  3.4143 -0.9816 -1.0523
19341TIP3   OH279437   6.745   2.014  14.291 -0.3041  0.7054  0.5629
19341TIP3    H179438   6.654   2.040  14.305 -0.4605  0.1721  0.5413
19341TIP3    H279439   6.740   1.942  14.228 -0.1677 -1.6646  3.0526
19342TIP3   OH279440   5.940   2.831  15.644 -0.1231  0.7736 -0.5955
19342TIP3    H179441   5.867   2.774  15.668 -0.8199  2.1637  0.7288
19342TIP3    H279442   6.011   2.770  15.623 -1.5708 -0.6160 -1.7762
19343TIP3   OH279443   1.535   0.087  14.775 -0.3873 -0.1939 -0.1076
19343TIP3    H179444   1.560   0.108  14.685  1.0634  1.1240  0.5524
19343TIP3    H279445   1.513  -0.006  14.773  2.9768 -1.1081 -1.1748
19344TIP3   OH279446   3.919   2.995   0.608 -0.0951 -0.2995  0.5459
19344TIP3    H179447   3.872   3.052   0.668  0.0026 -0.5798  0.8886
19344TIP3    H279448   3.853   2.965   0.546 -0.2298 -0.1569  0.6191
19345TIP3   OH279449   0.513   5.572   1.158 -0.2834  0.3983 -0.1329
19345TIP3    H179450   0.531   5.573   1.252 -1.6630 -0.7305  0.1680
19345TIP3    H279451   0.432   5.522   1.149 -0.6506  1.2189 -1.8526
19346TIP3   OH279452   0.331   2.570   6.242  0.0043 -0.3757  0.0740
19346TIP3    H179453   0.270   2.568   6.316  1.9730 -0.4953  1.8174
19346TIP3    H279454   0.418   2.565   6.283  1.1976 -0.4273 -2.2767
19347TIP3   OH279455   3.018   0.558   4.521 -0.5253  0.8872 -0.5124
19347TIP3    H179456   3.102   0.594   4.550 -0.5677  1.7240 -1.3614
19347TIP3    H279457   3.002   0.484   4.579  0.5545  1.0251 -0.0132
19348TIP3   OH279458   6.098   5.032  13.912 -0.2745 -0.1469  0.5734
19348TIP3    H179459   6.057   4.951  13.880 -1.0115 -0.0207  1.1806
19348TIP3    H279460   6.064   5.043  14.001 -1.9224  1.9994 -0.2515
19349TIP3   OH279461   1.500   3.244   0.429  0.2545  0.0510  0.0808
19349TIP3    H179462   1.436   3.302   0.387 -0.5935 -0.5447  0.5132
19349TIP3    H279463   1.585   3.273   0.394 -0.2279  0.9443 -0.4067
19350TIP3   OH279464   2.921   4.261  16.248  0.2777  0.1085 -0.4689
19350TIP3    H179465   2.990   4.266  16.314  1.9000  0.1091 -2.0860
19350TIP3    H279466   2.913   4.351  16.215 -3.0125  0.9470  1.9967
19351TIP3   OH279467   4.848   1.421  16.309  0.2958  0.6310  0.4870
19351TIP3    H179468   4.855   1.511  16.340 -0.4580  0.2389  1.9474
19351TIP3    H279469   4.753   1.404  16.307  0.4378 -0.3114  0.9055
19352TIP3   OH279470   3.904   2.888   6.603  0.0606  0.6528  0.3760
19352TIP3    H179471   3.931   2.910   6.514  0.3660 -1.5883 -0.1350
19352TIP3    H279472   3.972   2.927   6.659  0.1131  1.6738 -0.3709
19353TIP3   OH279473   3.254   6.550   5.567 -0.1390 -0.4603 -0.3417
19353TIP3    H179474   3.343   6.577   5.543 -0.9385  1.8391 -0.9940
19353TIP3    H279475   3.265   6.466   5.611  2.4929  0.3991  0.8149
19354TIP3   OH279476   2.066   0.884   3.501 -0.0330  0.1608 -0.1670
19354TIP3    H179477   2.042   0.834   3.580 -1.4848 -1.9494 -1.8216
19354TIP3    H279478   2.161   0.897   3.509  0.2345 -1.9963  0.8639
19355TIP3   OH279479   3.638   4.110  12.425  0.1042 -0.8657  0.3581
19355TIP3    H179480   3.692   4.034  12.406  0.8218 -0.4150  0.5481
19355TIP3    H279481   3.657   4.131  12.517  0.9384  0.3404 -0.0674
19356TIP3   OH279482   5.796   1.468   4.783  0.2203  0.3347 -0.5766
19356TIP3    H179483   5.779   1.553   4.822 -3.1262  0.2467 -1.5703
19356TIP3    H279484   5.874   1.435   4.829 -0.1262  2.6402  1.8638
19357TIP3   OH279485   6.334   4.357   5.540 -0.0649  0.3672 -0.2495
19357TIP3    H179486   6.390   4.425   5.577 -0.2861  1.0538 -1.1492
19357TIP3    H279487   6.394   4.287   5.515  0.0960 -0.1072  1.3373
19358TIP3   OH279488   3.343   2.773  14.216 -0.2901  0.0070 -0.1674
19358TIP3    H179489   3.402   2.833  14.262 -1.5691  2.1471 -1.1460
19358TIP3    H279490   3.262   2.777  14.265 -0.2891 -1.2620 -0.0373
19359TIP3   OH279491   5.815   2.793   2.384  0.1840 -0.2820  0.7470
19359TIP3    H179492   5.736   2.834   2.419 -0.1774  0.3546 -0.7310
19359TIP3    H279493   5.880   2.863   2.383  0.3065 -0.3975  0.5189
19360TIP3   OH279494   4.412   2.537   1.196  0.5139  0.3848  0.3195
19360TIP3    H179495   4.490   2.591   1.209 -0.2274  1.8414 -0.8639
19360TIP3    H279496   4.434   2.478   1.124  0.1112  1.7676 -0.9906
19361TIP3   OH279497   5.555   2.412   5.266  0.1028  0.0193 -0.0053
19361TIP3    H179498   5.556   2.505   5.243 -1.6660  0.3201  0.9659
19361TIP3    H279499   5.536   2.367   5.184  1.0273  0.4873 -0.4960
19362TIP3   OH279500   4.218   2.774   1.305  0.3518  0.1597 -0.9150
19362TIP3    H179501   4.246   2.705   1.246 -0.0763  1.4247 -2.6863
19362TIP3    H279502   4.122   2.766   1.308  0.2291  1.0313 -1.6840
19363TIP3   OH279503   2.732   1.725  16.937 -0.7647 -0.2483  0.1524
19363TIP3    H179504   2.824   1.734  16.962 -0.5882 -1.6379  0.1148
19363TIP3    H279505   2.688   1.693  17.016 -1.3376  0.9218  0.3257
19364TIP3   OH279506   4.012   2.738   1.887 -0.9392 -0.6512  0.2180
19364TIP3    H179507   3.920   2.710   1.891 -0.8605 -0.8628  0.5619
19364TIP3    H279508   4.054   2.672   1.833 -0.7037 -1.3543  1.2315
19365TIP3   OH279509   5.862   0.649   0.831 -0.6598 -0.4672  0.0146
19365TIP3    H179510   5.908   0.683   0.754 -0.0621 -0.1335  0.5033
19365TIP3    H279511   5.913   0.572   0.858 -0.7455 -0.4626  0.1921
19366TIP3   OH279512   4.542   5.539  16.323 -0.0867 -0.0451 -0.2646
19366TIP3    H179513   4.547   5.629  16.291 -1.0622  0.1823  0.1947
19366TIP3    H279514   4.630   5.520  16.355  0.1245  0.7483 -0.3590
19367TIP3   OH279515   5.200   5.258  13.126 -0.8515 -0.4124  0.0261
19367TIP3    H179516   5.281   5.262  13.076 -1.3486 -0.9556 -0.8476
19367TIP3    H279517   5.183   5.164  13.138 -1.3281 -0.3058  0.2335
19368TIP3   OH279518   0.934   2.286   5.358 -0.1056 -0.3938 -0.4502
19368TIP3    H179519   1.008   2.325   5.312  0.9097 -1.2759  0.3864
19368TIP3    H279520   0.929   2.334   5.441 -1.7011  0.9455 -1.2446
19369TIP3   OH279521   3.499   3.122   0.956  0.0158 -0.0743  0.4897
19369TIP3    H179522   3.430   3.057   0.971 -0.7038 -0.0295 -2.1015
19369TIP3    H279523   3.568   3.099   1.018 -1.4560 -1.4230  1.7136
19370TIP3   OH279524   5.124   3.894   3.552  0.5947  0.1127 -0.2539
19370TIP3    H179525   5.186   3.914   3.481  0.7002  0.0258 -0.1864
19370TIP3    H279526   5.121   3.975   3.604  0.4886  0.1888 -0.3788
19371TIP3   OH279527   4.129   5.851  12.322 -0.2197 -0.8167 -0.0558
19371TIP3    H179528   4.086   5.789  12.263  0.2726 -1.3543  0.1372
19371TIP3    H279529   4.216   5.864  12.285 -0.2078 -0.4835  0.0820
19372TIP3   OH279530   3.675   1.331  14.745  0.6468  0.1166  0.5280
19372TIP3    H179531   3.667   1.320  14.651  1.9462  0.2670  0.3806
19372TIP3    H279532   3.604   1.391  14.769  0.3578  0.1376 -0.3568
19373TIP3   OH279533   3.541   5.699   0.266  0.5281 -0.6341  0.4664
19373TIP3    H179534   3.601   5.664   0.332  0.0186  1.6688  2.2777
19373TIP3    H279535   3.548   5.794   0.275 -0.2396 -0.2292 -2.2541
19374TIP3   OH279536   5.974   1.049  16.041 -0.5805  0.1048  0.2455
19374TIP3    H179537   5.987   0.972  16.096  0.1599 -0.5056 -0.7345
19374TIP3    H279538   5.888   1.035  16.001 -0.8375  0.2341  0.7464
19375TIP3   OH279539   3.694   4.567   1.316  0.4216 -0.0725 -0.7410
19375TIP3    H179540   3.610   4.521   1.307  0.7164 -0.7988  0.0965
19375TIP3    H279541   3.687   4.642   1.257  0.3913 -1.8505 -3.1404
19376TIP3   OH279542   6.423   5.195   3.449 -0.1211 -0.3614  0.3872
19376TIP3    H179543   6.366   5.177   3.374  1.2060 -2.0560 -0.2922
19376TIP3    H279544   6.468   5.112   3.465  0.9376  0.4620  1.9447
19377TIP3   OH279545   4.394   0.807  11.146 -0.5503  0.5539 -0.7301
19377TIP3    H179546   4.421   0.829  11.235 -1.0469 -0.0303 -0.4265
19377TIP3    H279547   4.473   0.774  11.105 -0.4506  0.2678 -0.3165
19378TIP3   OH279548   0.337   3.965  11.723  0.3662 -0.0242  0.7007
19378TIP3    H179549   0.254   3.963  11.770 -0.2507  2.6446 -0.1142
19378TIP3    H279550   0.359   3.873  11.709 -2.0291 -0.8133  1.6176
19379TIP3   OH279551   0.987   2.250  14.525 -0.6494 -0.5270  0.2056
19379TIP3    H179552   1.051   2.309  14.486 -1.3223  0.5028  0.5916
19379TIP3    H279553   1.029   2.164  14.525  0.4474 -0.0043 -0.1680
19380TIP3   OH279554   0.548   6.007  13.621  0.3595 -0.3589  0.2162
19380TIP3    H179555   0.548   6.102  13.622 -0.2264 -0.3270 -0.7200
19380TIP3    H279556   0.571   5.984  13.531  0.9371 -1.1131  0.5438
19381TIP3   OH279557   5.212   4.382  16.018 -0.2566  0.0314  0.6534
19381TIP3    H179558   5.228   4.471  16.047  0.6551  0.2417 -0.3917
19381TIP3    H279559   5.136   4.353  16.067 -0.7028  1.4613  0.8433
19382TIP3   OH279560   5.314   4.317   0.361  0.2145  0.4946 -0.3750
19382TIP3    H179561   5.380   4.313   0.430  0.6127 -1.8494 -0.8202
19382TIP3    H279562   5.280   4.228   0.354  0.0984  0.6525 -3.0981
19383TIP3   OH279563   3.969   0.736   5.127  0.2600 -0.5188 -0.4764
19383TIP3    H179564   3.957   0.827   5.101 -1.8118 -0.9661 -1.2645
19383TIP3    H279565   4.064   0.723   5.124  0.6592  1.7724  0.3326
19384TIP3   OH279566   2.759   5.206  16.681  0.0919 -0.1506  0.2767
19384TIP3    H179567   2.670   5.204  16.645  0.3871 -1.5698 -0.4635
19384TIP3    H279568   2.752   5.259  16.760 -1.5325 -0.7029  0.5391
19385TIP3   OH279569   1.577   6.265  16.557  0.1415 -0.1466 -0.1209
19385TIP3    H179570   1.653   6.220  16.522  0.8231  1.0971 -0.2936
19385TIP3    H279571   1.570   6.234  16.648  1.2539  0.1958  0.0996
19386TIP3   OH279572   3.893   5.626  13.764 -0.4135 -0.1837 -0.1761
19386TIP3    H179573   3.960   5.636  13.696 -0.0450  1.0093  0.3258
19386TIP3    H279574   3.940   5.640  13.846 -1.2911  0.8550  0.1795
19387TIP3   OH279575   5.278   5.405   1.833  0.1962 -0.4352  0.6178
19387TIP3    H179576   5.302   5.489   1.793  0.1252 -1.0480 -0.7789
19387TIP3    H279577   5.195   5.423   1.878 -0.9105 -0.1695 -1.3679
19388TIP3   OH279578   3.131   4.713   4.293  0.3853 -0.2251 -0.6288
19388TIP3    H179579   3.124   4.697   4.199 -1.1229  0.0220 -0.5783
19388TIP3    H279580   3.078   4.644   4.333  0.7562 -0.1347  0.0251
19389TIP3   OH279581   1.343   5.346   2.931 -0.2699 -0.8113 -0.2950
19389TIP3    H179582   1.319   5.331   2.840  0.0710  0.5208 -0.6262
19389TIP3    H279583   1.330   5.440   2.944  1.3662 -0.6624  0.5072
19390TIP3   OH279584   0.004   4.593   0.048  0.3834 -0.0628 -0.2734
19390TIP3    H179585   0.082   4.615   0.099  0.1562 -2.0678  1.0849
19390TIP3    H279586   0.035   4.590  -0.042  1.1088  2.2642 -0.1668
19391TIP3   OH279587   2.968   1.456  15.447 -0.6344 -0.0056 -0.5128
19391TIP3    H179588   3.030   1.440  15.518 -0.6828  2.8639  0.2614
19391TIP3    H279589   2.888   1.410  15.473 -0.4547  0.5100  1.0109
19392TIP3   OH279590   5.490   6.062  16.636 -0.6516 -0.5711  0.6091
19392TIP3    H179591   5.409   6.011  16.644 -1.0400  0.1931  1.6867
19392TIP3    H279592   5.555   5.998  16.606 -1.3074 -1.5309  1.1748
19393TIP3   OH279593   6.645   1.059   2.647  0.1323 -0.2151  0.0185
19393TIP3    H179594   6.581   1.007   2.696 -0.2376  0.3717  0.1559
19393TIP3    H279595   6.593   1.114   2.589  0.3447  2.1173  1.9032
19394TIP3   OH279596   2.305   5.760  17.091 -0.3029  0.5319 -0.0839
19394TIP3    H179597   2.364   5.714  17.030 -0.1494  1.3675 -0.5732
19394TIP3    H279598   2.218   5.725  17.070 -0.2393  0.7265 -0.7197
19395TIP3   OH279599   4.119   4.496  11.808 -0.0298  0.2824 -0.0651
19395TIP3    H179600   4.076   4.522  11.727 -0.9782  0.3273  0.4344
19395TIP3    H279601   4.114   4.574  11.864  0.0180  0.0514  0.2686
19396TIP3   OH279602   6.248   0.478   0.242  0.0899  0.2461  0.8761
19396TIP3    H179603   6.179   0.462   0.306  0.9695 -0.8173  1.5978
19396TIP3    H279604   6.317   0.523   0.291  0.7697 -0.5759  0.6976
19397TIP3   OH279605   0.165   0.404  14.076  0.1040 -0.2790  0.1674
19397TIP3    H179606   0.197   0.437  14.160 -0.1255  0.2930  0.0304
19397TIP3    H279607   0.110   0.330  14.100  0.6938 -0.6342  0.4674
19398TIP3   OH279608   6.453   4.436   2.890  0.1414  0.0993 -0.0061
19398TIP3    H179609   6.482   4.490   2.964  1.2295 -1.6828  0.9407
19398TIP3    H279610   6.484   4.483   2.813 -1.9695  2.5757  0.5149
19399TIP3   OH279611   5.405   5.691   0.794  0.2674  0.3775 -0.1314
19399TIP3    H179612   5.336   5.737   0.841  0.3480 -1.1519  1.5862
19399TIP3    H279613   5.419   5.743   0.715 -2.3019  1.1478 -0.1637
19400TIP3   OH279614   5.803   0.682   3.944 -0.5395 -0.0708  0.1639
19400TIP3    H179615   5.822   0.641   3.859 -1.5062 -0.7691  0.2701
19400TIP3    H279616   5.819   0.613   4.008 -2.1691 -0.3180  0.3466
19401TIP3   OH279617   0.274   4.183  15.572 -0.2986  0.1328  0.0889
19401TIP3    H179618   0.361   4.197  15.608 -0.7810  1.3030  0.8496
19401TIP3    H279619   0.235   4.117  15.629 -0.6030  1.0564  0.9806
19402TIP3   OH279620   1.532   0.787  10.647 -0.8473  0.0360  0.4023
19402TIP3    H179621   1.471   0.849  10.687 -0.7446 -0.2242  0.9829
19402TIP3    H279622   1.478   0.710  10.629 -0.6165 -0.3522  1.3056
19403TIP3   OH279623   5.517   2.438  15.624  0.4017 -0.0771  0.1428
19403TIP3    H179624   5.527   2.504  15.556 -2.4965 -0.5601 -0.8672
19403TIP3    H279625   5.478   2.363  15.580 -1.7026 -0.3688  2.2815
19404TIP3   OH279626   1.915   3.829  14.232  0.6005  0.0355  0.3866
19404TIP3    H179627   1.893   3.791  14.147  0.2523  2.5680 -0.7562
19404TIP3    H279628   1.842   3.805  14.289  0.5143 -1.1469 -0.1906
19405TIP3   OH279629   0.946   3.462  11.910 -0.2077 -0.4385 -0.4177
19405TIP3    H179630   0.995   3.485  11.989 -2.4049  1.5678  0.4981
19405TIP3    H279631   0.991   3.386  11.875  2.0847 -0.1477  1.6208
19406TIP3   OH279632   6.245   3.678  14.369  0.0278  0.4631 -0.1369
19406TIP3    H179633   6.257   3.624  14.291  1.9092  0.2015  0.2785
19406TIP3    H279634   6.242   3.614  14.441 -4.7056  0.3904 -0.0524
19407TIP3   OH279635   1.643   4.910   2.323  0.2002 -0.1249  0.3432
19407TIP3    H179636   1.725   4.960   2.319 -0.7909  1.5353 -0.4129
19407TIP3    H279637   1.651   4.845   2.254  0.6615  0.4093 -0.1141
19408TIP3   OH279638   1.628   3.964  15.799  0.0609 -0.9229  0.5085
19408TIP3    H179639   1.636   4.054  15.830 -0.1958 -0.5975 -0.3387
19408TIP3    H279640   1.658   3.911  15.873  0.1064 -0.1547  1.0609
19409TIP3   OH279641   6.345   0.951  12.874 -0.1972  0.0214 -0.2369
19409TIP3    H179642   6.434   0.927  12.845  0.2978  0.0500  1.2041
19409TIP3    H279643   6.321   0.882  12.936 -1.2695 -0.0773 -0.7455
19410TIP3   OH279644   5.804   4.745   4.071  0.0152 -0.3250 -0.0666
19410TIP3    H179645   5.760   4.810   4.016 -0.8941  1.1905  2.2784
19410TIP3    H279646   5.895   4.774   4.074 -0.4238  1.0777  1.1389
19411TIP3   OH279647   3.998   6.422  15.093  0.5928  0.1509  0.5029
19411TIP3    H179648   4.008   6.409  15.187 -0.4144 -0.4580  0.5408
19411TIP3    H279649   4.063   6.363  15.054 -0.1336 -0.8905  0.8017
19412TIP3   OH279650   6.498   0.397  11.814 -0.4002 -0.3478  0.3111
19412TIP3    H179651   6.484   0.375  11.906 -0.4402  1.4319  0.7524
19412TIP3    H279652   6.456   0.325  11.766 -1.7997 -0.4913  1.6751
19413TIP3   OH279653   5.678   2.269   3.650  0.1443  0.2422 -0.4326
19413TIP3    H179654   5.704   2.326   3.578  1.6609 -0.1252 -0.2062
19413TIP3    H279655   5.633   2.326   3.712  0.8028  0.9961 -0.6442
19414TIP3   OH279656   3.668   0.256  15.791 -0.0638 -0.2553 -0.6137
19414TIP3    H179657   3.712   0.171  15.781  0.5096  0.2160 -2.6211
19414TIP3    H279658   3.736   0.314  15.826 -0.2244 -0.4098 -0.0275
19415TIP3   OH279659   0.581   5.942  14.927 -0.1814 -0.2918  0.2121
19415TIP3    H179660   0.635   5.946  15.006  0.1945  1.7513 -0.0799
19415TIP3    H279661   0.625   5.879  14.870  1.0113  0.1510  0.6174
19416TIP3   OH279662   3.454   4.200   3.116  0.9960 -0.7759 -0.0554
19416TIP3    H179663   3.491   4.193   3.028  1.6504 -2.6174  0.3338
19416TIP3    H279664   3.528   4.188   3.175  0.4732 -0.1175  0.7563
19417TIP3   OH279665   6.731   6.534  11.834 -0.8836 -0.5333 -0.2151
19417TIP3    H179666   6.731   6.530  11.738 -0.2890 -0.3151 -0.2312
19417TIP3    H279667   6.724   6.627  11.854 -1.4531 -0.6100 -0.0364
19418TIP3   OH279668   2.176   3.930  14.118 -0.7300  0.2552  0.2150
19418TIP3    H179669   2.101   3.893  14.071 -0.0381  0.4866 -1.1173
19418TIP3    H279670   2.236   3.857  14.129 -1.1287  0.0747  1.2655
19419TIP3   OH279671   2.385   0.621  16.692  0.1387 -0.1320 -0.6051
19419TIP3    H179672   2.429   0.585  16.769 -1.6929  1.2241  1.1761
19419TIP3    H279673   2.370   0.713  16.713 -2.1185 -0.1590 -1.7519
19420TIP3   OH279674   1.481   6.574   1.889  0.0080 -0.3630  0.0885
19420TIP3    H179675   1.549   6.550   1.826 -0.1878 -2.2541  0.5450
19420TIP3    H279676   1.529   6.597   1.969  0.3004  2.6919 -0.8215
19421TIP3   OH279677   2.699   2.668  14.907  0.2879 -0.6219  0.4614
19421TIP3    H179678   2.630   2.641  14.846 -0.1032  0.8620  0.1988
19421TIP3    H279679   2.652   2.694  14.986  0.6274 -0.5584  0.6406
19422TIP3   OH279680   0.548   1.397   3.172  0.6958 -0.1295  0.2377
19422TIP3    H179681   0.601   1.372   3.096 -0.6160  1.0894 -1.1153
19422TIP3    H279682   0.534   1.314   3.218 -0.3866 -1.3500 -2.0921
19423TIP3   OH279683   2.527   1.343  12.943  0.3797  0.2319 -0.0918
19423TIP3    H179684   2.570   1.386  13.018  1.1357  0.4469 -0.6317
19423TIP3    H279685   2.434   1.348  12.963  0.5988 -0.2077  1.0976
19424TIP3   OH279686   4.886   6.362  11.756  0.2210  0.5856 -0.1525
19424TIP3    H179687   4.910   6.311  11.834  0.3750  1.0611  0.1140
19424TIP3    H279688   4.964   6.358  11.700  0.4717  1.0682  0.1557
19425TIP3   OH279689   5.497   5.203  11.364 -0.2661  0.5013  0.1816
19425TIP3    H179690   5.515   5.176  11.274  0.0304 -0.0580  0.4022
19425TIP3    H279691   5.514   5.125  11.417  2.0607  1.4766  1.0097
19426TIP3   OH279692   5.523   1.873   1.827 -0.8101 -0.3989  0.0573
19426TIP3    H179693   5.429   1.866   1.842 -0.8260 -0.5206 -0.0990
19426TIP3    H279694   5.534   1.954   1.776 -1.0206 -1.3084 -1.5102
19427TIP3   OH279695   6.524   1.794  11.453 -0.1237  0.0737 -0.0599
19427TIP3    H179696   6.561   1.879  11.428  0.8997 -0.8596 -1.9714
19427TIP3    H279697   6.594   1.751  11.501  0.4028 -0.7086 -1.4708
19428TIP3   OH279698   1.240   1.009   5.800 -0.8776  0.2224 -0.0979
19428TIP3    H179699   1.189   0.982   5.723  1.6220 -3.4715 -0.7299
19428TIP3    H279700   1.322   1.042   5.764  0.1617 -1.1632  0.9094
19429TIP3   OH279701   6.150   1.579   4.185 -0.5827  0.1087 -0.4759
19429TIP3    H179702   6.180   1.657   4.138  3.9979 -1.5024 -0.6773
19429TIP3    H279703   6.177   1.594   4.276  0.8006 -1.3163 -0.6078
19430TIP3   OH279704   0.975   1.229   3.507  0.3643  0.1422 -0.0746
19430TIP3    H179705   1.045   1.224   3.573  0.2418 -3.7655  0.0330
19430TIP3    H279706   1.012   1.281   3.436  1.6925  1.7913  1.7095
19431TIP3   OH279707   1.509   3.952  16.625 -0.5038 -0.1256 -0.4019
19431TIP3    H179708   1.589   3.995  16.595 -0.9207  0.0035 -1.3635
19431TIP3    H279709   1.530   3.859  16.627 -0.7418 -0.2527 -2.0959
19432TIP3   OH279710   4.779   4.679  14.850 -0.2675 -0.5020  0.3238
19432TIP3    H179711   4.733   4.604  14.812 -1.2273  0.4812 -0.5131
19432TIP3    H279712   4.837   4.710  14.780 -1.4205  0.7972 -0.0901
19433TIP3   OH279713   2.783   0.893  12.835  0.2296  0.1413 -0.3440
19433TIP3    H179714   2.716   0.961  12.833 -0.8428 -0.8796 -0.6931
19433TIP3    H279715   2.734   0.812  12.849  1.4217 -0.6203 -0.4321
19434TIP3   OH279716   5.720   0.701   3.686 -0.7052 -0.7259  0.2286
19434TIP3    H179717   5.751   0.789   3.667  0.3543 -1.0115  0.5691
19434TIP3    H279718   5.761   0.646   3.620 -1.7044 -0.9239 -0.2540
19435TIP3   OH279719   1.172   5.153   0.164  0.2626 -0.0704 -0.1417
19435TIP3    H179720   1.181   5.165   0.258 -0.9288  0.4278 -0.0647
19435TIP3    H279721   1.094   5.204   0.141  1.7794  1.6977 -1.7511
19436TIP3   OH279722   0.230   2.822  16.086  0.0974  0.9370 -0.9301
19436TIP3    H179723   0.318   2.788  16.103 -0.0921  0.1246 -1.5390
19436TIP3    H279724   0.188   2.821  16.172 -0.4928 -2.1149 -1.1556
19437TIP3   OH279725   5.869   0.078   1.613  0.3228 -0.3251 -0.1662
19437TIP3    H179726   5.908   0.124   1.539 -0.9173  0.0482 -0.6040
19437TIP3    H279727   5.796   0.029   1.575  0.4306 -1.1145  0.6169
19438TIP3   OH279728   0.352   2.207   3.755  0.0172  0.5175 -0.6020
19438TIP3    H179729   0.292   2.278   3.730 -0.6114 -0.2256 -1.2540
19438TIP3    H279730   0.351   2.207   3.850 -0.6329  0.8432 -0.6029
19439TIP3   OH279731   2.514   1.052  12.469 -0.2388  0.8376 -0.1245
19439TIP3    H179732   2.512   0.972  12.521  0.3188  1.7421  1.3443
19439TIP3    H279733   2.603   1.055  12.433 -0.1556  0.9375  0.0830
19440TIP3   OH279734   1.942   3.216   6.399 -0.3241  0.2396  0.3599
19440TIP3    H179735   2.022   3.260   6.428 -1.3772  1.6976  1.1789
19440TIP3    H279736   1.910   3.170   6.477 -0.2309 -0.4768 -0.0081
19441TIP3   OH279737   3.373   6.668  15.456 -0.1775  0.6050 -1.2344
19441TIP3    H179738   3.284   6.686  15.427 -0.5747 -0.7761 -0.9009
19441TIP3    H279739   3.364   6.639  15.547  0.4663 -0.7036 -1.5619
19442TIP3   OH279740   3.436   2.619  15.841 -0.3730  0.3644  0.1147
19442TIP3    H179741   3.423   2.601  15.748 -0.4819  1.0345 -0.0066
19442TIP3    H279742   3.370   2.566  15.886 -0.3180  0.0354 -0.1878
19443TIP3   OH279743   5.886   6.560  11.382  0.3352  0.6596 -0.3324
19443TIP3    H179744   5.819   6.624  11.358 -1.6103 -1.2334 -0.3232
19443TIP3    H279745   5.904   6.578  11.474  1.2383  2.3521 -0.8107
19444TIP3   OH279746   3.755   6.062   0.206  0.0052 -0.4125  0.1777
19444TIP3    H179747   3.760   6.106   0.290 -0.4075 -0.4662  0.2318
19444TIP3    H279748   3.708   5.981   0.224 -1.3949  0.2576 -0.3763
19445TIP3   OH279749   0.746   2.830  10.517 -0.0759  0.1512  0.0193
19445TIP3    H179750   0.700   2.890  10.576 -0.3217 -1.1346  1.1937
19445TIP3    H279751   0.830   2.872  10.501 -0.5908  1.2353  0.0604
19446TIP3   OH279752   3.293   5.384  15.343  0.2320  0.2532 -0.0180
19446TIP3    H179753   3.231   5.411  15.411 -0.4136  0.9267 -0.8444
19446TIP3    H279754   3.377   5.379  15.387  0.0209  1.7535  0.6165
19447TIP3   OH279755   4.125   5.068  13.765 -0.5832  0.0260 -0.2142
19447TIP3    H179756   4.117   5.112  13.849 -0.6960 -1.6226  0.6693
19447TIP3    H279757   4.115   5.138  13.700 -2.7605  1.0131  1.0849
19448TIP3   OH279758   1.849   3.912  16.759 -0.1786  0.3979  0.2115
19448TIP3    H179759   1.873   3.820  16.746 -1.8012 -0.2562  1.3553
19448TIP3    H279760   1.932   3.958  16.770  0.6762 -0.8914 -0.5781
19449TIP3   OH279761   1.084   4.411  12.588  0.4428 -0.3753  0.3091
19449TIP3    H179762   1.076   4.473  12.661 -0.4395 -1.6529  1.3381
19449TIP3    H279763   1.047   4.457  12.513 -0.0779  0.3929  1.0201
19450TIP3   OH279764   0.835   5.704   1.893 -0.0260  0.1946 -0.9612
19450TIP3    H179765   0.767   5.734   1.953  1.9527 -0.4156  1.8134
19450TIP3    H279766   0.896   5.778   1.887  1.3118 -0.7294  0.3099
19451TIP3   OH279767   4.745   2.199   2.374  0.6332  0.7271 -0.3557
19451TIP3    H179768   4.807   2.167   2.440  0.7574  2.1543  0.2556
19451TIP3    H279769   4.668   2.226   2.425 -0.6053 -1.1621 -1.1175
19452TIP3   OH279770   5.412   3.231   1.127 -0.1931 -0.4926 -0.5201
19452TIP3    H179771   5.432   3.236   1.033 -1.1599 -0.2600 -0.7236
19452TIP3    H279772   5.320   3.254   1.133 -0.3167 -1.1783  0.4229
19453TIP3   OH279773   3.299   4.685  16.708 -0.1632  0.1158  0.3012
19453TIP3    H179774   3.345   4.701  16.790 -0.4162 -0.2295  0.5152
19453TIP3    H279775   3.293   4.590  16.702 -0.8776  0.1538  0.2953
19454TIP3   OH279776   1.140   4.724   4.787 -0.2677  0.3510  0.4387
19454TIP3    H179777   1.185   4.782   4.848 -1.0895  1.8576 -0.3437
19454TIP3    H279778   1.070   4.685   4.839  1.1410 -1.1158  1.3509
19455TIP3   OH279779   6.573   3.956  11.339  0.4500  0.3000  0.2637
19455TIP3    H179780   6.658   3.926  11.370  0.9887  1.8814  0.3843
19455TIP3    H279781   6.531   3.877  11.305  1.5961 -0.6681  1.0147
19456TIP3   OH279782   0.698   6.087   2.319  0.3218  0.1980  0.1482
19456TIP3    H179783   0.733   6.125   2.239 -0.2177  1.9963  0.7078
19456TIP3    H279784   0.727   6.146   2.388 -0.1490 -0.7037  1.1441
19457TIP3   OH279785   3.905   6.096  15.887  0.1984 -0.1237  0.6784
19457TIP3    H179786   3.999   6.110  15.904  0.2935 -0.2574  0.2837
19457TIP3    H279787   3.862   6.169  15.930  0.7614  2.1935 -2.3500
19458TIP3   OH279788   4.337   4.416  15.804 -0.0773 -0.2140 -0.9260
19458TIP3    H179789   4.391   4.339  15.784  0.8060 -0.0143  0.5615
19458TIP3    H279790   4.270   4.383  15.864  2.1339  0.6470  2.2798
19459TIP3   OH279791   6.632   1.224   5.953 -0.2459  0.5708  0.6867
19459TIP3    H179792   6.618   1.131   5.941  1.1472  0.5190 -0.9751
19459TIP3    H279793   6.719   1.230   5.993  0.0493  1.1764 -0.0312
19460TIP3   OH279794   6.582   3.951   4.688  0.4392 -0.6640 -0.3108
19460TIP3    H179795   6.508   4.010   4.673 -0.7993 -2.2104 -0.5265
19460TIP3    H279796   6.630   3.991   4.760  0.2268  1.1129 -1.0889
19461TIP3   OH279797   5.464   3.689   6.022  0.9146 -0.2450 -0.0825
19461TIP3    H179798   5.533   3.746   6.055 -0.5160  2.7197 -1.8169
19461TIP3    H279799   5.401   3.684   6.093  0.6955  1.0440 -0.1621
19462TIP3   OH279800   1.541   2.387  14.483 -0.0199 -0.3424  0.2204
19462TIP3    H179801   1.532   2.373  14.577 -1.8110 -0.5760  0.0344
19462TIP3    H279802   1.597   2.314  14.453  0.1874 -0.5175  1.0223
19463TIP3   OH279803   3.123   2.404   1.629  0.5680  0.0067  0.3637
19463TIP3    H179804   3.120   2.364   1.542  1.0115  0.8678 -0.0655
19463TIP3    H279805   3.168   2.488   1.615  0.1104  0.4259  1.3182
19464TIP3   OH279806   3.682   4.149  12.681 -0.2712 -0.0841 -0.0343
19464TIP3    H179807   3.635   4.110  12.754 -0.1763  1.1772  0.7326
19464TIP3    H279808   3.762   4.097  12.673 -0.7767 -0.8870  0.0557
19465TIP3   OH279809   1.834   0.663  14.694 -0.0011  0.4880  0.1750
19465TIP3    H179810   1.919   0.628  14.666 -0.3308 -0.3317  0.1728
19465TIP3    H279811   1.795   0.697  14.614  0.0245  0.2291  0.0527
19466TIP3   OH279812   5.055   3.409  14.072  0.4350  0.1699 -0.2541
19466TIP3    H179813   5.042   3.403  13.977  3.0669  2.2567 -0.8707
19466TIP3    H279814   5.049   3.503  14.091 -0.6216 -0.2701  1.7783
19467TIP3   OH279815   2.667   0.281  15.735 -0.2661  0.1115 -0.1096
19467TIP3    H179816   2.620   0.228  15.800 -0.7441  0.2696 -0.3232
19467TIP3    H279817   2.604   0.292  15.664 -0.5410  1.8467  0.3746
19468TIP3   OH279818   5.803   2.131  12.929  0.0208 -0.4169  0.1371
19468TIP3    H179819   5.760   2.191  12.989 -2.1854  0.0124 -1.7330
19468TIP3    H279820   5.845   2.189  12.864  0.7551 -0.8890  0.1757
19469TIP3   OH279821   0.789   5.488  13.353  0.4888  0.1487  0.4652
19469TIP3    H179822   0.715   5.498  13.413  0.7418  2.8441  0.4697
19469TIP3    H279823   0.854   5.440  13.403 -0.4719 -0.3944  1.2175
19470TIP3   OH279824   0.943   4.934  16.383 -0.1849 -0.0879 -0.7703
19470TIP3    H179825   0.974   4.930  16.474 -0.0769  2.2670 -0.6464
19470TIP3    H279826   0.965   4.848  16.347  3.3418  0.2014  0.3219
19471TIP3   OH279827   6.145   2.705   2.102  0.5915 -0.2986  0.9860
19471TIP3    H179828   6.054   2.732   2.091  0.4453 -1.1190 -0.0081
19471TIP3    H279829   6.196   2.782   2.079  0.1524 -0.1505  0.4679
19472TIP3   OH279830   1.131   0.479   6.094 -0.0024 -0.3769  0.2468
19472TIP3    H179831   1.049   0.529   6.090 -0.0563 -0.4368  0.5959
19472TIP3    H279832   1.199   0.546   6.099 -0.1476 -0.3084  2.3294
19473TIP3   OH279833   3.411   5.515  13.971  0.3405 -0.2089  0.0496
19473TIP3    H179834   3.392   5.423  13.949  0.0909  0.0743 -0.9571
19473TIP3    H279835   3.336   5.543  14.023  0.0969 -0.3872 -0.1998
19474TIP3   OH279836   0.136   3.931  12.578  0.2090  0.5983  0.0586
19474TIP3    H179837   0.062   3.903  12.524  0.5509  0.8804 -0.5602
19474TIP3    H279838   0.101   3.935  12.667 -0.1477 -0.6871  0.0015
19475TIP3   OH279839   1.646   5.021   1.486 -0.0549 -0.0208  0.2553
19475TIP3    H179840   1.726   5.060   1.520  0.6925 -0.5417 -0.8221
19475TIP3    H279841   1.618   5.081   1.417  0.0847 -0.4280 -0.1675
19476TIP3   OH279842   3.343   4.791  13.962 -0.6881  0.4617  0.3439
19476TIP3    H179843   3.345   4.713  14.018  2.3320  1.0470  1.2237
19476TIP3    H279844   3.330   4.864  14.022  1.0513  0.9593  0.1865
19477TIP3   OH279845   5.712   2.231   1.521 -0.2749 -0.0392  0.4355
19477TIP3    H179846   5.774   2.159   1.531 -0.4798 -0.4091 -0.8038
19477TIP3    H279847   5.763   2.301   1.481  0.2280  0.9780  2.6988
19478TIP3   OH279848   5.217   5.567   2.367 -0.1358 -0.3029 -0.4052
19478TIP3    H179849   5.185   5.607   2.286  1.1205  0.1023 -0.7128
19478TIP3    H279850   5.312   5.575   2.362 -0.0010 -1.0240  0.7321
19479TIP3   OH279851   0.331   6.317  14.907 -0.0688  0.2595 -0.0880
19479TIP3    H179852   0.266   6.379  14.940 -0.5894 -0.5584  0.4580
19479TIP3    H279853   0.331   6.330  14.812 -0.0474  1.2055  0.0295
19480TIP3   OH279854   1.143   3.353  12.731  0.2700 -0.2495 -0.1725
19480TIP3    H179855   1.048   3.342  12.726  0.1449  0.6960  0.0165
19480TIP3    H279856   1.160   3.436  12.686  0.8183  0.4710  1.3141
19481TIP3   OH279857   0.702   2.049   5.987 -0.3004  0.0174 -0.0107
19481TIP3    H179858   0.638   1.995   6.034 -1.8068  1.8826  0.2205
19481TIP3    H279859   0.775   1.990   5.970 -2.6040 -2.6566 -1.5179
19482TIP3   OH279860   1.177   1.451   0.312  0.0588  0.2808  0.0995
19482TIP3    H179861   1.147   1.517   0.374  1.1264 -0.4637  1.4647
19482TIP3    H279862   1.117   1.459   0.238 -2.6686 -0.2077  2.0688
19483TIP3   OH279863   5.301   4.932  12.520 -0.7078 -0.3171 -0.2854
19483TIP3    H179864   5.253   4.863  12.565 -2.0117  0.3336 -0.6107
19483TIP3    H279865   5.390   4.928  12.556 -0.9107 -1.7776  0.0917
19484TIP3   OH279866   1.854   3.921   3.212  0.3062  0.4094  0.4138
19484TIP3    H179867   1.874   4.014   3.199  2.6254 -0.2842 -1.7616
19484TIP3    H279868   1.785   3.903   3.149  0.5960  0.4534  0.0776
19485TIP3   OH279869   0.658   4.689  12.573  0.2166 -0.2901 -0.1255
19485TIP3    H179870   0.708   4.657  12.648  1.1081  0.4231 -0.3925
19485TIP3    H279871   0.661   4.618  12.509  0.9623 -0.2314 -0.1631
19486TIP3   OH279872   1.413   3.401  12.073 -0.1540  0.3413 -0.2889
19486TIP3    H179873   1.330   3.369  12.039 -2.2549  1.9081  2.8071
19486TIP3    H279874   1.458   3.323  12.104 -0.3098 -0.5700 -2.2610
19487TIP3   OH279875   5.648   3.714   3.929 -0.9134 -0.0341 -0.4148
19487TIP3    H179876   5.737   3.698   3.898 -1.3497  0.1464 -1.8116
19487TIP3    H279877   5.606   3.628   3.926 -0.5560 -0.2879  1.0925
19488TIP3   OH279878   3.278   3.723   3.089  0.2663 -0.3386  0.3588
19488TIP3    H179879   3.354   3.666   3.100  0.4113 -0.0254  1.0061
19488TIP3    H279880   3.272   3.737   2.995  1.1668 -0.1430  0.3265
19489TIP3   OH279881   5.705   2.587   1.645 -0.3914 -0.4304  0.5213
19489TIP3    H179882   5.689   2.678   1.617  0.3737 -0.5303 -0.3026
19489TIP3    H279883   5.732   2.542   1.565 -2.8222 -1.9329  0.4403
19490TIP3   OH279884   3.545   2.400  15.019  0.1356  0.3952  0.1448
19490TIP3    H179885   3.537   2.378  14.926 -1.8219  0.6286  0.2142
19490TIP3    H279886   3.639   2.403  15.035  0.5232  0.8376 -1.9454
19491TIP3   OH279887   2.477   0.286  10.880  0.2289  0.7465 -0.4194
19491TIP3    H179888   2.491   0.289  10.975  0.1330  0.5837 -0.3981
19491TIP3    H279889   2.383   0.271  10.871  0.3382  0.0846 -0.5309
19492TIP3   OH279890   4.598   2.343   5.497 -0.3214 -0.2740 -0.7269
19492TIP3    H179891   4.564   2.330   5.585  2.3237 -1.5346  0.1973
19492TIP3    H279892   4.532   2.398   5.454 -1.2983  1.1109  2.2637
19493TIP3   OH279893   1.361   2.611  13.105 -0.2731  0.6547  0.4555
19493TIP3    H179894   1.395   2.638  13.020  0.3871 -0.6544  0.2693
19493TIP3    H279895   1.266   2.608  13.094 -0.2029  0.7278 -0.1654
19494TIP3   OH279896   0.482   1.120  14.953  0.0715 -0.1643 -0.1502
19494TIP3    H179897   0.441   1.130  15.038  0.6249  0.0060  0.1048
19494TIP3    H279898   0.436   1.182  14.896  1.9497  2.3523  0.8664
19495TIP3   OH279899   2.317   4.209   5.735 -0.5102  0.4792 -0.4110
19495TIP3    H179900   2.400   4.247   5.706 -0.7840  0.2467 -1.5552
19495TIP3    H279901   2.340   4.155   5.810  0.5661 -0.4485 -1.3748
19496TIP3   OH279902   1.195   2.650   6.032 -0.4971  0.4639 -0.6388
19496TIP3    H179903   1.173   2.737   5.999 -2.1717  0.6942  0.9585
19496TIP3    H279904   1.231   2.665   6.119  1.3161 -0.3283 -1.1946
19497TIP3   OH279905   5.508   5.016   1.385 -0.4835 -0.0268  0.2530
19497TIP3    H179906   5.572   5.005   1.314 -0.1878 -0.9961  0.6574
19497TIP3    H279907   5.471   4.929   1.398 -0.6654  0.1810  1.1700
19498TIP3   OH279908   0.896   3.359  16.893 -0.2242  0.0336 -0.1504
19498TIP3    H179909   0.960   3.290  16.878 -1.0921 -0.9318  0.4355
19498TIP3    H279910   0.878   3.355  16.987 -1.7073 -0.2487 -0.4130
19499TIP3   OH279911   1.949   0.923  14.598 -0.3514 -0.2537  0.2055
19499TIP3    H179912   1.908   0.875  14.670  1.7951 -0.3924  1.4262
19499TIP3    H279913   2.003   0.858  14.554  1.1053  0.5869  0.7007
19500TIP3   OH279914   1.400   5.050  15.930  0.2826 -0.6446  0.7143
19500TIP3    H179915   1.374   5.009  16.013 -1.9998 -0.9514 -0.1000
19500TIP3    H279916   1.355   5.134  15.929 -0.4886 -1.0570 -0.6322
19501TIP3   OH279917   0.630   4.375  16.172 -0.2794 -0.0986  0.0840
19501TIP3    H179918   0.687   4.451  16.171 -0.8124  0.3333  1.2500
19501TIP3    H279919   0.682   4.306  16.215 -0.7583  0.4194  1.5467
19502TIP3   OH279920   2.187   4.200   6.583  0.0359  0.4255  0.1372
19502TIP3    H179921   2.275   4.226   6.557 -0.2358 -0.1647 -1.5675
19502TIP3    H279922   2.153   4.274   6.633  1.3286  0.8452  0.4269
19503TIP3   OH279923   4.178   0.793  15.743 -0.1720  0.0189 -0.2364
19503TIP3    H179924   4.241   0.722  15.751 -0.7825 -0.4394  0.5821
19503TIP3    H279925   4.123   0.768  15.668  0.3233  0.2052 -0.6712
19504TIP3   OH279926   0.967   0.077  15.015 -0.6491 -0.0086  0.5863
19504TIP3    H179927   0.944   0.094  14.924 -0.9928  1.8697  0.9932
19504TIP3    H279928   1.062   0.060  15.013 -0.8428 -1.1384 -0.2335
19505TIP3   OH279929   6.343   1.371   0.038  0.1336 -0.1993 -0.2940
19505TIP3    H179930   6.371   1.315  -0.035  0.8130 -0.2239 -0.0245
19505TIP3    H279931   6.390   1.336   0.113  0.0221  0.3044  0.0113
19506TIP3   OH279932   2.122   3.069   0.824  0.0231  0.0895 -0.4627
19506TIP3    H179933   2.173   3.102   0.898 -0.5166 -0.2964  0.0893
19506TIP3    H279934   2.031   3.074   0.854 -0.2336  0.3173 -1.2556
19507TIP3   OH279935   5.109   2.016   5.442  0.3695  0.0070  0.7355
19507TIP3    H179936   5.150   2.039   5.358 -1.2052  1.0464  0.2153
19507TIP3    H279937   5.071   1.930   5.427 -1.9193  1.1257 -0.4600
19508TIP3   OH279938   0.069   1.961  17.078  0.2584 -0.2656 -0.1475
19508TIP3    H179939   0.142   1.901  17.089  0.1511 -0.9564 -2.5725
19508TIP3    H279940   0.080   1.997  16.990 -0.2129  2.6038  0.8619
19509TIP3   OH279941   4.198   1.382   0.562 -0.4166  0.4575 -0.1235
19509TIP3    H179942   4.158   1.322   0.500 -0.9119  1.5218 -0.8757
19509TIP3    H279943   4.292   1.373   0.548 -0.4907 -0.0783 -0.2798
19510TIP3   OH279944   5.063   2.684  16.279  0.2868  0.1543 -0.4501
19510TIP3    H179945   5.099   2.621  16.341 -2.4854 -0.6829  0.4722
19510TIP3    H279946   5.062   2.767  16.327  2.5117  0.6468 -1.1318
19511TIP3   OH279947   5.822   1.305  16.471 -0.2395  0.1188 -0.0068
19511TIP3    H179948   5.845   1.212  16.463 -0.0416 -0.0146  1.7517
19511TIP3    H279949   5.863   1.332  16.553 -1.5671  1.3804  0.2686
19512TIP3   OH279950   0.354   5.408  15.885  0.3014  0.0384  0.1894
19512TIP3    H179951   0.398   5.327  15.911  0.6070 -0.1004 -0.7123
19512TIP3    H279952   0.277   5.378  15.837 -0.3869  0.2877  1.1035
19513TIP3   OH279953   4.046   2.694  15.100  0.1033  0.0742  0.7328
19513TIP3    H179954   3.966   2.676  15.150  0.3924 -0.2836  1.0706
19513TIP3    H279955   4.039   2.786  15.077 -2.0815 -0.6861 -2.2291
19514TIP3   OH279956   5.693   4.875  13.962  0.0344  0.1574 -0.4741
19514TIP3    H179957   5.682   4.831  14.046 -0.2142  1.0292 -0.0384
19514TIP3    H279958   5.620   4.844  13.909 -0.1443  0.0522 -0.1670
19515TIP3   OH279959   5.473   1.023  17.103  0.1207 -0.4770  0.1927
19515TIP3    H179960   5.476   0.978  17.188  0.5846 -1.0095 -0.0982
19515TIP3    H279961   5.532   1.098  17.113 -0.5136 -0.0245  0.6195
19516TIP3   OH279962   4.192   2.884  14.243  0.2496 -0.1553  0.0831
19516TIP3    H179963   4.155   2.915  14.160  1.6738 -0.6610 -0.7782
19516TIP3    H279964   4.123   2.831  14.281  0.3033 -1.7594 -1.8804
19517TIP3   OH279965   4.948   5.392  15.444 -0.0334 -0.1453 -0.0988
19517TIP3    H179966   4.981   5.458  15.505 -0.5451  0.1833 -0.1766
19517TIP3    H279967   4.940   5.312  15.497 -0.3610  0.1077  0.2373
19518TIP3   OH279968   0.761   4.302   1.608  0.1658  0.1166  0.2657
19518TIP3    H179969   0.838   4.313   1.663  0.7910  0.5540 -0.6703
19518TIP3    H279970   0.707   4.237   1.654  0.9555  0.0170  1.0689
19519TIP3   OH279971   3.356   4.886  14.913  0.0457  0.4365 -0.2834
19519TIP3    H179972   3.382   4.974  14.886  0.1629  0.0807 -1.4086
19519TIP3    H279973   3.438   4.842  14.935  0.0181  0.5014 -0.0465
19520TIP3   OH279974   3.577   3.939   0.360 -0.0508 -0.2215  0.7335
19520TIP3    H179975   3.642   3.939   0.430 -0.7655  0.0688  1.4230
19520TIP3    H279976   3.511   3.875   0.388 -0.1841 -0.3415  0.1655
19521TIP3   OH279977   3.269   2.837   4.999 -0.1078 -0.2357 -0.1534
19521TIP3    H179978   3.272   2.747   4.966  0.4370 -0.3453  0.1941
19521TIP3    H279979   3.250   2.828   5.092 -1.1766  0.0583 -0.3217
19522TIP3   OH279980   3.060   2.026  11.870  0.7822  0.0551 -0.0783
19522TIP3    H179981   3.123   2.091  11.839  0.7031  0.4217  0.5203
19522TIP3    H279982   3.022   1.990  11.790  1.2488  0.3264 -0.4295
19523TIP3   OH279983   1.892   5.670  14.078  0.3699  0.2102  0.3598
19523TIP3    H179984   1.884   5.577  14.099 -0.5263  0.0615 -0.5664
19523TIP3    H279985   1.976   5.696  14.117  1.3907 -1.3497 -0.6667
19524TIP3   OH279986   4.955   2.763   3.937 -0.0439 -0.5584 -0.0735
19524TIP3    H179987   4.934   2.781   3.846 -0.2180  0.8523  0.2170
19524TIP3    H279988   4.970   2.850   3.976  0.6720 -1.1686  1.0838
19525TIP3   OH279989   5.422   1.693   2.454  0.2280 -0.2655  0.4945
19525TIP3    H179990   5.381   1.745   2.385 -0.5260 -1.6857 -0.1672
19525TIP3    H279991   5.407   1.744   2.534 -1.8561 -0.1826  0.1072
19526TIP3   OH279992   1.047   6.179  13.776 -0.1817 -0.1653  0.4826
19526TIP3    H179993   0.961   6.204  13.809  0.1015  0.3445  0.8511
19526TIP3    H279994   1.109   6.217  13.839  0.3549  0.4639 -0.4102
19527TIP3   OH279995   3.031   5.745   5.691  0.7929 -0.0516 -0.1932
19527TIP3    H179996   3.068   5.759   5.779  1.2031  1.5046 -0.5707
19527TIP3    H279997   3.083   5.674   5.654  0.7471 -0.5918  0.7362
19528TIP3   OH279998   3.647   5.859  12.353 -0.5279  0.2005 -0.9367
19528TIP3    H179999   3.614   5.936  12.398  0.7885  1.2313 -1.6584
19528TIP3    H280000   3.667   5.890  12.264  1.7571 -0.4625 -0.7177
19529TIP3   OH280001   5.292   6.215   3.333 -0.8557  0.2286 -0.1828
19529TIP3    H180002   5.324   6.172   3.253 -1.7722 -0.9529  0.0576
19529TIP3    H280003   5.354   6.190   3.401 -0.4022  0.7562 -0.3914
19530TIP3   OH280004   6.752   0.911  16.011 -0.1293 -0.1767 -0.3369
19530TIP3    H180005   6.765   0.845  15.943 -1.0436 -1.4850  0.7084
19530TIP3    H280006   6.836   0.956  16.016  0.3493 -0.8831 -1.4536
19531TIP3   OH280007   6.235   6.312   1.334  0.1378  0.1769 -0.2709
19531TIP3    H180008   6.217   6.230   1.287 -0.6736 -1.0389  2.0227
19531TIP3    H280009   6.153   6.331   1.381  0.7446  1.6151  0.2566
19532TIP3   OH280010   5.610   0.923   0.409 -0.3277 -0.8751 -0.2457
19532TIP3    H180011   5.532   0.938   0.356  0.5238  0.2778 -1.2300
19532TIP3    H280012   5.682   0.928   0.347  0.6510 -0.0939  0.9233
19533TIP3   OH280013   4.510   5.800  10.510 -0.3902 -0.2880  0.0748
19533TIP3    H180014   4.503   5.793  10.605 -0.9797  1.5442  0.2160
19533TIP3    H280015   4.525   5.894  10.494  2.6567 -0.9287 -1.5166
19534TIP3   OH280016   0.941   1.536  16.212  0.1165  0.3615 -0.1886
19534TIP3    H180017   0.887   1.458  16.228 -0.9923  0.9539 -0.9435
19534TIP3    H280018   0.970   1.563  16.299 -0.7973  0.0208  0.2323
19535TIP3   OH280019   0.780   1.663   6.127 -0.3304  0.4710  0.2759
19535TIP3    H180020   0.805   1.572   6.144  1.2898  0.6702 -0.7995
19535TIP3    H280021   0.686   1.658   6.105 -0.4336 -0.8368  0.9022
19536TIP3   OH280022   5.786   4.062  13.465 -0.4691 -0.1998 -0.4930
19536TIP3    H180023   5.824   3.980  13.497  1.5786  1.3611  1.3751
19536TIP3    H280024   5.836   4.083  13.387 -0.3868 -0.3017 -0.4675
19537TIP3   OH280025   0.091   2.438  13.253 -0.1468 -0.1796 -0.0932
19537TIP3    H180026   0.111   2.355  13.211 -0.2619  0.2990 -1.1138
19537TIP3    H280027  -0.002   2.431  13.277 -0.4951  0.0994 -1.2758
19538TIP3   OH280028   4.451   5.235   2.862  0.0015 -0.1690  0.5050
19538TIP3    H180029   4.546   5.225   2.873  0.2649  1.7237  0.2673
19538TIP3    H280030   4.413   5.171   2.921  1.4149 -2.1862 -0.6496
19539TIP3   OH280031   3.551   6.741   2.127 -0.4146  0.1799  0.0537
19539TIP3    H180032   3.480   6.796   2.095 -0.5001 -0.9471 -1.8898
19539TIP3    H280033   3.527   6.718   2.216 -2.9363 -0.8210 -0.8024
19540TIP3   OH280034   3.485   1.604   2.751 -0.4619  0.1018 -0.2664
19540TIP3    H180035   3.492   1.690   2.791  0.5833  0.2095 -0.6631
19540TIP3    H280036   3.575   1.578   2.732 -0.8623 -0.3253 -1.7352
19541TIP3   OH280037   1.473   0.398   4.698 -0.6633 -0.8660 -0.5854
19541TIP3    H180038   1.382   0.396   4.668 -0.9228  0.1704  0.0905
19541TIP3    H280039   1.468   0.388   4.793 -0.0485 -1.1131 -0.5752
19542TIP3   OH280040   0.278   3.230  14.375 -0.5925 -0.7835 -0.0125
19542TIP3    H180041   0.309   3.279  14.451 -1.4861 -1.7767  1.0204
19542TIP3    H280042   0.196   3.272  14.351  0.0130 -0.0589 -0.8540
19543TIP3   OH280043   2.443   1.440  12.566  0.6909  0.0344 -0.3581
19543TIP3    H180044   2.378   1.440  12.635  2.0455 -0.0175  0.9672
19543TIP3    H280045   2.400   1.397  12.492 -0.2514 -1.4361  0.9930
19544TIP3   OH280046   1.602   3.057   4.277  0.2561 -0.2416  0.3110
19544TIP3    H180047   1.647   3.040   4.359  3.1562 -0.2583 -1.1732
19544TIP3    H280048   1.555   3.139   4.291  0.4763 -0.3916  2.0461
19545TIP3   OH280049   0.758   4.276   4.446 -0.5639  0.2963  0.5302
19545TIP3    H180050   0.784   4.197   4.398  1.4059 -0.5440  2.7695
19545TIP3    H280051   0.663   4.276   4.443 -0.5862 -1.7342 -0.2172
19546TIP3   OH280052   6.032   2.815  14.186 -0.3244 -0.0026  0.6090
19546TIP3    H180053   5.986   2.897  14.204  0.3298  0.4902  0.0643
19546TIP3    H280054   6.048   2.816  14.092  2.0152  0.5018  0.9446
19547TIP3   OH280055   4.057   2.434  13.088 -0.8535  0.1938  0.5109
19547TIP3    H180056   4.026   2.443  12.998  0.8560  0.5013 -0.0895
19547TIP3    H280057   4.094   2.346  13.093 -0.1494  0.4879  0.6364
19548TIP3   OH280058   5.586   4.734  12.168 -0.1432 -0.4214  0.6694
19548TIP3    H180059   5.511   4.775  12.210 -2.2456 -2.0695 -1.1842
19548TIP3    H280060   5.616   4.667  12.230 -1.0706 -0.6258  0.9024
19549TIP3   OH280061   1.026   6.406  14.854  0.7251  0.5671  0.0067
19549TIP3    H180062   0.974   6.342  14.806  0.8069 -0.1900  0.9068
19549TIP3    H280063   0.986   6.410  14.941  0.7566  1.7042 -0.0257
19550TIP3   OH280064   3.878   1.106  16.651  0.0889 -0.1537  0.0697
19550TIP3    H180065   3.862   1.038  16.585  0.9910 -1.2141  0.9176
19550TIP3    H280066   3.844   1.186  16.611 -0.1425 -0.9240 -1.3367
19551TIP3   OH280067   6.187   5.627  15.794  0.3030 -0.3606 -0.6180
19551TIP3    H180068   6.135   5.559  15.836  0.5171 -0.6643 -0.8437
19551TIP3    H280069   6.122   5.690  15.762 -0.0976 -1.7040 -2.6462
19552TIP3   OH280070   2.625   3.340   0.165 -0.4349 -0.4883 -0.3156
19552TIP3    H180071   2.666   3.336   0.252  0.7802 -1.1181 -0.8856
19552TIP3    H280072   2.562   3.411   0.172  1.5492  1.3508  0.3174
19553TIP3   OH280073   0.401   3.927   1.200 -0.4266  0.2953  0.2281
19553TIP3    H180074   0.423   3.909   1.292  0.4298 -2.3906 -0.4202
19553TIP3    H280075   0.484   3.951   1.159 -0.3850 -0.6552 -0.2702
19554TIP3   OH280076   0.649   3.858   0.332  0.2695 -0.5871 -0.1500
19554TIP3    H180077   0.680   3.949   0.335  1.9367 -1.0948 -0.7960
19554TIP3    H280078   0.640   3.839   0.238  2.0024 -1.7030 -0.1401
19555TIP3   OH280079   1.072   1.507  16.752  0.2461 -0.5871  0.1500
19555TIP3    H180080   1.020   1.579  16.789 -1.4639 -2.3738  1.4296
19555TIP3    H280081   1.141   1.493  16.817 -0.2688 -1.0193  0.6073
19556TIP3   OH280082   4.412   2.827  15.082 -1.1377  0.1019  0.2199
19556TIP3    H180083   4.382   2.900  15.027 -0.3493  1.2369  1.2512
19556TIP3    H280084   4.342   2.815  15.147 -1.2180 -0.0066  0.1150
19557TIP3   OH280085   5.386   0.902  13.480 -0.0630 -0.5158 -0.2254
19557TIP3    H180086   5.323   0.833  13.502 -0.7577 -0.8331 -2.8568
19557TIP3    H280087   5.471   0.859  13.482  0.0158 -0.3748  2.1825
19558TIP3   OH280088   1.091   6.080  10.849  0.0775  0.3838 -0.0557
19558TIP3    H180089   1.133   6.138  10.913  0.6462  0.7873 -0.7741
19558TIP3    H280090   1.159   6.017  10.826  0.0811  0.6391 -0.7450
19559TIP3   OH280091   2.899   2.461  13.190  0.2666  0.0264 -0.0107
19559TIP3    H180092   2.807   2.441  13.173 -0.4104  0.9613  2.2420
19559TIP3    H280093   2.937   2.470  13.102 -1.3880 -1.8934 -1.0268
19560TIP3   OH280094   1.157   5.462  15.377  0.2873  0.6259  0.2219
19560TIP3    H180095   1.238   5.466  15.326 -0.1631  0.9785 -0.4740
19560TIP3    H280096   1.170   5.388  15.436  0.4241 -0.3995 -1.0716
19561TIP3   OH280097   5.160   1.750  15.063 -0.6029 -0.3337  0.1120
19561TIP3    H180098   5.172   1.662  15.099 -0.2123 -0.5953 -0.6397
19561TIP3    H280099   5.228   1.758  14.997  0.2462  1.0617  1.1249
19562TIP3   OH280100   6.343   0.628  11.921 -0.2115  0.2599  0.0500
19562TIP3    H180101   6.382   0.707  11.884  0.1270  0.0001 -0.1532
19562TIP3    H280102   6.402   0.557  11.895 -0.3395 -0.0196  0.4967
19563TIP3   OH280103   3.214   1.561   3.876 -0.2247 -0.7460 -0.0783
19563TIP3    H180104   3.288   1.536   3.931  0.0663 -0.0097 -0.1211
19563TIP3    H280105   3.250   1.629   3.818 -0.6337 -1.2212 -0.8932
19564TIP3   OH280106   3.276   2.181  11.688  0.6611 -0.6249 -0.0415
19564TIP3    H180107   3.335   2.188  11.613  0.1211  0.6313 -0.3794
19564TIP3    H280108   3.289   2.092  11.721  1.8584 -0.7604 -0.8295
19565TIP3   OH280109   5.443   2.018  16.218 -0.0856 -0.2555  0.0543
19565TIP3    H180110   5.532   1.996  16.189  0.5314  1.2562  0.7101
19565TIP3    H280111   5.398   1.934  16.223  1.4637 -1.1116  0.2194
19566TIP3   OH280112   0.004   3.554  16.539  0.0469  0.2491 -0.0132
19566TIP3    H180113   0.019   3.530  16.630  0.2918  1.2921  0.2436
19566TIP3    H280114   0.012   3.472  16.490 -0.2952 -0.3520  0.9203
19567TIP3   OH280115   6.314   5.931   2.235  0.2363  0.0141  0.3839
19567TIP3    H180116   6.232   5.979   2.225  0.1902 -0.2204 -0.4615
19567TIP3    H280117   6.380   5.999   2.248  0.1689  0.3367 -0.7806
19568TIP3   OH280118   6.291   4.125  12.068  0.2006 -0.4064 -0.1973
19568TIP3    H180119   6.210   4.173  12.088  0.1133 -1.0275  1.0551
19568TIP3    H280120   6.281   4.041  12.114  1.3231 -0.7081 -0.4723
19569TIP3   OH280121   1.017   3.764  13.821  0.2744 -0.0962  0.3815
19569TIP3    H180122   1.062   3.787  13.902 -1.0205  1.2174  0.7615
19569TIP3    H280123   0.958   3.692  13.845  0.3741 -0.1591  0.4390
19570TIP3   OH280124   4.300   6.612  15.100  0.1408  0.1107 -0.2457
19570TIP3    H180125   4.215   6.641  15.133 -1.4968 -2.0962 -2.2503
19570TIP3    H280126   4.311   6.658  15.017  0.8224  0.2133 -0.1056
19571TIP3   OH280127   1.281   0.778   5.140  0.1140  0.6183  0.1136
19571TIP3    H180128   1.260   0.797   5.231  1.6162 -1.4788  0.9775
19571TIP3    H280129   1.227   0.702   5.118 -0.3091  1.1640 -0.7965
19572TIP3   OH280130   1.449   3.637  17.159 -0.2179 -0.2070  0.3564
19572TIP3    H180131   1.389   3.636  17.084  0.5710  0.6344 -0.3022
19572TIP3    H280132   1.499   3.718  17.150  1.1068 -0.9326  0.8153
19573TIP3   OH280133   4.051   0.157  16.371  0.3192  0.1012 -0.6179
19573TIP3    H180134   3.975   0.213  16.361  1.0143  0.9140 -1.5676
19573TIP3    H280135   4.122   0.215  16.399  0.8896 -0.4084 -0.9508
19574TIP3   OH280136   5.422   5.560  13.678  0.0810 -0.1751  0.1601
19574TIP3    H180137   5.370   5.529  13.752  0.8920  0.5802  1.0765
19574TIP3    H280138   5.359   5.603  13.620 -1.0187 -3.1252 -0.9805
19575TIP3   OH280139   2.954   1.611   4.216  0.1219 -0.6067  0.1748
19575TIP3    H180140   3.018   1.681   4.231 -0.3642 -0.6111  2.5740
19575TIP3    H280141   2.885   1.653   4.164  0.9329  0.0409 -0.4094
19576TIP3   OH280142   1.404   3.640  12.182 -0.3119 -0.0260 -0.4953
19576TIP3    H180143   1.485   3.668  12.225 -0.3948 -0.8073  0.1940
19576TIP3    H280144   1.414   3.546  12.169 -0.5129  0.1110 -1.7363
19577TIP3   OH280145   2.840   0.302   0.935  0.2847 -0.4999  0.2539
19577TIP3    H180146   2.840   0.213   0.900 -3.0016 -0.6355  0.2222
19577TIP3    H280147   2.918   0.343   0.899 -0.0933 -2.2407 -2.8842
19578TIP3   OH280148   2.936   4.972  13.057 -0.1365 -0.0764  0.0000
19578TIP3    H180149   2.888   4.898  13.019  0.0915 -0.8496  1.1774
19578TIP3    H280150   2.988   4.934  13.128 -0.8351  1.3690  1.3636
19579TIP3   OH280151   1.985   2.566   6.511  0.2253 -0.0245  0.8204
19579TIP3    H180152   2.063   2.520   6.480  0.2046  0.8533 -0.6136
19579TIP3    H280153   2.015   2.654   6.531 -0.3118  0.1908  0.7027
19580TIP3   OH280154   5.221   0.050   4.399  0.1906  0.4282  0.4397
19580TIP3    H180155   5.190  -0.040   4.394  3.0873 -0.6101 -2.6686
19580TIP3    H280156   5.297   0.046   4.457  0.4961  0.8349  0.0709
19581TIP3   OH280157   6.146   3.606   4.609 -0.2022 -0.0578 -0.5435
19581TIP3    H180158   6.161   3.679   4.669 -0.7681  0.1313 -0.6219
19581TIP3    H280159   6.227   3.598   4.560  0.6409 -0.8439  0.9035
19582TIP3   OH280160   5.102   5.065   0.050 -0.3641  0.4581  0.5166
19582TIP3    H180161   5.010   5.040   0.055  0.0080 -2.6224 -3.0712
19582TIP3    H280162   5.102   5.150   0.006 -1.5106  0.4073  0.3927
19583TIP3   OH280163   2.523   0.286  14.122 -0.0417  0.1542  0.1003
19583TIP3    H180164   2.526   0.366  14.175 -0.3636  0.5897 -0.5290
19583TIP3    H280165   2.508   0.216  14.186  3.1880  0.1836  1.0581
19584TIP3   OH280166   6.636   6.385  11.304  0.0773  0.1733  0.4765
19584TIP3    H180167   6.619   6.301  11.261 -2.1439 -1.0627  3.3697
19584TIP3    H280168   6.669   6.360  11.391 -1.8397  2.1705  1.8764
19585TIP3   OH280169   5.231   4.885   5.091 -0.6872  0.6440  0.0847
19585TIP3    H180170   5.230   4.879   5.186 -1.3606  2.7429  0.2512
19585TIP3    H280171   5.296   4.952   5.072 -1.2746  0.9641 -0.8630
19586TIP3   OH280172   3.548   4.396   6.140  1.0981 -0.4307 -0.1437
19586TIP3    H180173   3.455   4.383   6.160  0.9870  1.2203  0.6157
19586TIP3    H280174   3.559   4.358   6.053 -0.1456 -1.1988  0.0145
19587TIP3   OH280175   3.736   1.637  12.802 -0.1661  0.7033  0.3115
19587TIP3    H180176   3.706   1.549  12.820 -0.2954  0.5552 -0.6026
19587TIP3    H280177   3.683   1.693  12.859 -0.4893  0.2486  0.4578
19588TIP3   OH280178   4.883   2.845  15.764 -0.2368  0.0020  0.6005
19588TIP3    H180179   4.831   2.888  15.832  0.3471 -0.6184  1.4601
19588TIP3    H280180   4.850   2.755  15.763 -2.3376  0.6759 -2.0566
19589TIP3   OH280181   6.684   5.426  13.634 -0.5087  0.3171 -0.1219
19589TIP3    H180182   6.710   5.463  13.718  0.7974  1.1948 -0.8901
19589TIP3    H280183   6.749   5.458  13.572 -3.0756  2.2097 -2.0591
19590TIP3   OH280184   5.114   1.838   3.657  0.5460  0.6063  0.4764
19590TIP3    H180185   5.166   1.774   3.704  0.2649  1.7184  2.3994
19590TIP3    H280186   5.023   1.812   3.672  0.4605  0.1110 -0.7640
19591TIP3   OH280187   2.750   4.386  11.703 -0.4284  0.0884  1.2924
19591TIP3    H180188   2.701   4.306  11.723  2.8398 -2.8063 -0.8899
19591TIP3    H280189   2.730   4.403  11.611  0.6450  0.4019  1.1086
19592TIP3   OH280190   1.751   2.281  11.305 -0.2436 -0.2743 -0.3367
19592TIP3    H180191   1.831   2.289  11.252 -0.2754 -0.1222 -0.3626
19592TIP3    H280192   1.715   2.370  11.308 -1.3866 -0.6376 -1.8570
19593TIP3   OH280193   5.483   5.793  14.847  0.0836  0.2453  0.0906
19593TIP3    H180194   5.532   5.715  14.820 -0.8853 -0.4763  0.3580
19593TIP3    H280195   5.500   5.801  14.941  2.1331  1.8061 -0.3335
19594TIP3   OH280196   1.348   6.404  16.147  0.6298 -0.3556 -0.2180
19594TIP3    H180197   1.405   6.398  16.070  0.2492 -0.0769 -0.5276
19594TIP3    H280198   1.306   6.318  16.152 -0.9275  0.2685 -1.5826
19595TIP3   OH280199   5.222   6.478   1.429  0.1432  0.0898  0.0485
19595TIP3    H180200   5.201   6.454   1.519 -0.3867 -0.0914 -0.1193
19595TIP3    H280201   5.139   6.470   1.382  0.5804 -0.6012 -0.6268
19596TIP3   OH280202   6.159   3.578  16.181  0.3317 -0.2467  0.3066
19596TIP3    H180203   6.237   3.526  16.199 -0.0211 -0.8163  0.1852
19596TIP3    H280204   6.126   3.546  16.098  0.6740  0.8586 -0.2811
19597TIP3   OH280205   1.550   5.389   4.098 -0.4693  0.1514  0.5544
19597TIP3    H180206   1.531   5.372   4.006 -0.6530 -0.8498  0.7691
19597TIP3    H280207   1.643   5.369   4.107 -0.1879  1.2839  0.3670
19598TIP3   OH280208   2.316   5.000  15.956  0.3154  0.4284  0.0500
19598TIP3    H180209   2.310   5.095  15.949  0.2744  0.5245  1.2536
19598TIP3    H280210   2.403   4.984  15.992  0.2371  0.0171  0.0603
19599TIP3   OH280211   6.046   6.433  17.123  0.0627  0.1458  0.0421
19599TIP3    H180212   6.129   6.439  17.076 -0.2498  1.8480 -0.3491
19599TIP3    H280213   5.983   6.479  17.068 -0.7693  0.3432  1.1122
19600TIP3   OH280214   4.879   5.054   2.152 -0.0627  0.4705 -0.0803
19600TIP3    H180215   4.825   4.988   2.109  0.4472 -0.5889  0.8494
19600TIP3    H280216   4.900   5.016   2.237  0.5642  1.6793  0.3271
19601TIP3   OH280217   5.596   3.006   0.665 -0.1001 -0.3767 -0.0305
19601TIP3    H180218   5.689   3.021   0.649 -0.1755 -1.5680 -1.7685
19601TIP3    H280219   5.569   2.943   0.598 -2.4797  0.9554 -0.4411
19602TIP3   OH280220   2.847   2.603  17.190  0.2631 -0.0892  0.6362
19602TIP3    H180221   2.860   2.697  17.203 -0.2688  0.1588 -0.4737
19602TIP3    H280222   2.753   2.589  17.200  0.3905 -0.5814  1.2161
19603TIP3   OH280223   3.899   0.321  15.355 -0.3446 -0.8721  0.8164
19603TIP3    H180224   3.812   0.361  15.361  0.1341  0.3590  0.0520
19603TIP3    H280225   3.888   0.250  15.292 -0.9023 -1.0259  1.0821
19604TIP3   OH280226   1.061   5.594  13.906 -0.5458 -0.5359  0.7633
19604TIP3    H180227   1.065   5.682  13.944 -0.1196  0.0360 -0.5195
19604TIP3    H280228   1.051   5.535  13.981 -0.0303  0.5495  1.7166
19605TIP3   OH280229   0.234   2.138   4.355 -0.0548  0.1651 -0.0583
19605TIP3    H180230   0.298   2.067   4.353 -0.2600 -0.0131 -0.4800
19605TIP3    H280231   0.240   2.179   4.269  0.0649  0.6692  0.1813
19606TIP3   OH280232   3.420   2.150   1.161 -0.7403  0.3831  0.4430
19606TIP3    H180233   3.381   2.074   1.205  1.4686 -0.1987  1.5546
19606TIP3    H280234   3.496   2.172   1.214 -0.0491  1.9901 -1.1048
19607TIP3   OH280235   4.765   5.934  16.270 -0.1971  0.0833 -0.1896
19607TIP3    H180236   4.750   6.019  16.312  1.1719  0.5805 -0.6580
19607TIP3    H280237   4.683   5.916  16.223  0.0376  1.9448 -1.4246
19608TIP3   OH280238   3.432   2.402  14.539  0.2318 -0.0625 -0.5671
19608TIP3    H180239   3.392   2.408  14.452 -2.8045 -2.1422  0.5220
19608TIP3    H280240   3.485   2.322  14.536 -0.6144 -0.6460 -0.2783
19609TIP3   OH280241   0.644   4.865   1.004 -0.5217 -0.1183 -0.0837
19609TIP3    H180242   0.650   4.828   0.916  1.8007 -2.2785  0.8580
19609TIP3    H280243   0.676   4.955   0.995 -0.9572 -0.0902 -1.5302
19610TIP3   OH280244   5.967   4.788   4.486 -0.3966 -0.1640  0.0494
19610TIP3    H180245   5.958   4.871   4.440  2.3069  1.3807  2.0239
19610TIP3    H280246   6.024   4.735   4.429 -1.5229 -0.4363 -0.8624
19611TIP3   OH280247   4.325   5.480  16.113  0.2803  0.7801  0.2056
19611TIP3    H180248   4.261   5.412  16.134 -0.0530  1.2892  0.8348
19611TIP3    H280249   4.381   5.485  16.190  0.4141  1.1013  0.0904
19612TIP3   OH280250   6.728   4.361  15.889  0.3389  0.1582  0.7866
19612TIP3    H180251   6.716   4.406  15.806  1.7956 -1.1505 -0.1966
19612TIP3    H280252   6.747   4.270  15.865  0.1469 -0.4020  2.5734
19613TIP3   OH280253   3.169   5.899   5.444  0.0569 -0.3259  0.0319
19613TIP3    H180254   3.129   5.864   5.524  1.6752 -1.0493  0.5659
19613TIP3    H280255   3.221   5.826   5.410  0.0399  0.2371 -1.2536
19614TIP3   OH280256   4.404   6.526   5.575 -0.2240  0.0799  0.0931
19614TIP3    H180257   4.310   6.543   5.581 -0.1195  0.6930  0.1033
19614TIP3    H280258   4.419   6.448   5.628 -0.6961  0.1010  0.2540
19615TIP3   OH280259   6.601   6.328   4.273 -0.7905 -0.4562 -0.1814
19615TIP3    H180260   6.598   6.335   4.369 -0.5665  1.5994 -0.2838
19615TIP3    H280261   6.513   6.353   4.245 -0.8414 -1.0087 -0.5183
19616TIP3   OH280262   5.726   4.193  15.526 -0.0246 -0.2358 -0.3175
19616TIP3    H180263   5.647   4.185  15.472 -0.1947 -1.3397  0.0621
19616TIP3    H280264   5.797   4.200  15.464 -0.3240 -0.2992 -0.6712
19617TIP3   OH280265   2.893   0.028   5.601  0.1848  0.1979 -0.3176
19617TIP3    H180266   2.970   0.075   5.636  1.3816 -1.5156 -0.5209
19617TIP3    H280267   2.927  -0.058   5.577 -1.5485 -0.1445 -1.6982
19618TIP3   OH280268   0.255   6.166   0.535  0.4911 -0.1044 -0.0998
19618TIP3    H180269   0.268   6.115   0.454  1.7021 -2.3428  1.3974
19618TIP3    H280270   0.322   6.134   0.594 -0.8679  0.8831  2.0975
19619TIP3   OH280271   5.220   2.015  14.100  0.1131  0.3234  0.3334
19619TIP3    H180272   5.173   2.095  14.123  1.1017  1.1328 -0.3249
19619TIP3    H280273   5.310   2.031  14.130  0.5126 -0.1844 -0.5575
19620TIP3   OH280274   1.231   3.646  15.059  0.4195  0.4841 -0.1643
19620TIP3    H180275   1.304   3.638  14.998  0.4459 -1.2393  0.0409
19620TIP3    H280276   1.183   3.564  15.050 -1.3762  1.4726 -0.1088
19621TIP3   OH280277   5.254   0.558   0.673  0.0897 -0.5414 -0.3388
19621TIP3    H180278   5.241   0.621   0.602 -1.0661  0.6000  0.8178
19621TIP3    H280279   5.192   0.488   0.654 -0.5408 -0.0226 -0.2435
19622TIP3   OH280280   4.605   2.343   1.616 -0.1067 -0.3514 -0.0363
19622TIP3    H180281   4.546   2.414   1.590  0.8308  1.5027  2.4999
19622TIP3    H280282   4.690   2.368   1.580  0.0735 -0.6076  0.2094
19623TIP3   OH280283   5.775   2.374  14.775 -0.0038  0.0200 -0.2464
19623TIP3    H180284   5.858   2.406  14.809  0.2105  1.4384 -1.9574
19623TIP3    H280285   5.761   2.424  14.694 -2.1741 -0.6835 -0.3775
19624TIP3   OH280286   4.568   2.720   4.102 -0.1849  0.5587  0.3892
19624TIP3    H180287   4.539   2.773   4.176  0.1017 -0.0329  0.9262
19624TIP3    H280288   4.622   2.780   4.050  0.3029  0.7448  1.0971
19625TIP3   OH280289   4.912   5.816  14.361  0.4625 -1.0114  0.4478
19625TIP3    H180290   4.907   5.727  14.396  0.5960 -0.5683  1.6719
19625TIP3    H280291   4.969   5.809  14.285 -0.2924 -2.1259 -0.0448
19626TIP3   OH280292   1.441   4.021  13.527 -0.5897 -0.5629  0.1637
19626TIP3    H180293   1.515   3.994  13.472 -0.5542  0.8493 -0.5253
19626TIP3    H280294   1.425   3.946  13.585  2.0414 -0.5195  1.0492
19627TIP3   OH280295   1.665   1.829  14.656 -0.1118  0.3798  0.4615
19627TIP3    H180296   1.581   1.844  14.613  1.3960  0.4559 -2.6955
19627TIP3    H280297   1.722   1.897  14.622  2.4060 -2.2994 -1.1265
19628TIP3   OH280298   6.645   1.082  13.416  0.2879  0.4670  0.4896
19628TIP3    H180299   6.573   1.131  13.455  0.8505  1.1185  0.7362
19628TIP3    H280300   6.671   1.019  13.483 -0.0180  0.2602  0.4163
19629TIP3   OH280301   5.497   1.593  15.888  0.0296  0.6538 -0.1910
19629TIP3    H180302   5.489   1.525  15.822  0.5600 -0.2825  0.6741
19629TIP3    H280303   5.530   1.547  15.966  1.3707  2.0535  0.1159
19630TIP3   OH280304   1.748   5.827   1.327  0.0166 -0.4871  0.2475
19630TIP3    H180305   1.764   5.786   1.242  2.8924  1.3949 -0.2861
19630TIP3    H280306   1.819   5.793   1.383  0.1895  0.8326  0.8654
19631TIP3   OH280307   6.419   0.370   2.240 -0.2885 -0.3281 -0.3423
19631TIP3    H180308   6.398   0.318   2.163 -0.8882 -0.4708 -0.0878
19631TIP3    H280309   6.408   0.461   2.212 -0.1391 -0.3668 -0.5270
19632TIP3   OH280310   3.935   2.801   0.124 -0.2652 -0.0507  0.3995
19632TIP3    H180311   3.929   2.770   0.034  0.9306 -1.9126  0.9088
19632TIP3    H280312   3.872   2.748   0.173  1.1001 -1.0796  1.1132
19633TIP3   OH280313   6.005   4.619  11.989 -0.1605  0.5491  0.1621
19633TIP3    H180314   5.977   4.650  12.075 -1.7450  0.4903 -0.3002
19633TIP3    H280315   5.932   4.566  11.958  0.6466  0.0576 -0.9689
19634TIP3   OH280316   3.605   6.025  11.506 -0.1900  0.6094  0.1942
19634TIP3    H180317   3.527   6.022  11.561  0.2425  1.7940  0.9113
19634TIP3    H280318   3.606   5.941  11.461 -1.0191 -0.0574  1.3668
19635TIP3   OH280319   5.415   1.614  12.111 -0.4229  0.1480  0.7814
19635TIP3    H180320   5.488   1.579  12.061 -1.1829  1.2741 -1.2282
19635TIP3    H280321   5.455   1.674  12.174  0.4020  0.6931 -0.2334
19636TIP3   OH280322   4.749   3.369   3.672  0.3248 -0.4699  0.1863
19636TIP3    H180323   4.814   3.299   3.671  0.4922 -0.3146  0.0566
19636TIP3    H280324   4.777   3.427   3.742  1.3128  0.5114 -0.9789
19637TIP3   OH280325   3.423   4.439  16.753  0.5777  0.0906  0.2463
19637TIP3    H180326   3.506   4.392  16.742  1.1497  1.0538  0.3414
19637TIP3    H280327   3.426   4.472  16.843 -0.1402 -0.2927  0.4170
19638TIP3   OH280328   5.787   0.978   0.907  0.3248 -0.2534  0.0709
19638TIP3    H180329   5.870   0.953   0.949  0.9866 -0.8331 -1.4866
19638TIP3    H280330   5.727   0.907   0.930  0.6877 -0.5836  0.0313
19639TIP3   OH280331   3.059   2.001  16.815  0.2476 -0.1459  0.6344
19639TIP3    H180332   3.154   1.988  16.816  0.0198 -2.2913  1.8240
19639TIP3    H280333   3.024   1.917  16.844 -2.0505  0.4609 -0.2069
19640TIP3   OH280334   4.852   3.197   2.978 -0.0513  0.0913 -0.0553
19640TIP3    H180335   4.909   3.143   3.032  0.7073  1.3692  0.4550
19640TIP3    H280336   4.764   3.161   2.993  0.6633 -2.5425 -1.6346
19641TIP3   OH280337   4.026   1.764   1.319  0.2551 -0.8085 -0.9612
19641TIP3    H180338   4.068   1.706   1.255  1.5998  0.2696 -1.1120
19641TIP3    H280339   4.070   1.848   1.307 -1.5231  0.2296 -0.6479
19642TIP3   OH280340   2.139   2.943   2.437  0.5778  0.3568 -0.1236
19642TIP3    H180341   2.090   2.914   2.361  0.1206  2.9560 -0.9252
19642TIP3    H280342   2.231   2.924   2.416  0.2810 -0.7809 -0.4146
19643TIP3   OH280343   3.200   0.254   0.632 -0.3897  0.0832 -0.5541
19643TIP3    H180344   3.119   0.210   0.608 -0.3760  0.5665 -1.5347
19643TIP3    H280345   3.225   0.302   0.553 -0.3009  1.6706  0.3975
19644TIP3   OH280346   6.604   5.496  14.796 -0.1241  0.0644  0.0714
19644TIP3    H180347   6.613   5.463  14.707 -0.3601 -0.3655  0.2063
19644TIP3    H280348   6.621   5.590  14.788  2.9601 -0.3943  0.0533
19645TIP3   OH280349   2.296   4.140  13.922 -0.0603  0.0258 -0.5315
19645TIP3    H180350   2.236   4.118  13.993  0.1866  1.3580  0.1195
19645TIP3    H280351   2.344   4.216  13.954  0.8813 -0.0682 -1.6687
19646TIP3   OH280352   2.101   3.146  12.553 -0.2668 -0.4038  0.2747
19646TIP3    H180353   2.068   3.065  12.514 -0.9966 -0.1484  0.3449
19646TIP3    H280354   2.162   3.180  12.487  0.3630 -1.2142  0.4268
19647TIP3   OH280355   5.916   3.463   6.316 -0.3140 -0.7053 -0.6382
19647TIP3    H180356   5.933   3.369   6.316  1.4051 -0.4372 -0.6888
19647TIP3    H280357   6.002   3.503   6.303 -0.9958  0.8850 -0.5757
19648TIP3   OH280358   4.155   6.106   4.768  0.9797  0.5004 -0.2163
19648TIP3    H180359   4.243   6.139   4.751  1.5415 -0.7189  0.1759
19648TIP3    H280360   4.113   6.174   4.821  2.0915  0.5880  0.5778
19649TIP3   OH280361   6.242   0.989  15.471  0.2269  0.7001 -0.1583
19649TIP3    H180362   6.300   1.054  15.512  1.4590  0.1500 -1.0020
19649TIP3    H280363   6.283   0.968  15.388 -1.8900  1.3018 -1.4519
19650TIP3   OH280364   3.793   0.299  16.430  0.3119 -0.3598 -0.0212
19650TIP3    H180365   3.715   0.317  16.378  1.7362 -2.4998 -3.1889
19650TIP3    H280366   3.763   0.239  16.498 -1.1846  0.6390  0.2520
19651TIP3   OH280367   4.424   3.470   4.130  0.0442  0.3973 -0.2989
19651TIP3    H180368   4.463   3.544   4.176 -0.6908  1.1395 -0.8401
19651TIP3    H280369   4.403   3.407   4.199  3.0458 -0.4905 -0.0500
19652TIP3   OH280370   1.506   6.035  11.207 -0.3798  0.4024  0.1636
19652TIP3    H180371   1.509   5.941  11.222 -0.4137  0.2730 -0.5922
19652TIP3    H280372   1.465   6.044  11.120  1.0820  1.0263 -0.4970
19653TIP3   OH280373   1.004   2.028   5.236  0.2810 -0.5088  0.3828
19653TIP3    H180374   0.985   2.058   5.325 -1.6512  0.7318 -0.3649
19653TIP3    H280375   1.051   2.101   5.196  0.1542 -0.5902  0.0788
19654TIP3   OH280376   4.103   6.663  16.415  0.1892 -0.1677  0.2298
19654TIP3    H180377   4.157   6.686  16.490  1.4982  0.2193 -0.7894
19654TIP3    H280378   4.058   6.744  16.391  1.4939  0.3028 -0.7351
19655TIP3   OH280379   1.159   3.617   5.169 -0.0193  0.2311  0.3707
19655TIP3    H180380   1.093   3.562   5.211 -1.1265  1.4705  0.3138
19655TIP3    H280381   1.132   3.707   5.189  1.0255  0.7940 -0.6044
19656TIP3   OH280382   2.552   2.269  12.028 -0.2794 -0.2158  0.1613
19656TIP3    H180383   2.495   2.242  11.955  0.4411 -2.0570  0.2431
19656TIP3    H280384   2.638   2.236  12.005 -0.0752 -0.9930  1.9439
19657TIP3   OH280385   3.791   0.652   6.100  0.7409 -0.3694  0.6366
19657TIP3    H180386   3.729   0.709   6.145  1.0282  0.7068 -0.2770
19657TIP3    H280387   3.772   0.664   6.007  1.3316 -1.1845  0.3962
19658TIP3   OH280388   4.898   3.917  17.221 -0.0040 -0.6144  0.2667
19658TIP3    H180389   4.989   3.944  17.215 -0.1582 -0.2240 -0.4455
19658TIP3    H280390   4.898   3.846  17.286  0.7792 -0.5320  0.3662
19659TIP3   OH280391   0.529   1.419   3.472 -0.2206  0.4098  0.0779
19659TIP3    H180392   0.452   1.473   3.493 -1.6618 -1.2518 -0.6969
19659TIP3    H280393   0.568   1.461   3.396 -1.0413  0.6405 -0.2219
19660TIP3   OH280394   5.343   5.851  11.224 -0.3069 -0.3051 -0.2159
19660TIP3    H180395   5.256   5.819  11.243  0.4670 -0.4375  4.0401
19660TIP3    H280396   5.344   5.941  11.258  1.1896 -0.3107 -0.1510
19661TIP3   OH280397   1.088   1.887   2.176  0.0995 -0.0658 -0.0967
19661TIP3    H180398   1.086   1.981   2.160 -2.0100 -0.1468 -0.6565
19661TIP3    H280399   1.154   1.875   2.244  1.0226  1.6970 -0.6341
19662TIP3   OH280400   5.790   3.129   0.083  0.7263 -0.0456 -0.1943
19662TIP3    H180401   5.856   3.137   0.015  1.2261  0.4566  0.3343
19662TIP3    H280402   5.721   3.190   0.058  0.0365 -1.1912 -1.2010
19663TIP3   OH280403   4.708   1.466  13.671  0.3192 -0.0897  0.2727
19663TIP3    H180404   4.664   1.413  13.606  2.8560 -0.9524 -0.8541
19663TIP3    H280405   4.672   1.437  13.755  0.8711 -2.9155 -0.3830
19664TIP3   OH280406   2.166   1.922   5.400 -0.3051  0.5068  0.2399
19664TIP3    H180407   2.241   1.865   5.382 -0.0704  0.3951  1.4788
19664TIP3    H280408   2.199   2.010   5.383 -0.1917  0.3861 -0.1767
19665TIP3   OH280409   1.590   5.165  13.951 -0.0243 -0.0713 -0.2502
19665TIP3    H180410   1.498   5.190  13.944 -0.4282 -1.1000  0.8511
19665TIP3    H280411   1.595   5.079  13.910  0.5285  0.1343 -0.6265
19666TIP3   OH280412   2.468   5.253  13.142 -0.4349 -0.4277 -0.1317
19666TIP3    H180413   2.550   5.217  13.108 -1.4092 -2.0565 -0.8415
19666TIP3    H280414   2.402   5.188  13.120 -2.0822  1.2282 -0.3380
19667TIP3   OH280415   2.513   5.342  16.310  0.1074  0.2380  0.2454
19667TIP3    H180416   2.523   5.385  16.395  1.3682 -0.3620  0.4372
19667TIP3    H280417   2.520   5.249  16.330 -0.4110  0.0539 -0.4189
19668TIP3   OH280418   4.659   4.119   0.784 -0.4145 -0.3566 -0.0956
19668TIP3    H180419   4.716   4.057   0.830 -0.7654 -0.4840  0.1771
19668TIP3    H280420   4.700   4.132   0.699  0.2850 -0.0578  0.2862
19669TIP3   OH280421   6.534   6.203   5.079  0.3732  0.3471  0.9083
19669TIP3    H180422   6.460   6.176   5.132  0.7069 -0.4098  1.0042
19669TIP3    H280423   6.542   6.135   5.011  0.3435  0.9629  0.2722
19670TIP3   OH280424   1.010   1.171   0.187  0.5646  0.0844 -0.3168
19670TIP3    H180425   0.976   1.260   0.180  1.3613  0.2960 -1.9336
19670TIP3    H280426   0.935   1.115   0.164  0.3344  0.3805 -0.2940
19671TIP3   OH280427   3.060   5.303  11.417  0.4035  0.1202 -0.3458
19671TIP3    H180428   2.967   5.320  11.400  1.0501  4.5141 -0.7841
19671TIP3    H280429   3.102   5.313  11.332  1.3629 -1.4716 -0.0920
19672TIP3   OH280430   2.107   2.325  15.331 -0.0097 -0.3084 -0.0630
19672TIP3    H180431   2.079   2.253  15.387 -0.9379  2.0738  2.7649
19672TIP3    H280432   2.050   2.399  15.355  1.9791  1.8738 -1.5441
19673TIP3   OH280433   3.983   5.486  15.217  0.1123  0.0046  0.3773
19673TIP3    H180434   3.969   5.419  15.284  1.6308 -0.4797  0.2571
19673TIP3    H280435   4.045   5.547  15.257 -0.8388  1.0552  0.2814
19674TIP3   OH280436   5.709   4.068   0.390 -0.1621  0.3007 -0.0931
19674TIP3    H180437   5.699   4.161   0.370  1.3826  0.5721  0.2663
19674TIP3    H280438   5.706   4.064   0.486 -0.8659 -0.1211 -0.1249
19675TIP3   OH280439   3.180   1.979  11.487  0.2705 -0.1611 -0.0252
19675TIP3    H180440   3.167   1.887  11.463  1.9106 -0.1872 -0.9497
19675TIP3    H280441   3.275   1.988  11.494  0.1550  1.5921 -0.4517
19676TIP3   OH280442   1.629   6.121  14.036  0.4556 -0.4946  0.2130
19676TIP3    H180443   1.547   6.077  14.059 -0.8670  1.2953 -0.7987
19676TIP3    H280444   1.634   6.114  13.940  0.3553  1.2189  0.0520
19677TIP3   OH280445   3.972   1.137   4.737  0.2680 -0.3472 -0.0329
19677TIP3    H180446   4.001   1.180   4.657  0.4218 -0.4526 -0.0347
19677TIP3    H280447   4.033   1.064   4.749 -0.1798 -0.7517 -0.1963
19678TIP3   OH280448   0.763   0.149  13.500  0.6503 -0.0310 -0.5902
19678TIP3    H180449   0.711   0.214  13.454  0.7181  0.9229  0.6389
19678TIP3    H280450   0.706   0.073  13.508 -0.9679  1.3295  1.6105
19679TIP3   OH280451   5.866   3.049   5.492  0.0977 -0.3732 -0.0081
19679TIP3    H180452   5.787   3.093   5.461  0.8923 -0.3052 -2.1651
19679TIP3    H280453   5.890   3.094   5.572  0.2806  2.4971 -1.5504
19680TIP3   OH280454   6.784   0.333   4.893 -0.0487  0.0530 -0.4092
19680TIP3    H180455   6.866   0.308   4.937 -0.3593  1.1827  0.8855
19680TIP3    H280456   6.803   0.323   4.800  0.9333 -1.5481 -0.0829
19681TIP3   OH280457   6.390   1.825   2.827 -0.1621  0.4951 -0.6573
19681TIP3    H180458   6.453   1.754   2.811 -1.1821 -0.2098 -1.7714
19681TIP3    H280459   6.440   1.892   2.872  0.8203 -0.9930  0.5600
19682TIP3   OH280460   5.777   2.169   4.633 -0.0606  0.2116  0.2674
19682TIP3    H180461   5.764   2.248   4.685  0.0044  0.3123  0.1318
19682TIP3    H280462   5.872   2.158   4.629 -0.0448  0.5257 -0.3061
19683TIP3   OH280463   5.810   3.391  15.655  0.4274  0.1981 -0.7030
19683TIP3    H180464   5.885   3.351  15.699  0.2840 -0.9390 -1.4479
19683TIP3    H280465   5.847   3.459  15.600  1.2204 -1.6532 -2.6182
19684TIP3   OH280466   0.013   1.825  14.958  1.1540  0.0817 -0.3989
19684TIP3    H180467  -0.078   1.796  14.964  0.6855  1.6928  1.0227
19684TIP3    H280468   0.019   1.866  14.872  0.4375  0.2613 -0.3730
19685TIP3   OH280469   1.503   5.446  15.722 -0.0917  0.0112 -0.2440
19685TIP3    H180470   1.557   5.395  15.662  0.4988  1.4910 -1.0344
19685TIP3    H280471   1.502   5.534  15.684 -1.4612  0.4813  0.8055
19686TIP3   OH280472   1.676   3.839  11.956 -0.3797 -1.1610 -0.2059
19686TIP3    H180473   1.649   3.751  11.982 -0.8007 -1.1217 -0.4963
19686TIP3    H280474   1.673   3.838  11.860 -0.8297 -0.7018 -0.2034
19687TIP3   OH280475   6.631   1.083   2.041  0.1245  0.2466  0.4641
19687TIP3    H180476   6.675   1.007   2.079  0.4862  0.9410  1.4987
19687TIP3    H280477   6.698   1.152   2.043 -0.4309  0.7971  0.2712
19688TIP3   OH280478   5.589   6.044   6.298  0.6496 -0.0829  0.4218
19688TIP3    H180479   5.603   6.045   6.203 -0.0487  0.2924  0.3176
19688TIP3    H280480   5.531   5.969   6.313  1.1179 -0.4139  0.6123
19689TIP3   OH280481   4.479   4.063  16.007  0.1349 -0.4521  0.1805
19689TIP3    H180482   4.459   4.018  16.089 -0.9023 -0.6090 -0.1455
19689TIP3    H280483   4.504   4.151  16.033  0.4090 -0.6769  0.6976
19690TIP3   OH280484   3.926   3.597   2.030  0.2247  0.4840 -0.0448
19690TIP3    H180485   3.927   3.691   2.044 -0.4038  0.4466  0.2623
19690TIP3    H280486   3.976   3.584   1.948  0.4924  1.0538  0.0266
19691TIP3   OH280487   2.298   2.971   1.265  0.5489  0.8991 -0.2694
19691TIP3    H180488   2.343   2.995   1.184 -0.9959  2.4696 -0.7277
19691TIP3    H280489   2.207   2.999   1.251  0.6037  3.0988  2.7072
19692TIP3   OH280490   5.346   2.644   5.736  0.1145 -0.3879  0.8879
19692TIP3    H180491   5.360   2.648   5.831 -0.1088 -2.9968  1.1078
19692TIP3    H280492   5.252   2.630   5.727 -0.0661  1.1550  0.1861
19693TIP3   OH280493   3.661   0.174  11.941 -0.5319 -0.4803 -0.0650
19693TIP3    H180494   3.585   0.217  11.902 -0.0039 -0.1380 -0.7454
19693TIP3    H280495   3.662   0.203  12.032 -1.6553 -1.1117  0.1704
19694TIP3   OH280496   6.086   6.094   4.490 -0.2620 -0.0319 -0.0694
19694TIP3    H180497   6.022   6.091   4.561  0.3300  0.8896  0.5409
19694TIP3    H280498   6.035   6.113   4.412 -1.0505 -2.0044 -0.0915
19695TIP3   OH280499   1.384   2.276  10.977  0.0856  0.6843 -0.1894
19695TIP3    H180500   1.374   2.320  10.893 -0.8161 -0.0941 -0.5131
19695TIP3    H280501   1.334   2.195  10.967  1.1103 -0.0779  0.6208
19696TIP3   OH280502   2.019   0.384   1.117  0.4337 -0.1463 -0.0360
19696TIP3    H180503   1.994   0.448   1.184  0.6034 -0.3611  0.2325
19696TIP3    H280504   2.085   0.429   1.065  0.0096  0.1683 -0.3087
19697TIP3   OH280505   4.340   6.392   4.099 -0.5997  0.3837  0.2061
19697TIP3    H180506   4.296   6.389   4.014 -0.1851 -1.8892  0.0139
19697TIP3    H280507   4.433   6.383   4.077 -0.3252  1.5949  0.8140
19698TIP3   OH280508   3.049   5.724   0.749  0.7886 -0.0560  0.3679
19698TIP3    H180509   3.103   5.677   0.686  1.2095  1.5109 -0.4999
19698TIP3    H280510   3.105   5.793   0.783 -0.7694  2.0446 -1.0578
19699TIP3   OH280511   1.450   6.171  14.244 -0.2104 -0.2288 -0.5860
19699TIP3    H180512   1.505   6.188  14.320  0.2147  0.0530 -0.9568
19699TIP3    H280513   1.467   6.244  14.184  0.5802 -1.1967 -1.5849
19700TIP3   OH280514   5.520   2.307  13.986  0.1092 -0.3400  0.4483
19700TIP3    H180515   5.483   2.333  13.902  0.2304 -1.5984 -0.0149
19700TIP3    H280516   5.449   2.321  14.049 -0.5334 -0.8857 -0.1272
19701TIP3   OH280517   2.696   5.089   5.839  0.0730 -0.1695  0.2100
19701TIP3    H180518   2.689   5.115   5.747 -0.0851 -0.5891  0.1045
19701TIP3    H280519   2.635   5.147   5.885 -1.5771 -1.4699 -0.2485
19702TIP3   OH280520   5.214   1.558  14.825  0.0268 -0.0187  0.2872
19702TIP3    H180521   5.129   1.597  14.805  0.6798  1.1079 -0.3763
19702TIP3    H280522   5.194   1.488  14.888 -1.6602 -1.3323 -1.5626
19703TIP3   OH280523   0.444   1.451  13.268  0.2693 -0.3697  0.0435
19703TIP3    H180524   0.518   1.423  13.215  0.4903 -1.3381  0.8316
19703TIP3    H280525   0.381   1.486  13.205  0.8016 -0.8567 -0.7720
19704TIP3   OH280526   6.369   4.931  16.670  0.5019  0.2589 -0.2176
19704TIP3    H180527   6.292   4.976  16.635  1.5256  3.0362  0.8471
19704TIP3    H280528   6.337   4.884  16.747 -0.1995  1.1557  0.0508
19705TIP3   OH280529   5.021   4.061   2.232 -0.7924 -0.8074  0.0528
19705TIP3    H180530   4.964   3.986   2.250  0.1631 -1.1989  1.6834
19705TIP3    H280531   4.962   4.132   2.210 -1.8401 -1.5046  0.5609
19706TIP3   OH280532   6.142   6.686  12.607 -0.4044  0.1218  0.0095
19706TIP3    H180533   6.175   6.775  12.617  0.9708 -0.3566 -0.0359
19706TIP3    H280534   6.052   6.690  12.638 -0.1076  1.3504  0.7718
19707TIP3   OH280535   0.743   6.666   5.025  0.3756 -0.2715  0.8060
19707TIP3    H180536   0.819   6.608   5.028  0.8499  0.3247  0.4176
19707TIP3    H280537   0.766   6.733   4.961 -0.4100  0.0110  0.8101
19708TIP3   OH280538   5.421   3.298   6.432 -0.1943  0.1012 -0.0501
19708TIP3    H180539   5.498   3.355   6.437  1.8535 -2.5626  1.4463
19708TIP3    H280540   5.379   3.322   6.349  2.6113  1.2605 -1.2780
19709TIP3   OH280541   1.676   0.359  12.225 -0.3792 -0.1159  0.0136
19709TIP3    H180542   1.639   0.288  12.173 -0.9110  0.4894 -0.4537
19709TIP3    H280543   1.663   0.332  12.315  0.7017 -1.2555 -0.1508
19710TIP3   OH280544   2.753   0.028  15.962 -0.7523  0.1093  0.4588
19710TIP3    H180545   2.729   0.098  16.023  0.5870  1.4000 -0.4248
19710TIP3    H280546   2.848   0.036  15.952 -0.6115 -1.6485  0.0803
19711TIP3   OH280547   0.537   5.757  12.229 -0.0372 -0.7167  0.4912
19711TIP3    H180548   0.444   5.778  12.236  0.1486  1.5541 -2.3474
19711TIP3    H280549   0.582   5.834  12.263  0.7692 -0.8166 -0.3098
19712TIP3   OH280550   4.326   4.634  16.877  0.0218  0.7465 -0.0445
19712TIP3    H180551   4.328   4.644  16.972 -0.5083  0.4075  0.0049
19712TIP3    H280552   4.318   4.724  16.844 -1.0911  0.7897  0.2832
19713TIP3   OH280553   2.694   2.373   5.483 -0.1773 -0.2679 -0.0823
19713TIP3    H180554   2.765   2.362   5.419  0.3964 -0.1799  0.5398
19713TIP3    H280555   2.737   2.404   5.562 -0.8568 -0.6173  0.4320
19714TIP3   OH280556   3.482   5.358   4.970  0.4485 -0.1998 -0.4134
19714TIP3    H180557   3.420   5.298   4.927 -0.5039  1.1513 -0.9721
19714TIP3    H280558   3.449   5.366   5.059  0.5451 -0.4552 -0.3533
19715TIP3   OH280559   3.930   2.094   2.226 -0.3698  0.7696 -0.2364
19715TIP3    H180560   4.021   2.109   2.252  0.1359 -0.0808 -1.4511
19715TIP3    H280561   3.930   2.103   2.131 -1.2278 -0.8042 -0.4249
19716TIP3   OH280562   0.147   4.039   0.011 -0.1148  0.4301 -0.4891
19716TIP3    H180563   0.229   3.993  -0.009 -1.3096 -1.0894 -2.1538
19716TIP3    H280564   0.089   4.019  -0.062 -1.9027  1.7124  0.4955
19717TIP3   OH280565   4.207   2.802   5.356  0.1152  0.2251  0.3824
19717TIP3    H180566   4.211   2.816   5.451 -4.0613 -0.8556  0.9193
19717TIP3    H280567   4.200   2.707   5.346 -0.6353  0.3888 -0.8888
19718TIP3   OH280568   2.537   3.562   4.686 -0.2876  0.8797  0.3850
19718TIP3    H180569   2.482   3.484   4.675  1.9252 -0.5667 -1.7739
19718TIP3    H280570   2.605   3.534   4.747  0.4223  1.1530 -0.2651
19719TIP3   OH280571   4.886   5.587   5.523  0.3895  0.5967  0.1142
19719TIP3    H180572   4.817   5.645   5.555 -0.0762  0.4389 -0.5914
19719TIP3    H280573   4.840   5.510   5.491  0.8591  0.6402 -0.6937
19720TIP3   OH280574   5.355   1.179  15.875 -0.1889 -0.5189  0.0496
19720TIP3    H180575   5.412   1.110  15.842 -0.2373 -0.0782 -0.9651
19720TIP3    H280576   5.369   1.253  15.816 -1.7813 -0.3924 -0.2067
19721TIP3   OH280577   3.587   1.885  14.303 -0.7227  0.0367 -0.3204
19721TIP3    H180578   3.620   1.849  14.221 -0.1131 -1.2353  0.4486
19721TIP3    H280579   3.549   1.969  14.279  1.1868  0.6028 -1.6017
19722TIP3   OH280580   6.232   0.951  11.334 -0.8364 -0.3609 -0.1994
19722TIP3    H180581   6.319   0.913  11.320 -0.9219 -0.4238 -0.5615
19722TIP3    H280582   6.233   1.032  11.283  0.1717  1.3769  2.3679
19723TIP3   OH280583   2.881   6.222   4.619 -0.0519  0.0107 -0.6221
19723TIP3    H180584   2.889   6.150   4.681 -1.2495 -1.0278 -1.6114
19723TIP3    H280585   2.959   6.275   4.633 -0.1766 -0.3057  1.5859
19724TIP3   OH280586   3.261   2.888   5.274 -0.2853  0.9217  0.0856
19724TIP3    H180587   3.324   2.917   5.340  0.4961 -1.8504  0.6802
19724TIP3    H280588   3.194   2.841   5.324  0.7078 -1.9073 -1.0407
19725TIP3   OH280589   3.357   3.441   3.381 -0.2152 -0.0002 -0.5739
19725TIP3    H180590   3.451   3.436   3.366  0.1676  0.0999  1.4793
19725TIP3    H280591   3.342   3.531   3.410 -0.4798 -0.6898  1.6185
19726TIP3   OH280592   4.378   2.320  12.315  0.2749  0.6274 -0.4780
19726TIP3    H180593   4.319   2.258  12.272  0.2971 -1.8618  2.7341
19726TIP3    H280594   4.459   2.270  12.330  0.2594  1.2908  2.3130
19727TIP3   OH280595   2.451   2.525  14.878  0.6138  0.2295  0.7556
19727TIP3    H180596   2.491   2.441  14.856  0.0845  0.5763 -1.8995
19727TIP3    H280597   2.375   2.502  14.932 -0.3405 -1.1830 -1.0717
19728TIP3   OH280598   3.537   1.596  14.469 -0.2313  0.7205  0.8255
19728TIP3    H180599   3.510   1.666  14.409 -0.7728  1.6030  2.0585
19728TIP3    H280600   3.458   1.543  14.480  0.0324  0.2085  0.3123
19729TIP3   OH280601   2.535   5.073   5.044  0.6769  0.1199 -0.6379
19729TIP3    H180602   2.595   5.080   4.969  0.8439  1.4294 -0.3915
19729TIP3    H280603   2.450   5.054   5.004  0.3153  2.8947 -1.3797
19730TIP3   OH280604   3.758   2.218   0.071 -0.1760  0.8852 -0.2202
19730TIP3    H180605   3.744   2.302   0.114  0.6735  0.9410 -0.0232
19730TIP3    H280606   3.714   2.226  -0.014 -0.6114  1.3034  0.0434
19731TIP3   OH280607   1.955   4.117  11.360 -0.0740  0.3287  0.3614
19731TIP3    H180608   1.955   4.208  11.332 -1.2434  0.1766 -0.1960
19731TIP3    H280609   1.870   4.104  11.402  0.5368 -0.2038  1.5000
19732TIP3   OH280610   1.556   1.638   2.015 -0.1766  0.4180  0.1276
19732TIP3    H180611   1.540   1.731   2.031  0.1409  0.2065  1.8224
19732TIP3    H280612   1.472   1.603   1.986 -0.8191  0.8451  1.4444
19733TIP3   OH280613   3.724   3.679   0.651 -0.4537  0.2681 -0.3894
19733TIP3    H180614   3.687   3.766   0.668  1.9494  1.5322 -1.2331
19733TIP3    H280615   3.767   3.687   0.566  1.2147 -1.2632  0.2511
19734TIP3   OH280616   0.730   2.208  12.692  0.1645 -0.1866  0.3386
19734TIP3    H180617   0.704   2.140  12.755  0.5390 -0.4623  0.2031
19734TIP3    H280618   0.649   2.252  12.669 -0.1594 -0.9368  0.0265
19735TIP3   OH280619   1.269   5.265  11.853 -0.0263  0.2942 -0.0994
19735TIP3    H180620   1.297   5.219  11.774  0.9393  0.2941  0.2320
19735TIP3    H280621   1.206   5.205  11.894  1.1061 -0.7120  0.2555
19736TIP3   OH280622   4.727   0.905   0.667 -0.1547  0.0518 -0.1941
19736TIP3    H180623   4.673   0.971   0.623  0.2132  0.3960 -0.1268
19736TIP3    H280624   4.816   0.937   0.658 -0.1905  1.0235  2.3204
19737TIP3   OH280625   1.336   2.647   5.229 -0.2426  0.2216  0.2127
19737TIP3    H180626   1.391   2.576   5.194  0.7220 -1.0819  3.9113
19737TIP3    H280627   1.398   2.719   5.243 -0.7678  1.0090 -1.2923
19738TIP3   OH280628   2.625   2.223   4.279  0.5285  0.1745 -0.2285
19738TIP3    H180629   2.704   2.277   4.278  0.8398 -0.2077 -2.5844
19738TIP3    H280630   2.569   2.263   4.345  2.8842  0.1171  1.9360
19739TIP3   OH280631   2.624   6.653  10.607  0.1969 -0.2597 -0.0980
19739TIP3    H180632   2.542   6.613  10.581 -0.5854  0.0011  1.8091
19739TIP3    H280633   2.599   6.737  10.644  1.5694  0.9005 -1.6186
19740TIP3   OH280634   0.415   6.369   0.261 -0.5100 -0.3604 -0.2262
19740TIP3    H180635   0.463   6.354   0.342 -0.7253  0.2540  0.0204
19740TIP3    H280636   0.473   6.423   0.208 -0.8455  0.2188 -0.0064
19741TIP3   OH280637   0.739   3.082  16.742  0.9487 -0.0603 -0.2444
19741TIP3    H180638   0.809   3.020  16.720  0.5549 -0.9293  0.8532
19741TIP3    H280639   0.782   3.151  16.792  0.9241 -1.0001  1.1214
19742TIP3   OH280640   0.067   3.290  16.472  0.2930 -0.2897 -0.2632
19742TIP3    H180641   0.053   3.252  16.386  1.0921  0.3845 -0.6966
19742TIP3    H280642   0.138   3.238  16.510 -1.8937 -2.4544  1.1716
19743TIP3   OH280643   2.838   6.310  15.746  0.4000  0.3749  0.3080
19743TIP3    H180644   2.794   6.232  15.712  1.7094 -0.6518  0.8939
19743TIP3    H280645   2.863   6.286  15.835 -0.1663  1.8875  0.9193
19744TIP3   OH280646   0.943   3.763   3.062  0.0539 -0.2629 -0.4966
19744TIP3    H180647   1.031   3.768   3.099 -0.4409 -3.1403  1.3674
19744TIP3    H280648   0.885   3.789   3.134 -0.7249 -0.8774 -0.8865
19745TIP3   OH280649   6.472   1.797  14.482  0.3429 -0.3089 -0.6510
19745TIP3    H180650   6.472   1.765  14.572 -0.7096 -0.5621 -0.7200
19745TIP3    H280651   6.430   1.883  14.488 -0.6999 -0.7665 -1.0107
19746TIP3   OH280652   4.736   0.843  15.242 -0.2699 -0.1788  0.2289
19746TIP3    H180653   4.781   0.896  15.176  0.0749 -0.2526  0.4053
19746TIP3    H280654   4.749   0.890  15.324 -1.7699  0.5868  0.0620
19747TIP3   OH280655   4.153   0.938   1.548  0.4117 -0.5681 -0.3369
19747TIP3    H180656   4.107   0.976   1.624 -0.0857 -0.4801 -0.6743
19747TIP3    H280657   4.232   0.899   1.585  1.1568  1.1402 -0.0107
19748TIP3   OH280658   2.621   3.430  11.711  0.1543  0.4863  0.8598
19748TIP3    H180659   2.532   3.442  11.678  0.4915 -0.0822 -0.3158
19748TIP3    H280660   2.667   3.387  11.639  1.8844  2.4334  0.7084
19749TIP3   OH280661   6.461   0.155  12.727 -0.0380  0.3160 -0.7969
19749TIP3    H180662   6.371   0.144  12.759  0.3758 -0.7128  0.0690
19749TIP3    H280663   6.450   0.182  12.636 -1.2263  0.0270 -0.7643
19750TIP3   OH280664   3.293   5.784   1.137 -1.1253  0.0660 -0.0754
19750TIP3    H180665   3.210   5.756   1.178 -2.1505  2.3281 -0.4500
19750TIP3    H280666   3.299   5.877   1.158  1.3780 -0.0427 -0.0654
19751TIP3   OH280667   4.012   0.056   1.331  0.0007  0.0522  0.4693
19751TIP3    H180668   4.054  -0.025   1.359 -0.5355 -0.1095  0.8353
19751TIP3    H280669   3.944   0.072   1.397 -0.3671  0.4182  0.0161
19752TIP3   OH280670   0.825   1.522   5.290 -0.0488 -0.2081 -0.1159
19752TIP3    H180671   0.835   1.518   5.195  0.1150  0.7103 -0.1407
19752TIP3    H280672   0.913   1.506   5.324  0.0182  0.1059 -0.1384
19753TIP3   OH280673   5.631   5.443   1.873  0.2884 -0.3520  0.2473
19753TIP3    H180674   5.658   5.524   1.917  0.2292 -0.2177  0.0424
19753TIP3    H280675   5.537   5.436   1.893  0.0628  0.1661 -0.5470
19754TIP3   OH280676   6.476   2.222   3.591 -0.8744  0.0921  0.1968
19754TIP3    H180677   6.529   2.180   3.524 -1.3332  0.0136 -0.1200
19754TIP3    H280678   6.451   2.307   3.553  1.5629  1.5124  1.5239
19755TIP3   OH280679   0.071   4.856  12.731  0.0791  0.2515  0.6427
19755TIP3    H180680   0.002   4.817  12.785  0.9334  0.3177  1.8248
19755TIP3    H280681   0.046   4.948  12.723 -2.3995 -0.5034 -2.8597
19756TIP3   OH280682   5.473   4.999  12.959  0.0841  0.0844  0.0116
19756TIP3    H180683   5.542   4.945  12.921 -0.3690 -0.2840 -0.3130
19756TIP3    H280684   5.397   4.940  12.963 -0.8177  1.0458 -1.6190
19757TIP3   OH280685   4.699   1.406  12.124  0.0392  0.1336  0.7065
19757TIP3    H180686   4.627   1.349  12.098 -0.6384  0.7724  1.1675
19757TIP3    H280687   4.657   1.485  12.158  0.9594  0.7746  0.3993
19758TIP3   OH280688   2.589   6.006  16.325  0.2602  0.4427 -0.1372
19758TIP3    H180689   2.670   5.956  16.318 -0.3874 -0.5820 -0.4461
19758TIP3    H280690   2.606   6.070  16.394  0.5273 -1.3331  1.5003
19759TIP3   OH280691   3.344   5.500   3.895  0.1715  0.3543 -0.4305
19759TIP3    H180692   3.327   5.565   3.963  1.1013 -0.3642  0.5250
19759TIP3    H280693   3.318   5.417   3.934  0.1762 -0.0079 -1.1787
19760TIP3   OH280694   3.682   6.414   1.514  0.3732 -0.1066 -0.5536
19760TIP3    H180695   3.618   6.445   1.577  0.6299 -0.7168  0.0182
19760TIP3    H280696   3.665   6.465   1.435 -0.5886 -0.0299 -0.3003
19761TIP3   OH280697   6.285   6.480  14.696  0.0756  0.1858  0.1192
19761TIP3    H180698   6.376   6.497  14.719 -0.3579  1.3545  1.1147
19761TIP3    H280699   6.284   6.474  14.601  0.8850  2.3062 -0.0743
19762TIP3   OH280700   3.370   3.521  14.622 -0.2440  0.4205  0.2315
19762TIP3    H180701   3.385   3.574  14.700  1.7363 -1.7971  1.4885
19762TIP3    H280702   3.429   3.557  14.556 -0.8108  1.3644  0.2340
19763TIP3   OH280703   0.265   3.135  11.180 -0.4952 -0.1568 -0.1984
19763TIP3    H180704   0.184   3.159  11.135 -0.8951 -0.9132  0.0997
19763TIP3    H280705   0.285   3.047  11.150  1.6226  0.8986 -2.2063
19764TIP3   OH280706   0.403   1.521  13.521 -0.9705  0.1452 -0.0420
19764TIP3    H180707   0.431   1.444  13.571  0.9921  1.4091  0.9383
19764TIP3    H280708   0.408   1.493  13.430 -0.0118 -0.8225  0.2836
19765TIP3   OH280709   3.109   6.078   3.646  0.2152  0.4728 -0.1229
19765TIP3    H180710   3.029   6.073   3.593  1.2810 -2.5452 -1.6615
19765TIP3    H280711   3.107   5.999   3.700  0.7514  1.8822  2.0998
19766TIP3   OH280712   1.261   5.576   4.893  0.1351  0.3678 -0.6443
19766TIP3    H180713   1.318   5.499   4.891  0.2572  0.4052  0.6295
19766TIP3    H280714   1.225   5.577   4.982 -1.7983  0.3996 -1.3715
19767TIP3   OH280715   0.150   4.451   4.576  0.1185 -0.3394  0.3030
19767TIP3    H180716   0.186   4.532   4.540 -1.2031  0.9553  1.7462
19767TIP3    H280717   0.126   4.399   4.499 -0.9745  1.5582 -0.7239
19768TIP3   OH280718   4.414   3.286   4.784 -0.2334 -0.1944  0.0136
19768TIP3    H180719   4.394   3.297   4.691  1.1058 -0.2702 -0.3141
19768TIP3    H280720   4.482   3.351   4.801 -0.0659 -0.5638  0.7983
19769TIP3   OH280721   5.724   3.570  10.704  0.5203 -0.1044 -0.4400
19769TIP3    H180722   5.806   3.540  10.665  0.1788 -1.4797 -0.1469
19769TIP3    H280723   5.698   3.644  10.649  2.0095  0.4605 -0.4524
19770TIP3   OH280724   4.955   6.331   1.559  0.2414  0.0288  0.0963
19770TIP3    H180725   4.952   6.242   1.523 -0.2113 -0.4986  1.3655
19770TIP3    H280726   4.951   6.318   1.654  1.6830  1.3403  0.3811
19771TIP3   OH280727   6.640   2.250  15.791 -0.1153 -0.0994  0.0128
19771TIP3    H180728   6.700   2.210  15.728  0.2989  0.0533  0.3035
19771TIP3    H280729   6.676   2.225  15.876  0.6459  1.5707  0.2312
19772TIP3   OH280730   5.233   0.021  16.444  0.5824 -0.2196 -0.0813
19772TIP3    H180731   5.197   0.055  16.362 -1.1572 -1.6950  0.0299
19772TIP3    H280732   5.313   0.072  16.457 -0.7723  2.3456 -0.9950
19773TIP3   OH280733   5.444   0.252   4.369 -0.1420  0.0418 -0.0580
19773TIP3    H180734   5.433   0.325   4.431  1.9200  0.0555  0.3414
19773TIP3    H280735   5.436   0.174   4.423  0.1426  0.0259 -0.0376
19774TIP3   OH280736   2.563   0.845   2.295  0.5991 -0.5913  0.0875
19774TIP3    H180737   2.614   0.863   2.374  0.2622 -0.0339  0.1802
19774TIP3    H280738   2.546   0.932   2.258 -0.3523 -0.7700  0.0986
19775TIP3   OH280739   5.396   0.264  12.961  0.1411 -0.7131 -0.4917
19775TIP3    H180740   5.387   0.347  12.913  1.3511 -0.1117  0.2744
19775TIP3    H280741   5.316   0.258  13.014 -0.6267 -0.7738 -1.6211
19776TIP3   OH280742   2.439   6.702  15.079  0.2561 -0.2871 -0.2129
19776TIP3    H180743   2.447   6.797  15.092  0.2117 -0.4468  1.1505
19776TIP3    H280744   2.499   6.664  15.144  0.2964 -1.2024 -0.7634
19777TIP3   OH280745   3.195   4.315  15.560  0.3211  0.1154 -0.4192
19777TIP3    H180746   3.143   4.372  15.618  2.3708  2.4048 -0.6750
19777TIP3    H280747   3.182   4.352  15.473  2.2720  0.7094 -0.4939
19778TIP3   OH280748   1.974   6.220   2.291 -0.4719 -0.4782  0.0572
19778TIP3    H180749   2.064   6.196   2.268 -1.0921 -1.0420 -2.0306
19778TIP3    H280750   1.924   6.139   2.282 -1.5628  0.2767 -1.1544
19779TIP3   OH280751   4.927   5.401   1.406  0.2481  0.0276 -0.3387
19779TIP3    H180752   4.934   5.406   1.501  3.5226  1.2411 -0.4915
19779TIP3    H280753   4.909   5.309   1.388  0.0058 -0.3017  1.4306
19780TIP3   OH280754   5.774   4.560  12.604  0.1477  0.1827 -0.0189
19780TIP3    H180755   5.835   4.633  12.613 -1.7733  2.1096 -1.3936
19780TIP3    H280756   5.765   4.524  12.692  3.1075 -0.1409  0.2307
19781TIP3   OH280757   4.373   6.097   3.981  0.7909 -0.2235 -0.8252
19781TIP3    H180758   4.317   6.174   3.970  2.7911  1.3640 -0.5696
19781TIP3    H280759   4.400   6.074   3.892  0.5011 -0.3788 -0.8725
19782TIP3   OH280760   2.897   0.539  16.404  0.3538  0.3206 -0.0879
19782TIP3    H180761   2.922   0.461  16.355 -1.0511 -0.8457  0.9720
19782TIP3    H280762   2.919   0.612  16.346  0.8920 -0.8935 -1.4599
19783TIP3   OH280763   6.302   1.281  13.120  0.5247  0.5812 -0.2413
19783TIP3    H180764   6.254   1.363  13.127  2.3084  1.7161 -0.6929
19783TIP3    H280765   6.234   1.214  13.116 -0.9890  2.0571 -0.3917
19784TIP3   OH280766   5.082   1.082  14.183  0.5421 -0.2157  0.4707
19784TIP3    H180767   5.042   1.138  14.117 -0.0307 -0.2497  0.7819
19784TIP3    H280768   5.158   1.043  14.139  0.9544  0.7968  0.2465
19785TIP3   OH280769   3.668   0.547   5.324 -0.5924 -0.4421  0.3691
19785TIP3    H180770   3.692   0.455   5.334 -2.7136 -0.9724  1.2932
19785TIP3    H280771   3.584   0.555   5.370 -1.2701  1.5934 -1.0531
19786TIP3   OH280772   2.476   6.702  11.626  0.3248 -0.1273 -0.6832
19786TIP3    H180773   2.481   6.617  11.670  0.2202  0.8393  1.3476
19786TIP3    H280774   2.384   6.711  11.602  0.1041 -0.1484  0.1081
19787TIP3   OH280775   0.619   0.731   5.825 -0.2835  0.1556  0.0089
19787TIP3    H180776   0.544   0.677   5.852 -0.4954  1.4180  2.2624
19787TIP3    H280777   0.583   0.792   5.760 -0.3590 -1.4492 -1.5033
19788TIP3   OH280778   3.116   1.401   1.211  0.2295  0.7246 -0.1176
19788TIP3    H180779   3.180   1.463   1.246  1.0435 -0.6201  0.8727
19788TIP3    H280780   3.164   1.319   1.201 -0.4470  0.5365 -2.7224
19789TIP3   OH280781   3.325   1.871  16.842  0.2641  0.1936  0.1630
19789TIP3    H180782   3.413   1.903  16.820  0.2397 -0.0386 -0.2959
19789TIP3    H280783   3.337   1.818  16.920  0.6653 -0.4825 -0.3448
19790TIP3   OH280784   3.990   1.877  14.760 -0.0675  0.4562 -0.0300
19790TIP3    H180785   3.995   1.858  14.853 -0.7542  0.2162 -0.0334
19790TIP3    H280786   3.897   1.893  14.744  0.2625  2.1593 -0.3583
19791TIP3   OH280787   6.516   3.240  12.464  0.1140 -0.4290 -0.2453
19791TIP3    H180788   6.477   3.211  12.381 -1.3023  1.4264 -0.2863
19791TIP3    H280789   6.599   3.193  12.469 -0.7502 -2.2322 -1.6538
19792TIP3   OH280790   0.311   4.904   1.357  0.2167 -0.1468 -0.5996
19792TIP3    H180791   0.316   4.960   1.280  1.1203 -1.8204 -1.8261
19792TIP3    H280792   0.284   4.818   1.323 -3.6729 -0.0006  1.5010
19793TIP3   OH280793   4.885   4.880   0.369 -0.0565  0.3199  0.0940
19793TIP3    H180794   4.878   4.972   0.395  0.3376  0.1125  0.9643
19793TIP3    H280795   4.935   4.882   0.287  2.4935  0.6888  1.5566
19794TIP3   OH280796   0.717   0.312  11.716 -0.0813 -0.3271  0.4298
19794TIP3    H180797   0.694   0.225  11.684  1.5554  0.3281 -3.0158
19794TIP3    H280798   0.775   0.296  11.790  1.5741 -2.3216 -1.1851
19795TIP3   OH280799   1.537   5.805   3.091 -0.1183 -0.0867 -0.0775
19795TIP3    H180800   1.591   5.852   3.155 -1.7083  2.4492 -0.4623
19795TIP3    H280801   1.497   5.734   3.141  1.8393 -0.7214  0.6972
19796TIP3   OH280802   6.327   1.443   2.540  0.2798 -0.4573 -0.3904
19796TIP3    H180803   6.258   1.462   2.603 -0.6218  2.2618 -2.0055
19796TIP3    H280804   6.408   1.448   2.590 -0.3786  2.0034  0.5685
19797TIP3   OH280805   5.865   2.062   3.683  0.4902  0.4021  0.2053
19797TIP3    H180806   5.927   2.062   3.610  0.0773  1.3115 -0.1637
19797TIP3    H280807   5.800   2.128   3.659 -0.5430 -0.4305  0.6574
19798TIP3   OH280808   2.928   6.096  12.943  0.5845 -0.2201  0.2226
19798TIP3    H180809   2.902   6.088  13.035  0.1891  0.7254  0.1985
19798TIP3    H280810   2.976   6.015  12.926 -0.8645 -1.2524  0.7562
19799TIP3   OH280811   5.147   4.734   0.715 -0.0739  0.3637 -0.0204
19799TIP3    H180812   5.198   4.731   0.634  2.0367 -0.9693  1.2597
19799TIP3    H280813   5.152   4.645   0.750 -1.9532  0.6090  1.0183
19800TIP3   OH280814   2.072   6.047  13.863 -0.0332  0.1030 -0.0699
19800TIP3    H180815   2.114   6.117  13.813  0.7140  0.4368  0.9858
19800TIP3    H280816   2.127   6.037  13.941 -1.0167 -0.5774  0.5630
19801TIP3   OH280817   6.257   0.874  14.287 -0.2733 -0.2715  0.1986
19801TIP3    H180818   6.334   0.868  14.231 -1.7684 -0.7394 -1.9388
19801TIP3    H280819   6.281   0.938  14.355  1.7707 -0.0019 -0.7106
19802TIP3   OH280820   4.684   5.690  12.846  0.3163 -0.0300  0.0359
19802TIP3    H180821   4.758   5.704  12.905  0.6296  1.5774 -0.6539
19802TIP3    H280822   4.613   5.743  12.884  0.3896  0.6591 -0.7549
19803TIP3   OH280823   3.524   1.728  14.887  0.1347  0.5473  0.4803
19803TIP3    H180824   3.489   1.646  14.852 -0.6127 -0.1708  2.7565
19803TIP3    H280825   3.459   1.794  14.865  0.4928  0.4672 -0.9121
19804TIP3   OH280826   6.618   6.184   2.677  0.1848 -0.7860 -0.1231
19804TIP3    H180827   6.636   6.277   2.669 -0.4390 -0.6458  0.0441
19804TIP3    H280828   6.676   6.154   2.747  0.4173 -0.5366 -0.2071
19805TIP3   OH280829   1.528   5.774  12.162  0.3015 -0.3894 -0.0041
19805TIP3    H180830   1.469   5.698  12.159  0.5462 -0.7573  2.3379
19805TIP3    H280831   1.579   5.768  12.082 -1.2759 -1.3647 -0.9960
19806TIP3   OH280832   1.946   6.143  11.991  0.2461 -0.0711 -0.0351
19806TIP3    H180833   1.927   6.123  12.083  1.0270 -1.5461 -0.1605
19806TIP3    H280834   1.901   6.075  11.942  0.7098  0.0846 -0.6821
19807TIP3   OH280835   2.383   2.557   4.776 -0.2116  0.3532 -0.1990
19807TIP3    H180836   2.474   2.581   4.761  0.0726 -0.4746  0.1476
19807TIP3    H280837   2.377   2.542   4.870 -0.5643 -0.1622 -0.3022
19808TIP3   OH280838   5.298   0.935  14.107  0.2092  0.3012 -0.1288
19808TIP3    H180839   5.367   0.908  14.168 -0.8390  1.0121  1.4409
19808TIP3    H280840   5.332   0.912  14.020  1.0825 -2.2415  0.7945
19809TIP3   OH280841   0.059   6.000   5.595  0.0673 -0.0282  0.0507
19809TIP3    H180842   0.028   6.090   5.584 -1.2531 -0.4447  0.1885
19809TIP3    H280843   0.046   5.982   5.688  2.3821  0.3405  0.5050
19810TIP3   OH280844   1.188   5.824  12.728 -0.0464 -0.2669 -0.1875
19810TIP3    H180845   1.114   5.834  12.788 -1.0601 -1.2880 -1.2287
19810TIP3    H280846   1.166   5.878  12.652  0.4739 -0.2557 -0.3380
19811TIP3   OH280847   4.244   2.379  15.398  0.2480 -0.3708 -0.0818
19811TIP3    H180848   4.154   2.353  15.417 -0.4468 -0.1582 -2.6914
19811TIP3    H280849   4.271   2.321  15.328  1.4474  0.8603 -0.6759
19812TIP3   OH280850   6.387   4.506   6.243  0.2956  0.2929  0.4215
19812TIP3    H180851   6.453   4.568   6.214 -1.1647  1.4865 -0.5202
19812TIP3    H280852   6.387   4.514   6.339  1.2850  0.4756  0.4172
19813TIP3   OH280853   1.963   4.356  11.243 -0.3701  0.4917  0.0141
19813TIP3    H180854   2.034   4.419  11.237 -0.3994  0.3968 -2.8745
19813TIP3    H280855   1.910   4.371  11.164 -1.9989 -1.2429  0.6795
19814TIP3   OH280856   3.587   2.043   0.557  0.1786 -0.1363  0.6993
19814TIP3    H180857   3.517   2.006   0.503  0.1427 -0.4752  0.9760
19814TIP3    H280858   3.665   2.039   0.501  0.0044  0.1260  0.4349
19815TIP3   OH280859   2.558   1.103   2.847  0.1039 -0.3200 -0.2456
19815TIP3    H180860   2.607   1.148   2.915  0.5515  0.1189 -0.8444
19815TIP3    H280861   2.601   1.018   2.839 -1.6016 -1.4954  1.8649
19816TIP3   OH280862   2.283   4.390  12.292  0.1801  0.1382  0.1233
19816TIP3    H180863   2.238   4.473  12.274 -0.0822 -0.1715 -0.6468
19816TIP3    H280864   2.241   4.357  12.371  0.2378  0.6977  0.4003
19817TIP3   OH280865   3.768   6.461   3.486 -0.1625  0.0587  0.0039
19817TIP3    H180866   3.807   6.467   3.399  2.2937 -0.0827  1.0198
19817TIP3    H280867   3.737   6.370   3.492 -0.0144 -0.0330 -0.5859
19818TIP3   OH280868   1.666   3.485   2.875 -0.3997 -0.1946 -0.3582
19818TIP3    H180869   1.636   3.575   2.867  1.3398  0.4730  0.1114
19818TIP3    H280870   1.736   3.477   2.810 -0.9747 -1.4233 -0.8592
19819TIP3   OH280871   4.553   2.317   0.062  0.2524 -0.3893  0.1791
19819TIP3    H180872   4.645   2.337   0.050 -0.2779  1.0038 -2.6251
19819TIP3    H280873   4.533   2.254  -0.008 -1.0538  0.0077  0.1575
19820TIP3   OH280874   6.043   1.291  12.175 -0.3000 -0.5091 -0.5392
19820TIP3    H180875   6.116   1.340  12.137 -0.0687 -0.6554 -0.2941
19820TIP3    H280876   5.976   1.289  12.107 -0.2526  0.0219 -0.5991
19821TIP3   OH280877   6.511   0.249   1.273 -0.0469  0.0973  0.0903
19821TIP3    H180878   6.567   0.222   1.346 -0.0200  0.7267  0.3049
19821TIP3    H280879   6.502   0.170   1.220  1.5796  0.1288 -0.2981
19822TIP3   OH280880   0.679   0.466   5.932 -0.1759 -0.8286 -0.3686
19822TIP3    H180881   0.640   0.411   6.001 -0.4873 -0.4018 -0.1973
19822TIP3    H280882   0.690   0.552   5.974  0.3403 -0.7709 -0.6223
19823TIP3   OH280883   0.450   0.636  16.682 -0.0217 -0.3736  0.0506
19823TIP3    H180884   0.410   0.617  16.598 -0.9315  0.1412  0.3556
19823TIP3    H280885   0.377   0.663  16.738  0.8586  1.7689  0.2908
19824TIP3   OH280886   5.618   0.079  17.163  0.3833  0.5408  0.3334
19824TIP3    H180887   5.526   0.051  17.160  0.4162  0.4949 -1.3335
19824TIP3    H280888   5.665   0.011  17.116  0.9519  1.6129 -0.7017
19825TIP3   OH280889   2.151   6.310  13.750  0.2847 -0.3239 -0.3561
19825TIP3    H180890   2.231   6.341  13.708  0.0523 -0.3733 -0.8323
19825TIP3    H280891   2.094   6.387  13.752 -0.2136 -0.6580 -1.3526
19826TIP3   OH280892   2.422   1.930  14.315 -0.1324 -0.3274 -0.1487
19826TIP3    H180893   2.427   2.019  14.282 -1.2559 -0.0177  0.4442
19826TIP3    H280894   2.457   1.936  14.404  0.5334 -0.6513 -0.3804
19827TIP3   OH280895   3.166   6.397  11.085 -0.2292 -0.4486  0.5680
19827TIP3    H180896   3.147   6.312  11.045 -0.4898 -0.3803  0.5472
19827TIP3    H280897   3.236   6.434  11.032 -1.0446 -0.0502 -0.2533
19828TIP3   OH280898   5.735   6.298   5.741 -0.0183 -0.8307  0.4609
19828TIP3    H180899   5.725   6.389   5.769 -0.9072 -0.8208  0.1261
19828TIP3    H280900   5.823   6.274   5.770  0.8220  0.6046 -0.7591
19829TIP3   OH280901   6.649   1.854  16.138  0.1800 -0.0389 -0.3300
19829TIP3    H180902   6.642   1.923  16.204  0.7464  0.4657 -0.7853
19829TIP3    H280903   6.685   1.898  16.061 -0.9535 -0.4931 -1.1633
19830TIP3   OH280904   4.377   0.090   0.012 -0.3086 -0.5265 -0.1423
19830TIP3    H180905   4.426   0.025   0.064 -2.2277 -1.5719  0.4496
19830TIP3    H280906   4.330   0.142   0.078 -2.1784 -1.3730 -0.7563
19831TIP3   OH280907   4.199   2.281   4.177  0.0623  0.1470 -0.5636
19831TIP3    H180908   4.246   2.364   4.171  0.0532  0.0898 -1.6375
19831TIP3    H280909   4.107   2.305   4.187  0.2347  0.2572  1.0404
19832TIP3   OH280910   1.369   0.305  12.485  0.0104 -0.0262  0.1429
19832TIP3    H180911   1.464   0.311  12.481 -0.0051  1.5003  1.1930
19832TIP3    H280912   1.346   0.343  12.570 -1.6075  0.9028 -0.6556
19833TIP3   OH280913   3.390   0.331   4.777  0.4626 -0.3444  0.6362
19833TIP3    H180914   3.437   0.404   4.818 -1.1543  1.1089  0.0298
19833TIP3    H280915   3.306   0.328   4.823 -0.7285  0.2401 -1.4027
19834TIP3   OH280916   3.877   0.083  15.202 -0.5524  0.1098 -0.8701
19834TIP3    H180917   3.852   0.085  15.109  0.7687 -1.8822 -1.3387
19834TIP3    H280918   3.842   0.001  15.234 -0.1116  0.2977  0.1247
19835TIP3   OH280919   5.664   6.523   0.235  0.1265 -0.4356 -0.0033
19835TIP3    H180920   5.709   6.444   0.263 -0.7055 -0.7443  0.5050
19835TIP3    H280921   5.691   6.590   0.299  0.8399 -0.2965 -0.4414
19836TIP3   OH280922   1.826   3.685   1.512  0.2781 -0.4793 -0.1260
19836TIP3    H180923   1.875   3.721   1.586  0.7327 -0.4662 -0.4281
19836TIP3    H280924   1.786   3.762   1.470  1.1814 -0.3136 -0.7224
19837TIP3   OH280925   5.301   3.424  12.286  0.6724 -0.0760 -0.1638
19837TIP3    H180926   5.278   3.432  12.194 -1.4469  2.1278  0.4377
19837TIP3    H280927   5.227   3.378  12.326  0.3889  1.1257  0.7761
19838TIP3   OH280928   0.118   1.012  13.896  0.9634  0.2142 -0.0568
19838TIP3    H180929   0.122   0.930  13.945  0.8500 -0.7226 -1.5635
19838TIP3    H280930   0.024   1.029  13.886  0.8603  2.3027  2.9989
19839TIP3   OH280931   1.914   5.974  14.158 -0.0760  0.2139  0.5193
19839TIP3    H180932   1.849   6.024  14.110 -0.2014 -1.1851 -0.8677
19839TIP3    H280933   1.996   6.023  14.147 -0.3305  0.4792 -0.2071
19840TIP3   OH280934   5.714   5.604  13.653  0.7735 -0.1476  0.2062
19840TIP3    H180935   5.621   5.590  13.668  1.0938 -0.8721  1.7186
19840TIP3    H280936   5.754   5.591  13.739  2.1100  1.6811 -0.0880
19841TIP3   OH280937   2.546   4.281   5.605  0.3254 -1.3490  0.1613
19841TIP3    H180938   2.623   4.225   5.602  3.2273  1.9241  3.1406
19841TIP3    H280939   2.563   4.349   5.540  0.4134 -0.2041  1.3295
19842TIP3   OH280940   4.247   0.331  12.287  0.0425 -0.2890 -0.3359
19842TIP3    H180941   4.264   0.385  12.210  0.5771  1.1933  0.7605
19842TIP3    H280942   4.202   0.390  12.347 -2.9265 -2.1733 -0.5058
19843TIP3   OH280943   3.125   5.187   2.914  0.2416 -0.0669  0.3298
19843TIP3    H180944   3.077   5.209   2.835  0.2734  0.8309  0.5553
19843TIP3    H280945   3.179   5.112   2.889  1.6105  1.3007 -1.0361
19844TIP3   OH280946   2.443   1.180   3.382  0.1106 -0.3550 -0.4531
19844TIP3    H180947   2.384   1.207   3.312 -0.4754  1.0030  0.5035
19844TIP3    H280948   2.449   1.085   3.374 -2.3599 -0.5655 -0.4765
19845TIP3   OH280949   1.607   2.678   5.481  0.6140 -0.0570  0.2491
19845TIP3    H180950   1.668   2.699   5.552  0.7721  0.7232 -0.1097
19845TIP3    H280951   1.602   2.758   5.429  0.1264 -0.4680 -0.3507
19846TIP3   OH280952   1.074   1.154   6.621  0.4556  0.5865 -0.1171
19846TIP3    H180953   0.992   1.123   6.583 -0.8209  1.9670  1.3330
19846TIP3    H280954   1.080   1.108   6.705  0.5547  1.2925  0.2777
19847TIP3   OH280955   3.486   5.775  14.636 -0.7384  0.1884 -0.1397
19847TIP3    H180956   3.528   5.779  14.550 -0.9476 -0.0406 -0.2527
19847TIP3    H280957   3.557   5.751  14.696 -1.0166 -1.8281 -0.5619
19848TIP3   OH280958   2.038   6.272  13.491  0.2416  0.3311  0.4774
19848TIP3    H180959   2.114   6.247  13.543 -0.7256 -0.3432  1.6286
19848TIP3    H280960   1.981   6.195  13.494 -2.3753  2.1161  3.2173
19849TIP3   OH280961   5.412   4.001   3.124 -0.5526 -0.1253  0.3872
19849TIP3    H180962   5.397   4.092   3.101  0.8174  1.1253  3.7432
19849TIP3    H280963   5.495   3.979   3.081 -0.6773  0.3468 -0.1052
19850TIP3   OH280964   4.690   6.320   4.471  0.0318 -0.4168 -0.1770
19850TIP3    H180965   4.755   6.379   4.507 -0.6776  0.3564 -0.1414
19850TIP3    H280966   4.639   6.291   4.546 -0.0568 -0.5420 -0.2839
19851TIP3   OH280967   6.001   5.711   5.054  0.0602 -0.6177 -0.1708
19851TIP3    H180968   5.943   5.660   5.110 -0.5705  0.5269  0.2342
19851TIP3    H280969   6.065   5.647   5.022  0.2663 -1.3463  1.6188
19852TIP3   OH280970   4.022   1.712  16.416 -0.3034 -0.4646 -0.3738
19852TIP3    H180971   3.930   1.716  16.390 -0.5275  0.4776  0.5242
19852TIP3    H280972   4.066   1.775  16.358 -1.1576  3.3933  2.7390
19853TIP3   OH280973   2.457   2.061   3.250 -0.6174  0.4153 -0.2915
19853TIP3    H180974   2.471   2.152   3.276  0.8072 -0.3160  1.8475
19853TIP3    H280975   2.482   2.058   3.158  1.3035  1.8321  0.1168
19854TIP3   OH280976   4.931   2.287  15.036 -0.0404  0.3625  0.0819
19854TIP3    H180977   4.901   2.290  14.945  3.4123  1.4039 -1.1691
19854TIP3    H280978   4.993   2.214  15.039  0.1076  0.5085  1.5537
19855TIP3   OH280979   5.691   1.920   3.997 -0.3428  0.2934  0.6024
19855TIP3    H180980   5.711   2.010   4.024 -1.0250  0.2413  1.3153
19855TIP3    H280981   5.638   1.885   4.068  1.1245 -1.1720  1.0253
19856TIP3   OH280982   1.305   5.717   0.171 -0.3532 -0.5145  0.2886
19856TIP3    H180983   1.256   5.679   0.244 -0.7107 -0.5168  0.0520
19856TIP3    H280984   1.315   5.809   0.195  0.0076 -0.6282  0.5913
19857TIP3   OH280985   0.600   1.033  13.064 -0.2104 -0.0838 -0.3369
19857TIP3    H180986   0.552   1.015  13.145 -0.4962  0.5133 -0.3662
19857TIP3    H280987   0.669   0.967  13.061  0.2056  0.2877  0.7153
19858TIP3   OH280988   2.744   3.963   0.381  0.9280  0.4193  0.4875
19858TIP3    H180989   2.698   3.886   0.415 -0.1215  1.1163  0.6972
19858TIP3    H280990   2.740   3.953   0.286 -1.1894  1.2841  0.4252
19859TIP3   OH280991   2.105   5.622   3.909  0.1944  0.2376  0.3847
19859TIP3    H180992   2.057   5.553   3.862  3.0760 -2.1668  0.6587
19859TIP3    H280993   2.139   5.679   3.840  1.1942 -1.0422 -0.2104
19860TIP3   OH280994   2.267   0.777  13.039  0.6873 -0.2638  0.6051
19860TIP3    H180995   2.344   0.779  12.983  0.0135 -0.3692 -0.3498
19860TIP3    H280996   2.286   0.709  13.104 -0.2705 -3.4626 -2.1609
19861TIP3   OH280997   5.999   0.187  14.941 -0.4544  0.6260 -0.3774
19861TIP3    H180998   5.985   0.108  14.890 -3.1934  0.8581 -0.1482
19861TIP3    H280999   5.945   0.175  15.019 -1.1309  2.7519 -0.4387
19862TIP3   OH281000   0.294   4.505  14.184  0.1903 -0.4933  0.1898
19862TIP3    H181001   0.318   4.586  14.138  1.4574 -0.9809 -0.0642
19862TIP3    H281002   0.222   4.530  14.241  0.4480  0.7793 -0.0053
19863TIP3   OH281003   4.169   1.618   5.836 -0.3491 -0.6585 -0.6577
19863TIP3    H181004   4.199   1.548   5.778 -2.0431 -2.0607  0.0486
19863TIP3    H281005   4.176   1.697   5.783  0.1330 -1.5904 -2.0490
19864TIP3   OH281006   4.039   6.772   3.897  0.8319 -0.0058  0.0737
19864TIP3    H181007   4.043   6.773   3.992  1.2873 -2.1833  0.1442
19864TIP3    H281008   4.118   6.817   3.868  1.0800 -0.0163  0.7379
19865TIP3   OH281009   4.067   3.472   4.863  0.0966 -0.1692 -0.1528
19865TIP3    H181010   4.093   3.380   4.861 -1.6795 -0.9867  3.6704
19865TIP3    H281011   3.973   3.469   4.880 -0.1341  2.3818 -0.6542
19866TIP3   OH281012   0.793   4.688  11.194  0.2209  0.3316 -0.5135
19866TIP3    H181013   0.774   4.782  11.190 -0.9849  0.2150  1.2683
19866TIP3    H281014   0.881   4.683  11.232 -0.7198  0.7792  1.9484
19867TIP3   OH281015   6.613   0.951  17.128 -0.1215  0.1352  0.5533
19867TIP3    H181016   6.699   0.946  17.170  1.2796  0.5732 -1.9967
19867TIP3    H281017   6.617   0.884  17.059 -2.4020 -0.7982  1.2429
19868TIP3   OH281018   4.054   3.352   1.047 -0.0071 -0.8427 -0.0584
19868TIP3    H181019   4.028   3.396   0.967 -1.1110 -2.0048 -0.3745
19868TIP3    H281020   4.099   3.419   1.098  1.7104 -0.3543 -2.0790
19869TIP3   OH281021   6.388   3.870   5.160 -0.1302 -0.0786  0.9155
19869TIP3    H181022   6.349   3.801   5.213 -0.2605 -0.0520  0.8556
19869TIP3    H281023   6.406   3.828   5.076  0.2369 -0.1672  1.0364
19870TIP3   OH281024   4.563   3.931   1.569 -0.4293  0.0221  0.1055
19870TIP3    H181025   4.534   4.019   1.594 -1.1368 -0.2998  0.4488
19870TIP3    H281026   4.520   3.873   1.632 -1.5885 -0.7423 -1.3357
19871TIP3   OH281027   1.900   5.564  16.089  0.5771 -0.8737 -0.0327
19871TIP3    H181028   1.917   5.645  16.136 -2.1306 -0.6380  0.6998
19871TIP3    H281029   1.834   5.587  16.023  0.3031 -2.3007 -0.2949
19872TIP3   OH281030   3.660   0.320  11.473 -0.1922  0.3759  0.2695
19872TIP3    H181031   3.633   0.355  11.558 -0.5117  1.9872 -0.4715
19872TIP3    H281032   3.751   0.293  11.486 -0.6911 -0.8561  1.5218
19873TIP3   OH281033   1.644   6.404  13.897 -0.2106  0.2662 -0.3495
19873TIP3    H181034   1.714   6.341  13.879 -1.0748 -1.0598  0.7331
19873TIP3    H281035   1.688   6.489  13.898  1.7400 -0.6545  1.8497
19874TIP3   OH281036   2.629   3.679  11.864 -0.4401  0.0517  0.9074
19874TIP3    H181037   2.620   3.689  11.958 -0.2184 -0.2142  0.9559
19874TIP3    H281038   2.645   3.586  11.850  1.6863  0.3963  0.7836
19875TIP3   OH281039   4.699   5.715  15.957 -0.4616 -0.3534 -0.1239
19875TIP3    H181040   4.691   5.619  15.953  1.1802 -0.4788 -1.4285
19875TIP3    H281041   4.776   5.735  15.904 -0.5408  1.6820  0.4449
19876TIP3   OH281042   0.322   0.491   4.900 -0.6595 -0.0879 -0.4593
19876TIP3    H181043   0.316   0.399   4.871  1.5712  0.3824 -2.7334
19876TIP3    H281044   0.301   0.542   4.821  0.2512  1.3392  0.1801
19877TIP3   OH281045   2.259   5.839   4.667  0.1965 -0.4039  0.4566
19877TIP3    H181046   2.292   5.868   4.752 -0.4292  2.9371 -0.3074
19877TIP3    H281047   2.305   5.893   4.603 -0.3334 -1.8926 -1.2898
19878TIP3   OH281048   6.562   1.967  13.279  0.2020 -0.0942  0.0803
19878TIP3    H181049   6.529   2.057  13.272 -1.2013 -0.6808 -1.6414
19878TIP3    H281050   6.492   1.920  13.324  0.9493 -0.3460  1.0056
19879TIP3   OH281051   3.977   1.126  11.981  0.3047 -0.0143  0.2639
19879TIP3    H181052   4.066   1.135  12.015  1.5190 -1.2707 -2.2995
19879TIP3    H281053   3.948   1.039  12.010 -0.3346  0.5769  1.4904
19880TIP3   OH281054   4.466   5.648  15.442 -0.2375 -0.0549  0.0692
19880TIP3    H181055   4.527   5.600  15.498  0.0713  0.8189  0.5054
19880TIP3    H281056   4.385   5.652  15.492 -0.7959 -1.5143 -0.6536
19881TIP3   OH281057   3.198   3.330   2.585  0.1424  0.0750  0.1065
19881TIP3    H181058   3.164   3.274   2.655  0.2195 -1.4536 -1.0267
19881TIP3    H281059   3.278   3.286   2.556  0.3174  0.8866 -0.6847
19882TIP3   OH281060   1.252   0.055  14.945  0.0526  0.0280 -0.7248
19882TIP3    H181061   1.205  -0.009  14.891 -0.5674 -0.4747  0.3854
19882TIP3    H281062   1.321   0.004  14.987 -0.8585 -0.0769  0.6885
19883TIP3   OH281063   0.379   3.731   4.450 -0.2757  0.2596  0.3238
19883TIP3    H181064   0.349   3.722   4.359 -0.0805 -0.9471  0.3602
19883TIP3    H281065   0.323   3.798   4.488  0.1543  1.3615 -0.9075
19884TIP3   OH281066   4.695   3.822   1.126 -0.1061 -0.2570 -0.1844
19884TIP3    H181067   4.771   3.865   1.088 -0.2195  1.0511  0.9980
19884TIP3    H281068   4.622   3.848   1.070  0.0227  0.0728 -0.2025
19885TIP3   OH281069   0.127   2.751   3.621  0.0472  0.1002 -0.0016
19885TIP3    H181070   0.039   2.789   3.621  1.1619  2.9036  0.9643
19885TIP3    H281071   0.147   2.738   3.713  0.7426 -0.3948 -0.2134
19886TIP3   OH281072   2.147   1.047   2.963  0.2197 -0.1804 -0.0472
19886TIP3    H181073   2.058   1.076   2.984  0.2164 -1.1456  1.4810
19886TIP3    H281074   2.203   1.109   3.009  0.3166  0.0954 -0.5422
19887TIP3   OH281075   2.533   4.458   0.013  0.1864 -0.3328  0.5312
19887TIP3    H181076   2.570   4.457   0.101  0.2727 -0.2414  0.4966
19887TIP3    H281077   2.575   4.533  -0.030 -0.1946 -0.1035  0.5568
19888TIP3   OH281078   1.210   5.646  13.654  0.4607 -0.4793  0.0524
19888TIP3    H181079   1.274   5.702  13.699 -0.4720  0.6983 -0.0469
19888TIP3    H281080   1.145   5.625  13.721 -0.2552  0.2302 -0.3966
19889TIP3   OH281081   5.558   1.441  16.696 -0.4376  0.7771 -0.1018
19889TIP3    H181082   5.531   1.350  16.681  0.3179  0.5846 -0.3653
19889TIP3    H281083   5.650   1.442  16.672 -0.2894  1.4829  0.4603
19890TIP3   OH281084   0.541   6.474  11.693 -0.0357  0.4964 -0.1803
19890TIP3    H181085   0.577   6.534  11.758  0.5494 -0.0398 -0.0094
19890TIP3    H281086   0.448   6.467  11.716 -0.1281  1.3746 -0.2358
19891TIP3   OH281087   5.398   2.592   6.045  0.3533 -0.4248  0.1018
19891TIP3    H181088   5.312   2.580   6.086 -0.3977 -0.6259 -1.4426
19891TIP3    H281089   5.433   2.672   6.084 -0.8182  0.0005  0.3249
19892TIP3   OH281090   4.218   5.712  16.003 -0.1218 -0.4102 -0.6765
19892TIP3    H181091   4.303   5.736  15.966  1.2488  0.2870  2.5733
19892TIP3    H281092   4.237   5.637  16.060 -1.4051  0.4066  0.9324
19893TIP3   OH281093   6.090   6.688   4.612 -0.0576 -0.0023 -0.5098
19893TIP3    H181094   6.026   6.649   4.553  1.0819 -1.8496 -0.5976
19893TIP3    H281095   6.173   6.650   4.585  0.7339  0.4768  1.1506
19894TIP3   OH281096   5.191   4.110   3.705  0.1693 -0.3080  0.3924
19894TIP3    H181097   5.256   4.059   3.754 -0.5161 -0.6954  0.9193
19894TIP3    H281098   5.243   4.165   3.647  0.9542 -0.9271  0.4892
19895TIP3   OH281099   5.950   5.642   0.950  0.4986 -0.8014  0.1560
19895TIP3    H181100   5.894   5.644   0.873  1.2003  0.6021 -0.3467
19895TIP3    H281101   5.943   5.730   0.987  1.1151 -1.0987  1.0036
19896TIP3   OH281102   0.913   5.384   1.012  0.1147  0.1457  0.0692
19896TIP3    H181103   0.934   5.383   1.105 -2.7292 -0.4824  0.8249
19896TIP3    H281104   0.863   5.304   0.998  2.4203 -0.9765 -2.6064
19897TIP3   OH281105   6.253   2.492   0.364  0.1775 -0.8242 -0.6624
19897TIP3    H181106   6.288   2.571   0.322  0.0415 -0.6581 -0.4666
19897TIP3    H281107   6.311   2.476   0.438 -2.3675  1.7995  2.1572
19898TIP3   OH281108   4.344   6.097   3.307  0.0366  0.2488  0.0457
19898TIP3    H181109   4.357   6.133   3.395  1.3946  0.2310 -0.1268
19898TIP3    H281110   4.349   6.002   3.319  0.1900  0.2454 -0.0534
19899TIP3   OH281111   4.093   4.309   3.715 -0.0779 -0.1718 -0.3547
19899TIP3    H181112   4.079   4.229   3.663 -0.3105 -0.2162 -0.2242
19899TIP3    H281113   4.188   4.311   3.729 -0.0085 -0.1521 -0.7943
19900TIP3   OH281114   5.352   0.537  16.724 -0.3061 -0.1370 -0.5821
19900TIP3    H181115   5.412   0.467  16.747 -1.0612 -0.6292 -0.0396
19900TIP3    H281116   5.364   0.551  16.631 -1.1920 -2.0320 -1.0258
19901TIP3   OH281117   3.987   5.054   5.953 -0.5078  0.7766  0.1114
19901TIP3    H181118   4.077   5.088   5.951 -0.2295  0.0364 -0.9639
19901TIP3    H281119   3.936   5.122   5.909 -0.4053  1.0096  0.3485
19902TIP3   OH281120   2.857   0.948  11.223 -0.6757  0.6776 -0.0084
19902TIP3    H181121   2.782   0.948  11.164 -0.0044 -1.0746 -0.9268
19902TIP3    H281122   2.859   0.860  11.261  1.3267  0.4169 -0.5869
19903TIP3   OH281123   2.085   4.133  12.743 -0.3834  0.3317  0.0896
19903TIP3    H181124   2.093   4.063  12.808  0.3243  0.3896  0.0726
19903TIP3    H281125   1.994   4.129  12.715 -0.2475 -0.9226 -0.2691
19904TIP3   OH281126   5.982   3.345  14.432  0.3724  0.0504 -0.6385
19904TIP3    H181127   6.028   3.302  14.359 -0.2193  1.1972 -1.7192
19904TIP3    H281128   6.047   3.406  14.469  0.6210 -0.4156 -0.2938
19905TIP3   OH281129   5.621   1.387   5.090  0.0867  0.7205  0.8269
19905TIP3    H181130   5.694   1.440   5.124  0.4947 -0.7775  2.3973
19905TIP3    H281131   5.583   1.345   5.167 -1.0546 -0.2727 -0.2227
19906TIP3   OH281132   0.397   6.631  14.916 -0.2650 -0.1731  0.8666
19906TIP3    H181133   0.456   6.706  14.927 -0.5955  0.1306  0.5813
19906TIP3    H281134   0.363   6.614  15.003 -0.5467  0.3080  0.8557
19907TIP3   OH281135   1.944   2.651  14.892 -0.5866 -0.7582 -0.3803
19907TIP3    H181136   1.882   2.594  14.846  0.4940 -1.4946 -0.9613
19907TIP3    H281137   1.965   2.603  14.972 -0.9047 -0.4186 -0.0891
19908TIP3   OH281138   2.910   6.463  15.551  0.2076  0.6353 -0.6645
19908TIP3    H181139   2.906   6.402  15.626  0.6661  0.0814 -1.0855
19908TIP3    H281140   2.840   6.526  15.569 -0.1132  0.1352 -0.0879
19909TIP3   OH281141   4.354   1.176  15.454 -0.0379  0.2365  0.0605
19909TIP3    H181142   4.427   1.131  15.413 -0.5184 -1.0817  0.5756
19909TIP3    H281143   4.394   1.228  15.524  0.5161  0.4914 -0.4378
19910TIP3   OH281144   0.327   4.085  12.046  0.4832  0.2286  0.0376
19910TIP3    H181145   0.366   4.092  12.133 -0.1164  0.1087  0.3225
19910TIP3    H281146   0.343   4.171  12.006  1.0980  0.1541  0.1158
19911TIP3   OH281147   2.292   1.667   4.195  0.2573  0.2567 -0.4923
19911TIP3    H181148   2.223   1.676   4.131 -0.1251  0.1037 -0.1050
19911TIP3    H281149   2.261   1.715   4.272 -0.6520 -2.0146  0.6689
19912TIP3   OH281150   2.722   5.462  14.482 -0.4323 -0.4132 -0.0877
19912TIP3    H181151   2.704   5.404  14.409  1.1467 -0.2865 -0.6094
19912TIP3    H281152   2.674   5.424  14.556 -1.9594 -0.5909 -1.1364
19913TIP3   OH281153   5.336   1.192   4.238  0.7940 -0.5455  0.1117
19913TIP3    H181154   5.261   1.133   4.228 -1.0143  1.2994  1.8035
19913TIP3    H281155   5.350   1.229   4.151 -0.3560 -0.8286 -0.2049
19914TIP3   OH281156   6.508   5.265  13.800  0.2199  0.1237 -0.4193
19914TIP3    H181157   6.567   5.279  13.726 -1.1790  1.9763 -1.2885
19914TIP3    H281158   6.491   5.171  13.800  2.3574 -0.3105 -0.7290
19915TIP3   OH281159   3.518   6.185  12.710  0.5032 -0.0426  0.3186
19915TIP3    H181160   3.450   6.147  12.766  2.2630 -0.7885  2.0430
19915TIP3    H281161   3.581   6.224  12.771  0.9743  1.8381 -1.2760
19916TIP3   OH281162   5.348   4.024   5.123  0.1952 -0.3695  0.0971
19916TIP3    H181163   5.417   3.977   5.076 -0.3476 -0.2399 -0.8582
19916TIP3    H281164   5.287   4.051   5.055  0.5415  1.8222  0.5912
19917TIP3   OH281165   4.209   2.772   4.611 -0.7037 -0.4815 -0.3708
19917TIP3    H181166   4.114   2.774   4.598 -1.0176 -3.7229  0.5213
19917TIP3    H281167   4.220   2.749   4.703  0.9939 -0.0578 -0.4350
19918TIP3   OH281168   1.491   5.161   0.232  0.7316  0.2834 -0.9161
19918TIP3    H181169   1.423   5.094   0.240  0.4885  0.4757 -1.3465
19918TIP3    H281170   1.449   5.242   0.259  0.8825  0.3507 -0.8794
19919TIP3   OH281171   3.195   3.778   0.514  0.5580 -0.0780  0.1515
19919TIP3    H181172   3.288   3.763   0.493  0.7560  1.2979 -0.0455
19919TIP3    H281173   3.189   3.872   0.530 -1.1920  0.2335 -1.8826
19920TIP3   OH281174   3.160   6.138  14.878  0.3561 -0.1820 -0.4016
19920TIP3    H181175   3.069   6.111  14.864 -0.4311  2.4752 -0.8129
19920TIP3    H281176   3.187   6.177  14.795  2.0058 -1.1486 -0.3720
19921TIP3   OH281177   5.446   3.017  16.873 -0.2318  0.2967  0.3645
19921TIP3    H181178   5.535   2.991  16.898  0.1224  2.1668  1.1905
19921TIP3    H281179   5.392   2.995  16.948 -0.5264 -0.9956 -0.2016
19922TIP3   OH281180   2.997   0.353   6.589 -0.2872 -0.3325 -0.4069
19922TIP3    H181181   2.906   0.325   6.578 -0.1182 -1.1428  0.2525
19922TIP3    H281182   3.049   0.280   6.555  0.1211  0.4904 -1.6189
19923TIP3   OH281183   5.225   5.038   5.908 -0.4215 -0.5058 -0.1529
19923TIP3    H181184   5.263   5.047   5.821 -0.1819  0.5114  0.0380
19923TIP3    H281185   5.175   4.957   5.905  0.3534 -0.9675 -0.9448
19924TIP3   OH281186   0.032   5.725  10.990  0.1710 -0.4121  0.4044
19924TIP3    H181187   0.114   5.695  10.951  1.1077  0.9055  1.2429
19924TIP3    H281188   0.046   5.716  11.084 -0.8284 -0.6036  0.5379
19925TIP3   OH281189   3.051   4.692  11.751 -0.1070 -0.4769 -0.2294
19925TIP3    H181190   3.012   4.605  11.751 -2.7014  0.5169 -2.5605
19925TIP3    H281191   3.104   4.695  11.671  0.6456 -0.1664  0.2694
19926TIP3   OH281192   0.231   3.489  17.035  0.1470 -0.2093  0.1511
19926TIP3    H181193   0.181   3.528  16.964  2.1384  0.2259 -1.0861
19926TIP3    H281194   0.261   3.563  17.087 -0.5431 -0.4737  0.9545
19927TIP3   OH281195   1.934   4.285  13.166  0.1648 -0.3915  0.4153
19927TIP3    H181196   1.949   4.378  13.150  0.3064 -0.7809 -2.1046
19927TIP3    H281197   1.915   4.279  13.260 -1.3192  2.3738  0.3906
19928TIP3   OH281198   5.013   4.406  13.952  0.0396  0.0079 -0.5970
19928TIP3    H181199   4.983   4.476  14.010  0.4811 -0.5001  0.2577
19928TIP3    H281200   4.944   4.340  13.956  0.9618 -0.9316  0.9706
19929TIP3   OH281201   4.677   4.059   1.331  0.0651 -0.5416  0.4543
19929TIP3    H181202   4.708   3.969   1.325 -0.8819 -0.9755  1.6393
19929TIP3    H281203   4.599   4.054   1.386 -1.5760  0.6350 -1.6005
19930TIP3   OH281204   0.744   1.255   0.784  0.5572 -0.3769  0.1668
19930TIP3    H181205   0.735   1.237   0.691 -1.7005 -0.3366  0.3124
19930TIP3    H281206   0.810   1.193   0.815 -2.7163 -4.5950 -0.4299
19931TIP3   OH281207   3.265   0.890   4.956 -0.5091 -0.4000  0.0382
19931TIP3    H181208   3.198   0.828   4.929 -0.2909 -0.7360  0.2597
19931TIP3    H281209   3.253   0.965   4.898 -1.2618 -0.3371  0.2620
19932TIP3   OH281210   3.142   3.266   1.799  0.6768 -0.0973  0.1041
19932TIP3    H181211   3.180   3.350   1.773  0.1679 -0.1383 -0.7917
19932TIP3    H281212   3.103   3.284   1.885  0.3489  0.6580 -0.1908
19933TIP3   OH281213   2.726   5.690   0.342 -0.0570 -0.0679  0.1296
19933TIP3    H181214   2.637   5.715   0.368 -0.5478 -0.0259 -1.4852
19933TIP3    H281215   2.734   5.598   0.365 -0.0712  0.2229  1.3760
19934TIP3   OH281216   6.640   1.228  16.871 -0.1317 -0.7016 -0.0354
19934TIP3    H181217   6.726   1.202  16.838  1.1600  1.9700  0.9766
19934TIP3    H281218   6.606   1.289  16.806 -1.0165 -1.2213 -0.0881
19935TIP3   OH281219   1.704   4.640   1.224  0.1651 -0.1889 -0.4102
19935TIP3    H181220   1.705   4.590   1.143 -1.7854 -0.1373 -0.5059
19935TIP3    H281221   1.685   4.576   1.292  3.4985 -0.5684  0.3709
19936TIP3   OH281222   5.142   1.108   4.439 -0.1505 -0.2461 -0.0082
19936TIP3    H181223   5.051   1.139   4.444 -0.0216  0.1647 -0.1922
19936TIP3    H281224   5.136   1.015   4.462 -0.7071 -0.3806 -0.6500
19937TIP3   OH281225   1.039   0.742  13.511  0.1274 -0.3705  0.1376
19937TIP3    H181226   0.998   0.725  13.426  1.0703 -2.8610  0.0915
19937TIP3    H281227   0.973   0.791  13.560 -2.3017 -2.7332 -0.5000
19938TIP3   OH281228   1.115   5.951   4.510  0.1081  0.1259  0.6745
19938TIP3    H181229   1.022   5.969   4.496  0.1851 -0.8182 -1.2247
19938TIP3    H281230   1.131   5.868   4.467  1.9469  0.4783  0.5920
19939TIP3   OH281231   5.543   6.546  17.240  0.7307  0.0633 -0.4551
19939TIP3    H181232   5.600   6.520  17.312 -0.5071 -2.0304 -0.1584
19939TIP3    H281233   5.601   6.551  17.164  1.8544  1.2281  0.4334
19940TIP3   OH281234   6.185   5.602  14.584  0.3275 -0.0679  0.4759
19940TIP3    H181235   6.204   5.657  14.508 -1.1733 -0.4190 -0.1802
19940TIP3    H281236   6.092   5.617  14.602 -0.0960 -2.2489  0.3823
19941TIP3   OH281237   4.979   3.444   0.468  0.1583 -0.1485  0.6508
19941TIP3    H181238   4.965   3.531   0.506 -0.9215 -1.0014  2.3042
19941TIP3    H281239   5.051   3.457   0.407 -0.3492  2.0368  0.4037
19942TIP3   OH281240   2.314   5.138   5.432 -0.2167  0.4733 -0.2814
19942TIP3    H181241   2.323   5.215   5.375  1.7379  0.1923 -0.4306
19942TIP3    H281242   2.369   5.159   5.508 -2.6641  0.7819  1.5099
19943TIP3   OH281243   5.018   5.897  16.452  0.0297 -0.6009 -0.1931
19943TIP3    H181244   4.999   5.938  16.368  0.5793 -2.0442 -1.0642
19943TIP3    H281245   4.987   5.959  16.517  0.1535  0.8316 -1.4553
19944TIP3   OH281246   3.089   5.076  16.303 -0.3999  0.1878  0.3039
19944TIP3    H181247   3.008   5.127  16.309 -2.0975 -2.4144  1.2832
19944TIP3    H281248   3.102   5.063  16.209  0.2611  2.5808  0.0172
19945TIP3   OH281249   1.985   6.535  13.037  0.2174  0.2662 -0.0011
19945TIP3    H181250   1.998   6.615  12.986  0.1947 -0.2993 -0.9074
19945TIP3    H281251   1.993   6.564  13.128  0.0665  1.3235 -0.3069
19946TIP3   OH281252   4.363   6.673  11.853 -0.0595 -0.6618  0.1831
19946TIP3    H181253   4.305   6.605  11.817 -1.3864  0.2760  0.4985
19946TIP3    H281254   4.344   6.674  11.946  2.0673 -1.8182  0.7034
19947TIP3   OH281255   4.019   0.753  11.826  0.5671  0.0136 -0.2775
19947TIP3    H181256   4.064   0.764  11.742 -3.0901  0.0546 -2.4435
19947TIP3    H281257   3.941   0.808  11.818 -1.6894 -2.6548  1.7131
19948TIP3   OH281258   3.953   5.433   1.338 -0.2107  0.2656 -0.2202
19948TIP3    H181259   3.936   5.462   1.428  0.1722 -1.4273  0.4216
19948TIP3    H281260   3.866   5.422   1.300 -0.4076 -0.3504  0.3924
19949TIP3   OH281261   2.005   3.804   4.665 -0.1384 -0.3674 -0.5456
19949TIP3    H181262   1.917   3.809   4.703  0.9821  1.6445  2.0209
19949TIP3    H281263   2.034   3.714   4.684 -0.7172 -0.2835  0.8730
19950TIP3   OH281264   1.487   5.439   0.270  0.1208 -0.4269  0.0530
19950TIP3    H181265   1.452   5.457   0.357  0.0424 -0.4989  0.0364
19950TIP3    H281266   1.578   5.467   0.274 -0.5324  2.0301 -0.6099
19951TIP3   OH281267   0.609   4.659  15.028  0.5742  0.8760 -0.0183
19951TIP3    H181268   0.622   4.704  14.945  0.2489  1.4411  0.2310
19951TIP3    H281269   0.514   4.652  15.037  0.6064 -1.2312 -0.7716
19952TIP3   OH281270   5.021   5.988  11.190 -0.1322 -0.3086  0.0247
19952TIP3    H181271   5.028   5.895  11.172  0.7870 -0.6561  1.9406
19952TIP3    H281272   5.003   6.028  11.104  0.3263 -2.1328 -0.9688
19953TIP3   OH281273   1.716   0.752  14.450 -0.6176 -0.2234 -0.2957
19953TIP3    H181274   1.640   0.809  14.443 -1.1600 -1.0236 -1.1007
19953TIP3    H281275   1.692   0.673  14.402  1.9575  0.8320 -3.7471
19954TIP3   OH281276   3.549   4.164  11.745  0.1626 -0.0547 -0.1694
19954TIP3    H181277   3.622   4.103  11.756 -0.1317 -0.3773  0.0431
19954TIP3    H281278   3.568   4.211  11.664  0.4496 -0.3559 -0.2779
19955TIP3   OH281279   4.768   4.875  16.615 -0.2690 -0.2621 -0.2274
19955TIP3    H181280   4.780   4.920  16.699  1.0860 -2.5690  0.9397
19955TIP3    H281281   4.696   4.813  16.632 -0.5380 -0.1792 -1.0414
19956TIP3   OH281282   3.816   3.370   3.690  0.1362  0.1777  0.0385
19956TIP3    H181283   3.764   3.409   3.760 -0.6017 -0.4979 -0.1246
19956TIP3    H281284   3.772   3.288   3.669  1.0159 -0.2027 -0.4126
19957TIP3   OH281285   2.238   5.677  14.694  0.9016  0.3428 -0.1023
19957TIP3    H181286   2.183   5.754  14.682  0.3369  0.0206  0.3602
19957TIP3    H281287   2.238   5.633  14.609  0.5140  0.3943 -0.1299
19958TIP3   OH281288   4.118   4.737  10.633 -0.0737  0.6664  0.4235
19958TIP3    H181289   4.110   4.683  10.554  0.8715  1.8206 -0.5074
19958TIP3    H281290   4.057   4.809  10.620  0.0951  0.8716  0.7374
19959TIP3   OH281291   2.237   6.629  12.863 -0.6868  0.1078 -0.3024
19959TIP3    H181292   2.199   6.668  12.942  0.8293 -0.7752  0.9218
19959TIP3    H281293   2.287   6.699  12.823  4.4288 -0.8496  3.3921
19960TIP3   OH281294   1.616   3.940  14.202  0.9078  0.0783  0.1834
19960TIP3    H181295   1.640   4.016  14.254  0.9862  0.4592 -0.3977
19960TIP3    H281296   1.620   3.867  14.263  0.2904  0.6120  0.8816
19961TIP3   OH281297   4.467   3.679  12.405  0.0803  0.4982  0.4868
19961TIP3    H181298   4.402   3.633  12.458 -0.9565  0.4401 -0.7810
19961TIP3    H281299   4.416   3.728  12.340  1.3019 -0.5798 -1.3974
19962TIP3   OH281300   4.740   1.186   5.706  0.0417  0.3875 -0.3102
19962TIP3    H181301   4.828   1.148   5.714  0.0831  0.0390 -1.9429
19962TIP3    H281302   4.689   1.142   5.773  1.0954  0.5912  0.6714
19963TIP3   OH281303   4.942   3.689   0.611  0.1055 -0.0027 -0.1640
19963TIP3    H181304   4.893   3.766   0.585 -0.4499 -0.2950 -0.0017
19963TIP3    H281305   4.885   3.643   0.673  0.0392 -1.0135 -0.9435
19964TIP3   OH281306   0.204   3.010  16.951  0.1835  0.5011 -0.1193
19964TIP3    H181307   0.253   3.083  16.913  1.7863  0.1402  1.1080
19964TIP3    H281308   0.198   2.946  16.880  1.9899  0.3626 -0.2185
19965TIP3   OH281309   1.153   2.776   3.673  0.2508  0.1751 -0.3059
19965TIP3    H181310   1.136   2.682   3.669  0.7382  0.1126 -1.2072
19965TIP3    H281311   1.124   2.809   3.588  1.4668  0.5924 -0.5784
19966LIG     O181312   3.660   3.896   2.335 -0.8017  1.0132  0.0747
19966LIG     O281313   3.647   4.038   2.546 -0.0803 -0.6155  0.1263
19966LIG     O381314   3.398   3.996   2.228  0.3536  0.0911 -0.3225
19966LIG     O481315   3.749   4.224   2.644  0.3746 -0.1382 -0.1009
19966LIG     O581316   3.617   4.209   2.299 -0.7259  0.7243  0.4183
19966LIG     O681317   3.614   4.479   2.345 -0.1462  0.6480  0.3339
19966LIG     O781318   3.844   4.565   2.516 -0.0966 -0.2949 -0.1703
19966LIG     O881319   3.786   4.411   2.855  0.5210  0.2391  0.1079
19966LIG     O981320   3.984   4.469   2.773  0.1033  0.2309  0.1583
19966LIG      N81321   3.697   3.415   2.469  0.5802 -0.0413 -0.2016
19966LIG     C181322   3.691   3.699   2.446  0.6598 -0.1516  0.1313
19966LIG     C281323   3.700   3.630   2.581  0.0950 -0.0426  0.0827
19966LIG     C381324   3.748   3.840   2.436  0.4861 -0.8954 -0.5373
19966LIG     C481325   3.624   3.499   2.563  0.8450 -0.0124 -0.2607
19966LIG     C581326   3.754   3.614   2.334 -0.0926 -0.4898 -0.4472
19966LIG     C681327   3.547   3.708   2.399 -0.6563 -1.0148  0.2092
19966LIG     C781328   3.471   3.517   2.520 -0.2894  0.3839 -0.0322
19966LIG     C881329   3.700   3.469   2.332 -0.2724 -0.1767 -0.1837
19966LIG     C981330   3.739   3.928   2.562 -0.0182 -0.6495  0.5571
19966LIG    C1081331   3.440   3.637   2.436 -0.0423  0.1516  0.3404
19966LIG    C1181332   3.641   3.722   2.682 -0.2219 -0.1775  0.2139
19966LIG    C1281333   3.536   3.833   2.339  0.6515  0.3897  0.3026
19966LIG    C1381334   3.669   3.857   2.675  0.1042  0.2017 -0.0642
19966LIG    C1481335   3.825   3.371   2.517  0.0941  0.7980  0.3384
19966LIG    C1581336   3.312   3.675   2.390  0.1660 -0.3241  0.6960
19966LIG    C1681337   3.419   3.869   2.282  1.1227 -0.1983 -0.0424
19966LIG    C1781338   3.306   3.789   2.306  0.1800  0.1536  0.7615
19966LIG    C1881339   3.728   4.157   2.517 -0.1507 -0.3234 -0.1295
19966LIG    C1981340   3.643   4.252   2.431 -0.0271  0.4820  0.2772
19966LIG    C2081341   3.704   4.389   2.410 -0.3939 -0.0565  0.6534
19966LIG    C2181342   3.758   4.451   2.537 -0.1671 -0.3136  0.1758
19966LIG    C2281343   3.828   4.343   2.614  0.6861 -0.2897 -0.2743
19966LIG    C2381344   3.876   4.413   2.748 -0.2224 -1.1047 -0.2301
19966LIG     H181345   3.809   3.614   2.598  0.4036  2.4087  0.8280
19966LIG     H281346   3.851   3.839   2.395  0.3531  1.9352 -1.1309
19966LIG     H381347   3.628   3.444   2.660  0.1607 -1.1835 -0.8826
19966LIG     H481348   3.862   3.601   2.355 -0.9410 -2.0097  4.2252
19966LIG     H581349   3.740   3.656   2.232 -3.0135 -0.3490 -0.0953
19966LIG     H681350   3.410   3.514   2.613 -1.1805  0.7918 -0.5875
19966LIG     H781351   3.429   3.437   2.454 -2.9798 -0.4677  2.5027
19966LIG     H881352   3.606   3.453   2.275  0.7236 -1.4123 -1.6000
19966LIG     H981353   3.766   3.409   2.265 -0.2801  0.5842 -0.8917
19966LIG    H1081354   3.838   3.963   2.597  0.3542 -1.4479  0.3271
19966LIG    H1181355   3.576   3.673   2.756 -0.2757  0.0566  0.3260
19966LIG    H1281356   3.639   3.921   2.759  0.6241  0.8066 -0.3353
19966LIG    H1381357   3.906   3.397   2.446  1.5994 -0.0835  1.6717
19966LIG    H1481358   3.839   3.263   2.538  2.3595  0.5120 -2.1718
19966LIG    H1581359   3.865   3.414   2.612 -0.2745 -0.1046  0.9103
19966LIG    H1681360   3.226   3.619   2.424 -1.5854  0.9550 -1.3660
19966LIG    H1781361   3.212   3.817   2.261  0.6943  1.0448  0.2229
19966LIG    H1881362   3.822   4.135   2.462 -0.2430 -2.2033  0.4201
19966LIG    H1981363   3.548   4.260   2.487  0.7602 -0.8449  1.8833
19966LIG    H2081364   3.796   4.383   2.348  0.8040 -0.1552  2.3852
19966LIG    H2181365   3.305   4.019   2.229 -0.1850 -1.9076  0.8042
19966LIG    H2281366   3.675   4.488   2.602 -0.0508 -1.2358  0.8733
19966LIG    H2381367   3.922   4.321   2.559  0.8870  2.8070 -1.3906
19966LIG    H2481368   3.541   4.151   2.305 -0.5854  0.4150 -0.5226
19966LIG    H2581369   3.608   4.440   2.257 -1.5064 -0.4266  0.8659
19966LIG    H2681370   3.784   4.635   2.490 -0.0988 -1.3785 -3.5612
19966LIG    H2781371   3.824   4.441   2.938  0.3444 -0.3124  0.4012
   6.79298   6.79298  17.25085
