Generated by CHARMM-GUI FF-Converter
20238
    1OSM      N    1   2.640   2.642  14.138
    1OSM    C15    2   2.652   2.711  14.007
    1OSM   H15A    3   2.731   2.666  13.947
    1OSM   H15B    4   2.682   2.814  14.023
    1OSM   H15C    5   2.559   2.709  13.951
    1OSM    C14    6   2.522   2.702  14.208
    1OSM   H14A    7   2.547   2.806  14.231
    1OSM   H14B    8   2.498   2.652  14.300
    1OSM   H14C    9   2.434   2.698  14.144
    1OSM    C13   10   2.620   2.497  14.105
    1OSM   H13A   11   2.700   2.461  14.041
    1OSM   H13B   12   2.529   2.488  14.046
    1OSM   H13C   13   2.612   2.439  14.195
    1OSM    C12   14   2.768   2.659  14.218
    1OSM   H12A   15   2.847   2.609  14.163
    1OSM   H12B   16   2.758   2.610  14.314
    1OSM    C11   17   2.820   2.803  14.242
    1OSM   H11A   18   2.903   2.800  14.317
    1OSM   H11B   19   2.738   2.863  14.287
    1OSM      P   20   2.992   2.811  14.045
    1OSM    O13   21   3.118   2.847  14.115
    1OSM    O14   22   2.966   2.666  14.025
    1OSM    O11   23   2.985   2.885  13.903
    1OSM    O12   24   2.864   2.868  14.122
    1OSM    C1S   25   2.863   2.953  13.870
    1OSM    H1S   26   2.858   3.052  13.922
    1OSM    H1T   27   2.772   2.899  13.902
    1OSM     NF   28   2.843   2.839  13.653
    1OSM    HNF   29   2.932   2.798  13.634
    1OSM    C2S   30   2.846   2.970  13.717
    1OSM    H2S   31   2.749   3.023  13.698
    1OSM    C3S   32   2.959   3.061  13.668
    1OSM    H3S   33   3.058   3.018  13.693
    1OSM     O3   34   2.952   3.189  13.731
    1OSM    HO3   35   2.925   3.170  13.822
    1OSM    C4S   36   2.953   3.078  13.518
    1OSM    H4S   37   3.051   3.072  13.472
    1OSM    C5S   38   2.845   3.106  13.442
    1OSM    H5S   39   2.747   3.119  13.490
    1OSM    C6S   40   2.844   3.121  13.291
    1OSM    H6S   41   2.902   3.212  13.262
    1OSM    H6T   42   2.739   3.140  13.259
    1OSM    C7S   43   2.893   3.002  13.205
    1OSM    H7S   44   2.871   3.028  13.099
    1OSM    H7T   45   2.833   2.911  13.229
    1OSM    C8S   46   3.043   2.969  13.216
    1OSM    H8S   47   3.068   2.941  13.320
    1OSM    H8T   48   3.101   3.059  13.188
    1OSM    C9S   49   3.090   2.852  13.128
    1OSM    H9S   50   3.040   2.759  13.159
    1OSM    H9T   51   3.199   2.837  13.145
    1OSM   C10S   52   3.069   2.875  12.978
    1OSM   H10S   53   3.126   2.965  12.946
    1OSM   H10T   54   2.962   2.893  12.957
    1OSM   C11S   55   3.115   2.756  12.894
    1OSM   H11S   56   3.044   2.671  12.909
    1OSM   H11T   57   3.215   2.722  12.928
    1OSM   C12S   58   3.119   2.793  12.746
    1OSM   H12S   59   3.192   2.875  12.729
    1OSM   H12T   60   3.018   2.831  12.719
    1OSM   C13S   61   3.153   2.674  12.655
    1OSM   H13S   62   3.102   2.584  12.695
    1OSM   H13T   63   3.262   2.654  12.655
    1OSM   C14S   64   3.101   2.698  12.512
    1OSM   H14S   65   3.169   2.767  12.457
    1OSM   H14T   66   3.002   2.748  12.522
    1OSM   C15S   67   3.081   2.566  12.437
    1OSM   H15S   68   3.015   2.504  12.501
    1OSM   H15T   69   3.178   2.514  12.426
    1OSM   C16S   70   3.012   2.578  12.299
    1OSM   H16S   71   2.971   2.479  12.271
    1OSM   H16T   72   3.086   2.607  12.222
    1OSM   C17S   73   2.899   2.681  12.299
    1OSM   H17S   74   2.947   2.782  12.304
    1OSM   H17T   75   2.836   2.668  12.390
    1OSM   C18S   76   2.809   2.675  12.176
    1OSM   H18S   77   2.748   2.582  12.179
    1OSM   H18T   78   2.869   2.677  12.083
    1OSM   H18U   79   2.739   2.761  12.173
    1OSM    C1F   80   2.732   2.765  13.662
    1OSM     OF   81   2.631   2.816  13.708
    1OSM    C2F   82   2.736   2.619  13.628
    1OSM    H2F   83   2.680   2.564  13.707
    1OSM    H2G   84   2.841   2.582  13.629
    1OSM    C3F   85   2.669   2.586  13.492
    1OSM    H3F   86   2.566   2.629  13.487
    1OSM    H3G   87   2.658   2.475  13.487
    1OSM    C4F   88   2.752   2.633  13.372
    1OSM    H4F   89   2.859   2.615  13.397
    1OSM    H4G   90   2.740   2.742  13.356
    1OSM    C5F   91   2.722   2.557  13.241
    1OSM    H5F   92   2.625   2.589  13.198
    1OSM    H5G   93   2.715   2.448  13.264
    1OSM    C6F   94   2.835   2.579  13.140
    1OSM    H6F   95   2.931   2.564  13.193
    1OSM    H6G   96   2.834   2.685  13.106
    1OSM    C7F   97   2.835   2.486  13.018
    1OSM    H7F   98   2.811   2.382  13.046
    1OSM    H7G   99   2.940   2.487  12.979
    1OSM    C8F  100   2.742   2.536  12.906
    1OSM    H8F  101   2.741   2.647  12.910
    1OSM    H8G  102   2.638   2.502  12.927
    1OSM    C9F  103   2.790   2.491  12.770
    1OSM    H9F  104   2.884   2.433  12.766
    1OSM   C10F  105   2.722   2.516  12.658
    1OSM   H10F  106   2.761   2.481  12.561
    1OSM   C11F  107   2.591   2.590  12.656
    1OSM   H11F  108   2.604   2.693  12.696
    1OSM   H11G  109   2.518   2.538  12.723
    1OSM   C12F  110   2.528   2.596  12.517
    1OSM   H12F  111   2.417   2.588  12.526
    1OSM   H12G  112   2.559   2.510  12.454
    1OSM   C13F  113   2.563   2.726  12.444
    1OSM   H13F  114   2.591   2.700  12.339
    1OSM   H13G  115   2.652   2.773  12.492
    1OSM   C14F  116   2.447   2.825  12.443
    1OSM   H14F  117   2.405   2.833  12.546
    1OSM   H14G  118   2.366   2.788  12.376
    1OSM   C15F  119   2.488   2.966  12.401
    1OSM   H15F  120   2.560   3.006  12.476
    1OSM   H15G  121   2.397   3.029  12.406
    1OSM   C16F  122   2.550   2.978  12.261
    1OSM   H16F  123   2.473   3.015  12.190
    1OSM   H16G  124   2.581   2.879  12.222
    1OSM   C17F  125   2.670   3.074  12.256
    1OSM   H17F  126   2.643   3.169  12.308
    1OSM   H17G  127   2.686   3.099  12.150
    1OSM   C18F  128   2.801   3.020  12.314
    1OSM   H18F  129   2.784   2.969  12.411
    1OSM   H18G  130   2.875   3.100  12.328
    1OSM   H18H  131   2.844   2.946  12.243
    2OSM      N  132   1.648   1.905  14.113
    2OSM    C15  133   1.712   2.035  14.149
    2OSM   H15A  134   1.817   2.036  14.122
    2OSM   H15B  135   1.699   2.057  14.254
    2OSM   H15C  136   1.660   2.115  14.095
    2OSM    C14  137   1.674   1.882  13.967
    2OSM   H14A  138   1.632   1.962  13.906
    2OSM   H14B  139   1.634   1.787  13.935
    2OSM   H14C  140   1.780   1.881  13.944
    2OSM    C13  141   1.711   1.796  14.194
    2OSM   H13A  142   1.700   1.815  14.301
    2OSM   H13B  143   1.817   1.787  14.172
    2OSM   H13C  144   1.663   1.700  14.178
    2OSM    C12  145   1.500   1.914  14.146
    2OSM   H12A  146   1.488   1.943  14.250
    2OSM   H12B  147   1.451   1.817  14.141
    2OSM    C11  148   1.416   2.014  14.064
    2OSM   H11A  149   1.308   1.989  14.077
    2OSM   H11B  150   1.440   2.006  13.956
    2OSM      P  151   1.340   2.263  14.085
    2OSM    O13  152   1.204   2.224  14.126
    2OSM    O14  153   1.398   2.383  14.149
    2OSM    O11  154   1.339   2.278  13.927
    2OSM    O12  155   1.443   2.145  14.111
    2OSM    C1S  156   1.454   2.270  13.844
    2OSM    H1S  157   1.541   2.227  13.898
    2OSM    H1T  158   1.481   2.373  13.813
    2OSM     NF  159   1.529   2.217  13.615
    2OSM    HNF  160   1.498   2.232  13.522
    2OSM    C2S  161   1.431   2.184  13.714
    2OSM    H2S  162   1.443   2.077  13.741
    2OSM    C3S  163   1.289   2.202  13.655
    2OSM    H3S  164   1.270   2.310  13.638
    2OSM     O3  165   1.191   2.155  13.745
    2OSM    HO3  166   1.234   2.172  13.830
    2OSM    C4S  167   1.271   2.128  13.523
    2OSM    H4S  168   1.230   2.027  13.531
    2OSM    C5S  169   1.295   2.183  13.402
    2OSM    H5S  170   1.337   2.285  13.399
    2OSM    C6S  171   1.280   2.124  13.264
    2OSM    H6S  172   1.330   2.191  13.191
    2OSM    H6T  173   1.171   2.128  13.238
    2OSM    C7S  174   1.328   1.981  13.231
    2OSM    H7S  175   1.274   1.907  13.294
    2OSM    H7T  176   1.437   1.973  13.251
    2OSM    C8S  177   1.300   1.952  13.082
    2OSM    H8S  178   1.352   2.027  13.018
    2OSM    H8T  179   1.190   1.963  13.065
    2OSM    C9S  180   1.340   1.810  13.037
    2OSM    H9S  181   1.293   1.789  12.938
    2OSM    H9T  182   1.295   1.739  13.110
    2OSM   C10S  183   1.491   1.785  13.026
    2OSM   H10S  184   1.508   1.676  13.015
    2OSM   H10T  185   1.540   1.816  13.121
    2OSM   C11S  186   1.561   1.854  12.908
    2OSM   H11S  187   1.670   1.834  12.917
    2OSM   H11T  188   1.548   1.964  12.914
    2OSM   C12S  189   1.514   1.803  12.770
    2OSM   H12S  190   1.414   1.845  12.746
    2OSM   H12T  191   1.503   1.693  12.776
    2OSM   C13S  192   1.613   1.833  12.656
    2OSM   H13S  193   1.576   1.785  12.563
    2OSM   H13T  194   1.711   1.787  12.680
    2OSM   C14S  195   1.634   1.983  12.629
    2OSM   H14S  196   1.712   1.996  12.551
    2OSM   H14T  197   1.675   2.030  12.722
    2OSM   C15S  198   1.507   2.059  12.587
    2OSM   H15S  199   1.532   2.168  12.578
    2OSM   H15T  200   1.430   2.050  12.666
    2OSM   C16S  201   1.448   2.013  12.453
    2OSM   H16S  202   1.353   2.070  12.435
    2OSM   H16T  203   1.421   1.905  12.458
    2OSM   C17S  204   1.541   2.038  12.334
    2OSM   H17S  205   1.635   1.978  12.347
    2OSM   H17T  206   1.571   2.145  12.333
    2OSM   C18S  207   1.479   2.002  12.199
    2OSM   H18S  208   1.550   2.024  12.117
    2OSM   H18T  209   1.386   2.061  12.182
    2OSM   H18U  210   1.453   1.894  12.195
    2OSM    C1F  211   1.657   2.233  13.642
    2OSM     OF  212   1.711   2.171  13.732
    2OSM    C2F  213   1.721   2.341  13.562
    2OSM    H2F  214   1.800   2.390  13.624
    2OSM    H2G  215   1.645   2.418  13.537
    2OSM    C3F  216   1.783   2.288  13.432
    2OSM    H3F  217   1.879   2.238  13.456
    2OSM    H3G  218   1.804   2.376  13.367
    2OSM    C4F  219   1.703   2.186  13.349
    2OSM    H4F  220   1.597   2.218  13.337
    2OSM    H4G  221   1.704   2.087  13.401
    2OSM    C5F  222   1.766   2.171  13.211
    2OSM    H5F  223   1.791   2.064  13.192
    2OSM    H5G  224   1.862   2.229  13.209
    2OSM    C6F  225   1.676   2.224  13.099
    2OSM    H6F  226   1.626   2.318  13.132
    2OSM    H6G  227   1.596   2.149  13.078
    2OSM    C7F  228   1.758   2.252  12.973
    2OSM    H7F  229   1.815   2.159  12.951
    2OSM    H7G  230   1.832   2.333  12.993
    2OSM    C8F  231   1.672   2.286  12.850
    2OSM    H8F  232   1.592   2.210  12.843
    2OSM    H8G  233   1.741   2.267  12.764
    2OSM    C9F  234   1.612   2.425  12.846
    2OSM    H9F  235   1.558   2.455  12.937
    2OSM   C10F  236   1.622   2.512  12.743
    2OSM   H10F  237   1.574   2.611  12.753
    2OSM   C11F  238   1.694   2.487  12.613
    2OSM   H11F  239   1.721   2.379  12.604
    2OSM   H11G  240   1.790   2.543  12.613
    2OSM   C12F  241   1.621   2.519  12.482
    2OSM   H12F  242   1.602   2.629  12.473
    2OSM   H12G  243   1.523   2.466  12.480
    2OSM   C13F  244   1.707   2.470  12.365
    2OSM   H13F  245   1.754   2.374  12.397
    2OSM   H13G  246   1.792   2.540  12.349
    2OSM   C14F  247   1.636   2.440  12.232
    2OSM   H14F  248   1.607   2.534  12.181
    2OSM   H14G  249   1.544   2.381  12.253
    2OSM   C15F  250   1.730   2.356  12.145
    2OSM   H15F  251   1.769   2.275  12.209
    2OSM   H15G  252   1.817   2.417  12.113
    2OSM   C16F  253   1.669   2.288  12.022
    2OSM   H16F  254   1.647   2.363  11.942
    2OSM   H16G  255   1.572   2.242  12.052
    2OSM   C17F  256   1.766   2.181  11.971
    2OSM   H17F  257   1.800   2.121  12.059
    2OSM   H17G  258   1.856   2.232  11.929
    2OSM   C18F  259   1.710   2.082  11.868
    2OSM   H18F  260   1.781   1.999  11.851
    2OSM   H18G  261   1.691   2.133  11.771
    2OSM   H18H  262   1.614   2.038  11.904
    3OSM      N  263   2.901   1.628  14.136
    3OSM    C15  264   2.946   1.765  14.168
    3OSM   H15A  265   2.979   1.817  14.079
    3OSM   H15B  266   3.028   1.762  14.241
    3OSM   H15C  267   2.864   1.819  14.214
    3OSM    C14  268   2.794   1.638  14.035
    3OSM   H14A  269   2.718   1.709  14.063
    3OSM   H14B  270   2.744   1.541  14.024
    3OSM   H14C  271   2.832   1.664  13.937
    3OSM    C13  272   3.016   1.551  14.075
    3OSM   H13A  273   3.042   1.591  13.977
    3OSM   H13B  274   2.988   1.447  14.062
    3OSM   H13C  275   3.104   1.553  14.137
    3OSM    C12  276   2.843   1.558  14.257
    3OSM   H12A  277   2.748   1.605  14.281
    3OSM   H12B  278   2.908   1.569  14.343
    3OSM    C11  279   2.812   1.407  14.240
    3OSM   H11A  280   2.751   1.377  14.328
    3OSM   H11B  281   2.909   1.352  14.245
    3OSM      P  282   2.699   1.227  14.100
    3OSM    O13  283   2.802   1.142  14.161
    3OSM    O14  284   2.561   1.213  14.154
    3OSM    O11  285   2.692   1.207  13.944
    3OSM    O12  286   2.744   1.379  14.116
    3OSM    C1S  287   2.713   1.309  13.846
    3OSM    H1S  288   2.818   1.348  13.850
    3OSM    H1T  289   2.643   1.394  13.860
    3OSM     NF  290   2.728   1.343  13.599
    3OSM    HNF  291   2.656   1.398  13.558
    3OSM    C2S  292   2.691   1.249  13.704
    3OSM    H2S  293   2.758   1.160  13.697
    3OSM    C3S  294   2.545   1.204  13.683
    3OSM    H3S  295   2.480   1.293  13.668
    3OSM     O3  296   2.488   1.131  13.792
    3OSM    HO3  297   2.560   1.129  13.857
    3OSM    C4S  298   2.545   1.120  13.558
    3OSM    H4S  299   2.589   1.019  13.572
    3OSM    C5S  300   2.499   1.156  13.437
    3OSM    H5S  301   2.452   1.254  13.424
    3OSM    C6S  302   2.503   1.067  13.315
    3OSM    H6S  303   2.412   1.083  13.254
    3OSM    H6T  304   2.504   0.961  13.344
    3OSM    C7S  305   2.626   1.080  13.226
    3OSM    H7S  306   2.625   0.997  13.151
    3OSM    H7T  307   2.719   1.068  13.287
    3OSM    C8S  308   2.627   1.211  13.151
    3OSM    H8S  309   2.724   1.217  13.096
    3OSM    H8T  310   2.625   1.296  13.224
    3OSM    C9S  311   2.510   1.227  13.052
    3OSM    H9S  312   2.416   1.248  13.108
    3OSM    H9T  313   2.494   1.135  12.992
    3OSM   C10S  314   2.543   1.344  12.961
    3OSM   H10S  315   2.591   1.416  13.031
    3OSM   H10T  316   2.454   1.396  12.922
    3OSM   C11S  317   2.638   1.308  12.847
    3OSM   H11S  318   2.688   1.210  12.868
    3OSM   H11T  319   2.718   1.385  12.840
    3OSM   C12S  320   2.568   1.298  12.711
    3OSM   H12S  321   2.509   1.390  12.691
    3OSM   H12T  322   2.497   1.212  12.714
    3OSM   C13S  323   2.666   1.278  12.596
    3OSM   H13S  324   2.746   1.206  12.626
    3OSM   H13T  325   2.716   1.375  12.573
    3OSM   C14S  326   2.595   1.222  12.473
    3OSM   H14S  327   2.496   1.272  12.461
    3OSM   H14T  328   2.576   1.114  12.490
    3OSM   C15S  329   2.675   1.240  12.344
    3OSM   H15S  330   2.643   1.163  12.271
    3OSM   H15T  331   2.783   1.222  12.366
    3OSM   C16S  332   2.657   1.380  12.283
    3OSM   H16S  333   2.694   1.453  12.358
    3OSM   H16T  334   2.549   1.398  12.267
    3OSM   C17S  335   2.730   1.404  12.150
    3OSM   H17S  336   2.791   1.314  12.126
    3OSM   H17T  337   2.802   1.488  12.164
    3OSM   C18S  338   2.639   1.441  12.033
    3OSM   H18S  339   2.611   1.548  12.039
    3OSM   H18T  340   2.546   1.380  12.033
    3OSM   H18U  341   2.692   1.425  11.937
    3OSM    C1F  342   2.854   1.363  13.562
    3OSM     OF  343   2.948   1.320  13.626
    3OSM    C2F  344   2.871   1.441  13.436
    3OSM    H2F  345   2.899   1.545  13.462
    3OSM    H2G  346   2.774   1.443  13.382
    3OSM    C3F  347   2.978   1.382  13.343
    3OSM    H3F  348   2.957   1.274  13.322
    3OSM    H3G  349   3.077   1.388  13.393
    3OSM    C4F  350   2.983   1.459  13.211
    3OSM    H4F  351   2.998   1.567  13.233
    3OSM    H4G  352   2.885   1.448  13.159
    3OSM    C5F  353   3.095   1.411  13.118
    3OSM    H5F  354   3.072   1.308  13.085
    3OSM    H5G  355   3.190   1.410  13.175
    3OSM    C6F  356   3.111   1.502  12.995
    3OSM    H6F  357   3.213   1.486  12.952
    3OSM    H6G  358   3.105   1.608  13.029
    3OSM    C7F  359   3.006   1.477  12.886
    3OSM    H7F  360   2.907   1.460  12.935
    3OSM    H7G  361   3.032   1.384  12.831
    3OSM    C8F  362   2.990   1.595  12.788
    3OSM    H8F  363   2.958   1.685  12.846
    3OSM    H8G  364   2.907   1.570  12.719
    3OSM    C9F  365   3.117   1.625  12.713
    3OSM    H9F  366   3.210   1.589  12.759
    3OSM   C10F  367   3.124   1.692  12.597
    3OSM   H10F  368   3.223   1.706  12.551
    3OSM   C11F  369   3.008   1.748  12.520
    3OSM   H11F  370   3.044   1.827  12.450
    3OSM   H11G  371   2.936   1.799  12.588
    3OSM   C12F  372   2.931   1.643  12.437
    3OSM   H12F  373   2.859   1.696  12.371
    3OSM   H12G  374   2.871   1.579  12.506
    3OSM   C13F  375   3.020   1.553  12.352
    3OSM   H13F  376   2.958   1.474  12.303
    3OSM   H13G  377   3.091   1.500  12.418
    3OSM   C14F  378   3.104   1.628  12.248
    3OSM   H14F  379   3.209   1.638  12.283
    3OSM   H14G  380   3.061   1.730  12.237
    3OSM   C15F  381   3.098   1.564  12.108
    3OSM   H15F  382   3.127   1.644  12.036
    3OSM   H15G  383   2.993   1.534  12.091
    3OSM   C16F  384   3.190   1.445  12.081
    3OSM   H16F  385   3.165   1.363  12.152
    3OSM   H16G  386   3.295   1.476  12.096
    3OSM   C17F  387   3.177   1.392  11.937
    3OSM   H17F  388   3.245   1.306  11.924
    3OSM   H17G  389   3.212   1.471  11.866
    3OSM   C18F  390   3.037   1.344  11.897
    3OSM   H18F  391   3.010   1.255  11.957
    3OSM   H18G  392   3.034   1.318  11.789
    3OSM   H18H  393   2.961   1.420  11.916
    4OSM      N  394   0.535   1.892  14.188
    4OSM    C15  395   0.422   1.802  14.224
    4OSM   H15A  396   0.443   1.745  14.313
    4OSM   H15B  397   0.394   1.737  14.140
    4OSM   H15C  398   0.331   1.861  14.241
    4OSM    C14  399   0.550   1.989  14.301
    4OSM   H14A  400   0.563   1.940  14.396
    4OSM   H14B  401   0.461   2.052  14.302
    4OSM   H14C  402   0.633   2.056  14.280
    4OSM    C13  403   0.659   1.811  14.173
    4OSM   H13A  404   0.676   1.753  14.263
    4OSM   H13B  405   0.746   1.876  14.161
    4OSM   H13C  406   0.654   1.742  14.091
    4OSM    C12  407   0.502   1.975  14.064
    4OSM   H12A  408   0.413   2.034  14.087
    4OSM   H12B  409   0.474   1.911  13.982
    4OSM    C11  410   0.609   2.077  14.015
    4OSM   H11A  411   0.572   2.121  13.920
    4OSM   H11B  412   0.701   2.018  13.994
    4OSM      P  413   0.740   2.294  14.070
    4OSM    O13  414   0.680   2.392  13.976
    4OSM    O14  415   0.805   2.349  14.191
    4OSM    O11  416   0.847   2.203  13.999
    4OSM    O12  417   0.634   2.182  14.110
    4OSM    C1S  418   0.927   2.247  13.891
    4OSM    H1S  419   1.034   2.227  13.916
    4OSM    H1T  420   0.920   2.357  13.874
    4OSM     NF  421   0.756   2.215  13.721
    4OSM    HNF  422   0.685   2.148  13.739
    4OSM    C2S  423   0.888   2.175  13.759
    4OSM    H2S  424   0.957   2.212  13.680
    4OSM    C3S  425   0.895   2.020  13.762
    4OSM    H3S  426   0.810   1.982  13.822
    4OSM     O3  427   1.012   1.961  13.818
    4OSM    HO3  428   1.070   2.037  13.831
    4OSM    C4S  429   0.874   1.972  13.618
    4OSM    H4S  430   0.937   2.024  13.545
    4OSM    C5S  431   0.786   1.881  13.573
    4OSM    H5S  432   0.719   1.832  13.646
    4OSM    C6S  433   0.769   1.838  13.429
    4OSM    H6S  434   0.659   1.830  13.409
    4OSM    H6T  435   0.810   1.735  13.417
    4OSM    C7S  436   0.825   1.922  13.310
    4OSM    H7S  437   0.936   1.925  13.317
    4OSM    H7T  438   0.788   2.027  13.316
    4OSM    C8S  439   0.784   1.860  13.174
    4OSM    H8S  440   0.672   1.859  13.168
    4OSM    H8T  441   0.818   1.754  13.175
    4OSM    C9S  442   0.839   1.927  13.046
    4OSM    H9S  443   0.948   1.946  13.060
    4OSM    H9T  444   0.789   2.025  13.030
    4OSM   C10S  445   0.819   1.837  12.922
    4OSM   H10S  446   0.711   1.827  12.900
    4OSM   H10T  447   0.858   1.736  12.948
    4OSM   C11S  448   0.894   1.884  12.795
    4OSM   H11S  449   0.994   1.923  12.826
    4OSM   H11T  450   0.838   1.968  12.748
    4OSM   C12S  451   0.918   1.772  12.691
    4OSM   H12S  452   0.951   1.680  12.744
    4OSM   H12T  453   1.001   1.802  12.623
    4OSM   C13S  454   0.796   1.741  12.604
    4OSM   H13S  455   0.783   1.825  12.532
    4OSM   H13T  456   0.706   1.736  12.669
    4OSM   C14S  457   0.804   1.609  12.526
    4OSM   H14S  458   0.727   1.543  12.571
    4OSM   H14T  459   0.902   1.559  12.539
    4OSM   C15S  460   0.772   1.624  12.376
    4OSM   H15S  461   0.680   1.684  12.364
    4OSM   H15T  462   0.753   1.521  12.337
    4OSM   C16S  463   0.886   1.683  12.292
    4OSM   H16S  464   0.967   1.608  12.283
    4OSM   H16T  465   0.927   1.772  12.344
    4OSM   C17S  466   0.839   1.727  12.152
    4OSM   H17S  467   0.769   1.814  12.165
    4OSM   H17T  468   0.781   1.645  12.104
    4OSM   C18S  469   0.954   1.768  12.060
    4OSM   H18S  470   0.918   1.831  11.976
    4OSM   H18T  471   1.002   1.678  12.017
    4OSM   H18U  472   1.031   1.824  12.117
    4OSM    C1F  473   0.717   2.331  13.674
    4OSM     OF  474   0.781   2.434  13.684
    4OSM    C2F  475   0.590   2.320  13.597
    4OSM    H2F  476   0.611   2.361  13.496
    4OSM    H2G  477   0.515   2.382  13.647
    4OSM    C3F  478   0.538   2.173  13.588
    4OSM    H3F  479   0.494   2.142  13.685
    4OSM    H3G  480   0.618   2.101  13.560
    4OSM    C4F  481   0.435   2.151  13.477
    4OSM    H4F  482   0.352   2.225  13.486
    4OSM    H4G  483   0.389   2.051  13.492
    4OSM    C5F  484   0.501   2.157  13.339
    4OSM    H5F  485   0.554   2.061  13.320
    4OSM    H5G  486   0.578   2.237  13.335
    4OSM    C6F  487   0.402   2.186  13.228
    4OSM    H6F  488   0.370   2.292  13.232
    4OSM    H6G  489   0.310   2.125  13.242
    4OSM    C7F  490   0.462   2.155  13.090
    4OSM    H7F  491   0.490   2.047  13.087
    4OSM    H7G  492   0.557   2.211  13.074
    4OSM    C8F  493   0.361   2.183  12.979
    4OSM    H8F  494   0.260   2.148  13.009
    4OSM    H8G  495   0.390   2.127  12.889
    4OSM    C9F  496   0.357   2.329  12.948
    4OSM    H9F  497   0.397   2.395  13.026
    4OSM   C10F  498   0.319   2.380  12.830
    4OSM   H10F  499   0.334   2.488  12.816
    4OSM   C11F  500   0.276   2.302  12.709
    4OSM   H11F  501   0.180   2.342  12.669
    4OSM   H11G  502   0.258   2.195  12.733
    4OSM   C12F  503   0.387   2.309  12.602
    4OSM   H12F  504   0.380   2.404  12.546
    4OSM   H12G  505   0.367   2.228  12.529
    4OSM   C13F  506   0.528   2.295  12.662
    4OSM   H13F  507   0.531   2.197  12.714
    4OSM   H13G  508   0.546   2.374  12.739
    4OSM   C14F  509   0.651   2.308  12.572
    4OSM   H14F  510   0.676   2.416  12.563
    4OSM   H14G  511   0.636   2.269  12.469
    4OSM   C15F  512   0.767   2.233  12.639
    4OSM   H15F  513   0.756   2.123  12.624
    4OSM   H15G  514   0.759   2.252  12.748
    4OSM   C16F  515   0.905   2.279  12.593
    4OSM   H16F  516   0.978   2.254  12.674
    4OSM   H16G  517   0.902   2.388  12.581
    4OSM   C17F  518   0.953   2.219  12.461
    4OSM   H17F  519   1.029   2.288  12.417
    4OSM   H17G  520   0.867   2.214  12.390
    4OSM   C18F  521   1.014   2.081  12.479
    4OSM   H18F  522   1.100   2.087  12.548
    4OSM   H18G  523   1.047   2.040  12.381
    4OSM   H18H  524   0.938   2.012  12.523
    5OSM      N  525   1.071   4.212  14.204
    5OSM    C15  526   1.166   4.253  14.095
    5OSM   H15A  527   1.263   4.284  14.130
    5OSM   H15B  528   1.123   4.320  14.022
    5OSM   H15C  529   1.190   4.161  14.038
    5OSM    C14  530   1.145   4.107  14.282
    5OSM   H14A  531   1.234   4.145  14.330
    5OSM   H14B  532   1.176   4.028  14.213
    5OSM   H14C  533   1.083   4.058  14.356
    5OSM    C13  534   1.031   4.317  14.302
    5OSM   H13A  535   0.978   4.398  14.256
    5OSM   H13B  536   1.116   4.354  14.358
    5OSM   H13C  537   0.964   4.275  14.378
    5OSM    C12  538   0.948   4.146  14.142
    5OSM   H12A  539   0.867   4.217  14.129
    5OSM   H12B  540   0.909   4.075  14.215
    5OSM    C11  541   0.968   4.071  14.008
    5OSM   H11A  542   0.992   4.144  13.926
    5OSM   H11B  543   0.872   4.023  13.977
    5OSM      P  544   1.048   3.832  14.070
    5OSM    O13  545   1.177   3.769  14.100
    5OSM    O14  546   0.953   3.835  14.184
    5OSM    O11  547   0.984   3.760  13.942
    5OSM    O12  548   1.075   3.977  14.017
    5OSM    C1S  549   1.059   3.754  13.820
    5OSM    H1S  550   1.066   3.648  13.787
    5OSM    H1T  551   1.165   3.788  13.830
    5OSM     NF  552   1.023   3.968  13.692
    5OSM    HNF  553   0.948   4.031  13.703
    5OSM    C2S  554   0.993   3.827  13.698
    5OSM    H2S  555   1.036   3.780  13.607
    5OSM    C3S  556   0.839   3.808  13.697
    5OSM    H3S  557   0.793   3.888  13.759
    5OSM     O3  558   0.796   3.688  13.756
    5OSM    HO3  559   0.848   3.692  13.838
    5OSM    C4S  560   0.790   3.817  13.556
    5OSM    H4S  561   0.833   3.744  13.487
    5OSM    C5S  562   0.697   3.904  13.513
    5OSM    H5S  563   0.649   3.971  13.586
    5OSM    C6S  564   0.645   3.917  13.373
    5OSM    H6S  565   0.623   4.025  13.360
    5OSM    H6T  566   0.547   3.863  13.366
    5OSM    C7S  567   0.727   3.881  13.247
    5OSM    H7S  568   0.661   3.823  13.179
    5OSM    H7T  569   0.814   3.816  13.271
    5OSM    C8S  570   0.773   4.007  13.170
    5OSM    H8S  571   0.855   4.057  13.224
    5OSM    H8T  572   0.687   4.078  13.163
    5OSM    C9S  573   0.817   3.975  13.027
    5OSM    H9S  574   0.761   3.886  12.990
    5OSM    H9T  575   0.924   3.948  13.030
    5OSM   C10S  576   0.800   4.088  12.924
    5OSM   H10S  577   0.856   4.178  12.956
    5OSM   H10T  578   0.691   4.114  12.920
    5OSM   C11S  579   0.846   4.044  12.784
    5OSM   H11S  580   0.796   4.107  12.707
    5OSM   H11T  581   0.813   3.939  12.769
    5OSM   C12S  582   0.999   4.054  12.765
    5OSM   H12S  583   1.045   3.994  12.845
    5OSM   H12T  584   1.029   4.160  12.777
    5OSM   C13S  585   1.053   4.000  12.631
    5OSM   H13S  586   0.999   4.041  12.544
    5OSM   H13T  587   1.034   3.892  12.633
    5OSM   C14S  588   1.204   4.011  12.607
    5OSM   H14S  589   1.257   4.006  12.705
    5OSM   H14T  590   1.228   4.108  12.559
    5OSM   C15S  591   1.259   3.895  12.520
    5OSM   H15S  592   1.243   3.800  12.575
    5OSM   H15T  593   1.369   3.908  12.506
    5OSM   C16S  594   1.194   3.882  12.381
    5OSM   H16S  595   1.219   3.970  12.319
    5OSM   H16T  596   1.083   3.881  12.392
    5OSM   C17S  597   1.237   3.753  12.310
    5OSM   H17S  598   1.277   3.681  12.386
    5OSM   H17T  599   1.320   3.775  12.240
    5OSM   C18S  600   1.123   3.682  12.237
    5OSM   H18S  601   1.048   3.644  12.311
    5OSM   H18T  602   1.161   3.597  12.177
    5OSM   H18U  603   1.069   3.751  12.169
    5OSM    C1F  604   1.146   4.014  13.668
    5OSM     OF  605   1.246   3.947  13.683
    5OSM    C2F  606   1.153   4.154  13.618
    5OSM    H2F  607   1.209   4.216  13.692
    5OSM    H2G  608   1.051   4.196  13.605
    5OSM    C3F  609   1.227   4.154  13.483
    5OSM    H3F  610   1.324   4.100  13.492
    5OSM    H3G  611   1.250   4.259  13.460
    5OSM    C4F  612   1.148   4.101  13.363
    5OSM    H4F  613   1.055   4.160  13.352
    5OSM    H4G  614   1.121   3.994  13.378
    5OSM    C5F  615   1.232   4.118  13.235
    5OSM    H5F  616   1.313   4.042  13.234
    5OSM    H5G  617   1.281   4.218  13.240
    5OSM    C6F  618   1.153   4.113  13.105
    5OSM    H6F  619   1.062   4.177  13.111
    5OSM    H6G  620   1.119   4.009  13.088
    5OSM    C7F  621   1.238   4.156  12.984
    5OSM    H7F  622   1.215   4.090  12.898
    5OSM    H7G  623   1.346   4.142  13.006
    5OSM    C8F  624   1.211   4.302  12.944
    5OSM    H8F  625   1.255   4.362  13.026
    5OSM    H8G  626   1.101   4.322  12.943
    5OSM    C9F  627   1.273   4.341  12.813
    5OSM    H9F  628   1.367   4.287  12.793
    5OSM   C10F  629   1.229   4.429  12.721
    5OSM   H10F  630   1.285   4.440  12.628
    5OSM   C11F  631   1.106   4.515  12.719
    5OSM   H11F  632   1.121   4.596  12.644
    5OSM   H11G  633   1.088   4.565  12.817
    5OSM   C12F  634   0.980   4.439  12.676
    5OSM   H12F  635   0.902   4.514  12.648
    5OSM   H12G  636   0.940   4.378  12.760
    5OSM   C13F  637   1.004   4.347  12.555
    5OSM   H13F  638   1.068   4.261  12.585
    5OSM   H13G  639   1.061   4.405  12.481
    5OSM   C14F  640   0.875   4.294  12.493
    5OSM   H14F  641   0.790   4.349  12.536
    5OSM   H14G  642   0.858   4.187  12.518
    5OSM   C15F  643   0.866   4.317  12.344
    5OSM   H15F  644   0.771   4.270  12.307
    5OSM   H15G  645   0.950   4.267  12.292
    5OSM   C16F  646   0.863   4.467  12.311
    5OSM   H16F  647   0.957   4.516  12.343
    5OSM   H16G  648   0.779   4.515  12.367
    5OSM   C17F  649   0.845   4.487  12.162
    5OSM   H17F  650   0.751   4.436  12.131
    5OSM   H17G  651   0.933   4.438  12.113
    5OSM   C18F  652   0.842   4.631  12.114
    5OSM   H18F  653   0.783   4.640  12.021
    5OSM   H18G  654   0.946   4.664  12.093
    5OSM   H18H  655   0.799   4.695  12.193
    6OSM      N  656   1.462   0.974  14.261
    6OSM    C15  657   1.597   0.912  14.244
    6OSM   H15A  658   1.676   0.981  14.273
    6OSM   H15B  659   1.612   0.887  14.139
    6OSM   H15C  660   1.608   0.821  14.300
    6OSM    C14  661   1.437   0.994  14.407
    6OSM   H14A  662   1.519   1.054  14.448
    6OSM   H14B  663   1.438   0.901  14.464
    6OSM   H14C  664   1.344   1.046  14.428
    6OSM    C13  665   1.469   1.108  14.193
    6OSM   H13A  666   1.372   1.156  14.193
    6OSM   H13B  667   1.503   1.092  14.091
    6OSM   H13C  668   1.540   1.171  14.246
    6OSM    C12  669   1.357   0.889  14.194
    6OSM   H12A  670   1.259   0.925  14.223
    6OSM   H12B  671   1.367   0.786  14.230
    6OSM    C11  672   1.356   0.881  14.038
    6OSM   H11A  673   1.333   0.982  13.996
    6OSM   H11B  674   1.270   0.817  14.007
    6OSM      P  675   1.511   0.678  13.997
    6OSM    O13  676   1.654   0.663  14.030
    6OSM    O14  677   1.413   0.621  14.095
    6OSM    O11  678   1.480   0.624  13.852
    6OSM    O12  679   1.480   0.834  13.984
    6OSM    C1S  680   1.589   0.593  13.764
    6OSM    H1S  681   1.630   0.493  13.790
    6OSM    H1T  682   1.675   0.665  13.773
    6OSM     NF  683   1.642   0.509  13.545
    6OSM    HNF  684   1.727   0.552  13.518
    6OSM    C2S  685   1.544   0.593  13.615
    6OSM    H2S  686   1.443   0.548  13.607
    6OSM    C3S  687   1.538   0.746  13.570
    6OSM    H3S  688   1.636   0.795  13.589
    6OSM     O3  689   1.440   0.817  13.646
    6OSM    HO3  690   1.424   0.760  13.724
    6OSM    C4S  691   1.498   0.771  13.423
    6OSM    H4S  692   1.435   0.694  13.378
    6OSM    C5S  693   1.530   0.886  13.354
    6OSM    H5S  694   1.587   0.962  13.409
    6OSM    C6S  695   1.500   0.930  13.210
    6OSM    H6S  696   1.586   0.987  13.169
    6OSM    H6T  697   1.413   1.000  13.207
    6OSM    C7S  698   1.474   0.813  13.114
    6OSM    H7S  699   1.386   0.757  13.150
    6OSM    H7T  700   1.562   0.750  13.119
    6OSM    C8S  701   1.464   0.832  12.961
    6OSM    H8S  702   1.561   0.874  12.925
    6OSM    H8T  703   1.382   0.900  12.933
    6OSM    C9S  704   1.447   0.692  12.894
    6OSM    H9S  705   1.390   0.625  12.962
    6OSM    H9T  706   1.547   0.645  12.884
    6OSM   C10S  707   1.376   0.695  12.759
    6OSM   H10S  708   1.409   0.785  12.703
    6OSM   H10T  709   1.267   0.704  12.779
    6OSM   C11S  710   1.396   0.572  12.668
    6OSM   H11S  711   1.383   0.478  12.725
    6OSM   H11T  712   1.500   0.575  12.629
    6OSM   C12S  713   1.298   0.574  12.551
    6OSM   H12S  714   1.306   0.671  12.496
    6OSM   H12T  715   1.196   0.568  12.594
    6OSM   C13S  716   1.313   0.459  12.451
    6OSM   H13S  717   1.232   0.466  12.374
    6OSM   H13T  718   1.299   0.363  12.505
    6OSM   C14S  719   1.448   0.456  12.377
    6OSM   H14S  720   1.446   0.370  12.307
    6OSM   H14T  721   1.530   0.439  12.450
    6OSM   C15S  722   1.481   0.583  12.297
    6OSM   H15S  723   1.508   0.665  12.369
    6OSM   H15T  724   1.392   0.617  12.240
    6OSM   C16S  725   1.598   0.559  12.200
    6OSM   H16S  726   1.559   0.497  12.116
    6OSM   H16T  727   1.676   0.500  12.253
    6OSM   C17S  728   1.661   0.687  12.145
    6OSM   H17S  729   1.700   0.746  12.231
    6OSM   H17T  730   1.582   0.747  12.095
    6OSM   C18S  731   1.775   0.662  12.045
    6OSM   H18S  732   1.858   0.605  12.092
    6OSM   H18T  733   1.815   0.759  12.008
    6OSM   H18U  734   1.738   0.605  11.957
    6OSM    C1F  735   1.640   0.372  13.543
    6OSM     OF  736   1.550   0.312  13.601
    6OSM    C2F  737   1.752   0.301  13.462
    6OSM    H2F  738   1.830   0.273  13.536
    6OSM    H2G  739   1.797   0.374  13.394
    6OSM    C3F  740   1.718   0.170  13.378
    6OSM    H3F  741   1.610   0.160  13.369
    6OSM    H3G  742   1.749   0.087  13.446
    6OSM    C4F  743   1.792   0.135  13.242
    6OSM    H4F  744   1.793   0.024  13.242
    6OSM    H4G  745   1.899   0.160  13.249
    6OSM    C5F  746   1.726   0.168  13.102
    6OSM    H5F  747   1.648   0.242  13.122
    6OSM    H5G  748   1.674   0.075  13.070
    6OSM    C6F  749   1.802   0.223  12.974
    6OSM    H6F  750   1.805   0.141  12.901
    6OSM    H6G  751   1.907   0.246  12.997
    6OSM    C7F  752   1.737   0.350  12.909
    6OSM    H7F  753   1.749   0.432  12.980
    6OSM    H7G  754   1.628   0.332  12.900
    6OSM    C8F  755   1.775   0.409  12.771
    6OSM    H8F  756   1.679   0.450  12.730
    6OSM    H8G  757   1.803   0.328  12.701
    6OSM    C9F  758   1.876   0.521  12.772
    6OSM    H9F  759   1.973   0.492  12.815
    6OSM   C10F  760   1.860   0.650  12.731
    6OSM   H10F  761   1.948   0.715  12.736
    6OSM   C11F  762   1.739   0.719  12.672
    6OSM   H11F  763   1.661   0.734  12.750
    6OSM   H11G  764   1.694   0.658  12.590
    6OSM   C12F  765   1.766   0.861  12.614
    6OSM   H12F  766   1.844   0.851  12.536
    6OSM   H12G  767   1.806   0.928  12.693
    6OSM   C13F  768   1.644   0.931  12.551
    6OSM   H13F  769   1.588   0.985  12.630
    6OSM   H13G  770   1.577   0.854  12.508
    6OSM   C14F  771   1.683   1.029  12.439
    6OSM   H14F  772   1.718   0.971  12.351
    6OSM   H14G  773   1.767   1.092  12.473
    6OSM   C15F  774   1.568   1.122  12.395
    6OSM   H15F  775   1.603   1.183  12.309
    6OSM   H15G  776   1.547   1.192  12.479
    6OSM   C16F  777   1.436   1.052  12.357
    6OSM   H16F  778   1.359   1.129  12.334
    6OSM   H16G  779   1.398   0.994  12.443
    6OSM   C17F  780   1.447   0.960  12.234
    6OSM   H17F  781   1.512   0.875  12.263
    6OSM   H17G  782   1.496   1.015  12.151
    6OSM   C18F  783   1.312   0.906  12.185
    6OSM   H18F  784   1.259   0.851  12.266
    6OSM   H18G  785   1.327   0.837  12.100
    6OSM   H18H  786   1.246   0.989  12.151
    7OSM      N  787   3.036   4.817  14.257
    7OSM    C15  788   3.158   4.903  14.237
    7OSM   H15A  789   3.185   4.955  14.328
    7OSM   H15B  790   3.141   4.973  14.157
    7OSM   H15C  791   3.241   4.840  14.207
    7OSM    C14  792   3.063   4.729  14.375
    7OSM   H14A  793   3.082   4.789  14.464
    7OSM   H14B  794   3.150   4.666  14.355
    7OSM   H14C  795   2.980   4.663  14.397
    7OSM    C13  796   2.917   4.905  14.283
    7OSM   H13A  797   2.829   4.850  14.314
    7OSM   H13B  798   2.893   4.961  14.193
    7OSM   H13C  799   2.941   4.978  14.360
    7OSM    C12  800   3.014   4.735  14.130
    7OSM   H12A  801   3.007   4.804  14.046
    7OSM   H12B  802   2.917   4.687  14.136
    7OSM    C11  803   3.115   4.623  14.090
    7OSM   H11A  804   3.071   4.573  14.000
    7OSM   H11B  805   3.121   4.547  14.169
    7OSM      P  806   3.341   4.622  13.950
    7OSM    O13  807   3.396   4.734  13.874
    7OSM    O14  808   3.439   4.529  14.012
    7OSM    O11  809   3.250   4.536  13.855
    7OSM    O12  810   3.246   4.674  14.065
    7OSM    C1S  811   3.282   4.492  13.724
    7OSM    H1S  812   3.252   4.385  13.716
    7OSM    H1T  813   3.391   4.498  13.703
    7OSM     NF  814   3.287   4.672  13.561
    7OSM    HNF  815   3.292   4.756  13.615
    7OSM    C2S  816   3.201   4.567  13.613
    7OSM    H2S  817   3.176   4.494  13.533
    7OSM    C3S  818   3.067   4.619  13.673
    7OSM    H3S  819   3.088   4.700  13.747
    7OSM     O3  820   2.996   4.515  13.743
    7OSM    HO3  821   3.067   4.467  13.787
    7OSM    C4S  822   2.978   4.676  13.565
    7OSM    H4S  823   2.968   4.785  13.568
    7OSM    C5S  824   2.909   4.606  13.472
    7OSM    H5S  825   2.920   4.497  13.470
    7OSM    C6S  826   2.820   4.665  13.366
    7OSM    H6S  827   2.739   4.724  13.416
    7OSM    H6T  828   2.769   4.584  13.309
    7OSM    C7S  829   2.888   4.757  13.263
    7OSM    H7S  830   2.953   4.829  13.318
    7OSM    H7T  831   2.809   4.815  13.211
    7OSM    C8S  832   2.972   4.685  13.157
    7OSM    H8S  833   3.032   4.603  13.202
    7OSM    H8T  834   3.043   4.761  13.119
    7OSM    C9S  835   2.891   4.635  13.036
    7OSM    H9S  836   2.800   4.697  13.022
    7OSM    H9T  837   2.859   4.530  13.055
    7OSM   C10S  838   2.975   4.644  12.908
    7OSM   H10S  839   3.072   4.593  12.927
    7OSM   H10T  840   2.998   4.751  12.886
    7OSM   C11S  841   2.911   4.580  12.784
    7OSM   H11S  842   2.819   4.635  12.754
    7OSM   H11T  843   2.879   4.477  12.813
    7OSM   C12S  844   3.010   4.572  12.667
    7OSM   H12S  845   3.108   4.537  12.707
    7OSM   H12T  846   3.025   4.673  12.623
    7OSM   C13S  847   2.966   4.474  12.558
    7OSM   H13S  848   2.889   4.523  12.494
    7OSM   H13T  849   2.917   4.388  12.609
    7OSM   C14S  850   3.077   4.413  12.471
    7OSM   H14S  851   3.032   4.356  12.387
    7OSM   H14T  852   3.132   4.340  12.535
    7OSM   C15S  853   3.183   4.510  12.419
    7OSM   H15S  854   3.216   4.573  12.504
    7OSM   H15T  855   3.141   4.578  12.341
    7OSM   C16S  856   3.308   4.436  12.369
    7OSM   H16S  857   3.289   4.384  12.273
    7OSM   H16T  858   3.333   4.356  12.443
    7OSM   C17S  859   3.431   4.526  12.356
    7OSM   H17S  860   3.520   4.462  12.338
    7OSM   H17T  861   3.448   4.581  12.452
    7OSM   C18S  862   3.419   4.627  12.241
    7OSM   H18S  863   3.399   4.574  12.146
    7OSM   H18T  864   3.513   4.685  12.231
    7OSM   H18U  865   3.335   4.697  12.259
    7OSM    C1F  866   3.385   4.632  13.479
    7OSM     OF  867   3.386   4.517  13.437
    7OSM    C2F  868   3.496   4.725  13.444
    7OSM    H2F  869   3.593   4.674  13.467
    7OSM    H2G  870   3.491   4.817  13.504
    7OSM    C3F  871   3.491   4.756  13.293
    7OSM    H3F  872   3.475   4.663  13.233
    7OSM    H3G  873   3.591   4.794  13.263
    7OSM    C4F  874   3.383   4.859  13.255
    7OSM    H4F  875   3.354   4.919  13.344
    7OSM    H4G  876   3.293   4.805  13.220
    7OSM    C5F  877   3.435   4.955  13.148
    7OSM    H5F  878   3.512   4.903  13.086
    7OSM    H5G  879   3.484   5.040  13.197
    7OSM    C6F  880   3.328   5.016  13.057
    7OSM    H6F  881   3.376   5.096  12.996
    7OSM    H6G  882   3.250   5.064  13.119
    7OSM    C7F  883   3.267   4.914  12.961
    7OSM    H7F  884   3.195   4.969  12.897
    7OSM    H7G  885   3.210   4.838  13.019
    7OSM    C8F  886   3.373   4.843  12.875
    7OSM    H8F  887   3.432   4.771  12.936
    7OSM    H8G  888   3.443   4.920  12.836
    7OSM    C9F  889   3.300   4.772  12.765
    7OSM    H9F  890   3.241   4.684  12.796
    7OSM   C10F  891   3.300   4.810  12.637
    7OSM   H10F  892   3.234   4.758  12.566
    7OSM   C11F  893   3.372   4.929  12.579
    7OSM   H11F  894   3.479   4.930  12.608
    7OSM   H11G  895   3.328   5.025  12.615
    7OSM   C12F  896   3.363   4.917  12.427
    7OSM   H12F  897   3.259   4.895  12.393
    7OSM   H12G  898   3.428   4.831  12.399
    7OSM   C13F  899   3.413   5.038  12.347
    7OSM   H13F  900   3.516   5.061  12.381
    7OSM   H13G  901   3.350   5.127  12.367
    7OSM   C14F  902   3.414   5.003  12.197
    7OSM   H14F  903   3.311   4.978  12.163
    7OSM   H14G  904   3.475   4.911  12.187
    7OSM   C15F  905   3.475   5.109  12.104
    7OSM   H15F  906   3.536   5.181  12.162
    7OSM   H15G  907   3.393   5.165  12.054
    7OSM   C16F  908   3.565   5.040  12.000
    7OSM   H16F  909   3.508   4.956  11.955
    7OSM   H16G  910   3.650   4.992  12.053
    7OSM   C17F  911   3.619   5.129  11.888
    7OSM   H17F  912   3.694   5.069  11.831
    7OSM   H17G  913   3.673   5.216  11.932
    7OSM   C18F  914   3.513   5.179  11.789
    7OSM   H18F  915   3.563   5.217  11.698
    7OSM   H18G  916   3.452   5.259  11.835
    7OSM   H18H  917   3.445   5.098  11.757
    8OSM      N  918   1.432   4.532  14.219
    8OSM    C15  919   1.362   4.433  14.306
    8OSM   H15A  920   1.285   4.380  14.252
    8OSM   H15B  921   1.317   4.486  14.391
    8OSM   H15C  922   1.430   4.359  14.348
    8OSM    C14  923   1.515   4.617  14.311
    8OSM   H14A  924   1.450   4.676  14.376
    8OSM   H14B  925   1.576   4.686  14.252
    8OSM   H14C  926   1.576   4.557  14.376
    8OSM    C13  927   1.515   4.461  14.115
    8OSM   H13A  928   1.578   4.383  14.151
    8OSM   H13B  929   1.573   4.537  14.061
    8OSM   H13C  930   1.452   4.419  14.037
    8OSM    C12  931   1.337   4.624  14.145
    8OSM   H12A  932   1.261   4.660  14.212
    8OSM   H12B  933   1.287   4.570  14.065
    8OSM    C11  934   1.402   4.750  14.079
    8OSM   H11A  935   1.400   4.828  14.159
    8OSM   H11B  936   1.337   4.787  13.997
    8OSM      P  937   1.641   4.837  14.025
    8OSM    O13  938   1.592   4.951  14.104
    8OSM    O14  939   1.773   4.781  14.062
    8OSM    O11  940   1.646   4.876  13.871
    8OSM    O12  941   1.534   4.722  14.031
    8OSM    C1S  942   1.657   4.763  13.783
    8OSM    H1S  943   1.575   4.692  13.805
    8OSM    H1T  944   1.754   4.711  13.797
    8OSM     NF  945   1.670   4.683  13.549
    8OSM    HNF  946   1.738   4.693  13.479
    8OSM    C2S  947   1.643   4.800  13.632
    8OSM    H2S  948   1.538   4.833  13.615
    8OSM    C3S  949   1.739   4.918  13.596
    8OSM    H3S  950   1.842   4.881  13.604
    8OSM     O3  951   1.731   5.033  13.679
    8OSM    HO3  952   1.679   5.001  13.753
    8OSM    C4S  953   1.713   4.960  13.454
    8OSM    H4S  954   1.637   5.038  13.441
    8OSM    C5S  955   1.784   4.914  13.350
    8OSM    H5S  956   1.864   4.840  13.368
    8OSM    C6S  957   1.764   4.953  13.207
    8OSM    H6S  958   1.843   5.025  13.179
    8OSM    H6T  959   1.666   5.004  13.190
    8OSM    C7S  960   1.778   4.835  13.110
    8OSM    H7S  961   1.862   4.768  13.136
    8OSM    H7T  962   1.803   4.882  13.012
    8OSM    C8S  963   1.648   4.756  13.095
    8OSM    H8S  964   1.566   4.830  13.081
    8OSM    H8T  965   1.626   4.700  13.188
    8OSM    C9S  966   1.646   4.663  12.973
    8OSM    H9S  967   1.541   4.628  12.958
    8OSM    H9T  968   1.708   4.573  12.993
    8OSM   C10S  969   1.694   4.730  12.843
    8OSM   H10S  970   1.805   4.742  12.845
    8OSM   H10T  971   1.649   4.832  12.837
    8OSM   C11S  972   1.655   4.653  12.716
    8OSM   H11S  973   1.675   4.718  12.627
    8OSM   H11T  974   1.546   4.635  12.720
    8OSM   C12S  975   1.731   4.521  12.697
    8OSM   H12S  976   1.721   4.459  12.789
    8OSM   H12T  977   1.839   4.546  12.685
    8OSM   C13S  978   1.682   4.439  12.577
    8OSM   H13S  979   1.754   4.358  12.552
    8OSM   H13T  980   1.676   4.506  12.489
    8OSM   C14S  981   1.547   4.374  12.607
    8OSM   H14S  982   1.482   4.455  12.644
    8OSM   H14T  983   1.560   4.300  12.689
    8OSM   C15S  984   1.475   4.306  12.489
    8OSM   H15S  985   1.374   4.275  12.523
    8OSM   H15T  986   1.527   4.212  12.462
    8OSM   C16S  987   1.462   4.395  12.364
    8OSM   H16S  988   1.563   4.416  12.324
    8OSM   H16T  989   1.415   4.492  12.393
    8OSM   C17S  990   1.379   4.332  12.252
    8OSM   H17S  991   1.419   4.230  12.233
    8OSM   H17T  992   1.392   4.391  12.159
    8OSM   C18S  993   1.230   4.322  12.284
    8OSM   H18S  994   1.187   4.423  12.301
    8OSM   H18T  995   1.213   4.261  12.375
    8OSM   H18U  996   1.174   4.275  12.200
    8OSM    C1F  997   1.598   4.570  13.554
    8OSM     OF  998   1.531   4.542  13.652
    8OSM    C2F  999   1.601   4.478  13.437
    8OSM    H2F 1000   1.683   4.404  13.451
    8OSM    H2G 1001   1.618   4.534  13.343
    8OSM    C3F 1002   1.465   4.405  13.432
    8OSM    H3F 1003   1.447   4.353  13.530
    8OSM    H3G 1004   1.468   4.324  13.356
    8OSM    C4F 1005   1.346   4.498  13.404
    8OSM    H4F 1006   1.359   4.598  13.452
    8OSM    H4G 1007   1.254   4.456  13.449
    8OSM    C5F 1008   1.321   4.517  13.254
    8OSM    H5F 1009   1.352   4.424  13.201
    8OSM    H5G 1010   1.386   4.599  13.216
    8OSM    C6F 1011   1.173   4.543  13.223
    8OSM    H6F 1012   1.130   4.615  13.296
    8OSM    H6G 1013   1.119   4.446  13.236
    8OSM    C7F 1014   1.150   4.594  13.080
    8OSM    H7F 1015   1.059   4.542  13.042
    8OSM    H7G 1016   1.233   4.563  13.013
    8OSM    C8F 1017   1.127   4.745  13.069
    8OSM    H8F 1018   1.066   4.781  13.155
    8OSM    H8G 1019   1.068   4.764  12.976
    8OSM    C9F 1020   1.261   4.812  13.064
    8OSM    H9F 1021   1.322   4.799  13.155
    8OSM   C10F 1022   1.313   4.880  12.961
    8OSM   H10F 1023   1.417   4.915  12.972
    8OSM   C11F 1024   1.254   4.907  12.825
    8OSM   H11F 1025   1.229   5.016  12.818
    8OSM   H11G 1026   1.160   4.851  12.806
    8OSM   C12F 1027   1.352   4.875  12.710
    8OSM   H12F 1028   1.368   4.766  12.704
    8OSM   H12G 1029   1.451   4.922  12.733
    8OSM   C13F 1030   1.305   4.930  12.575
    8OSM   H13F 1031   1.275   5.036  12.590
    8OSM   H13G 1032   1.214   4.875  12.541
    8OSM   C14F 1033   1.413   4.927  12.465
    8OSM   H14F 1034   1.507   4.971  12.506
    8OSM   H14G 1035   1.380   4.992  12.381
    8OSM   C15F 1036   1.444   4.787  12.409
    8OSM   H15F 1037   1.356   4.750  12.353
    8OSM   H15G 1038   1.461   4.717  12.494
    8OSM   C16F 1039   1.569   4.784  12.318
    8OSM   H16F 1040   1.583   4.680  12.281
    8OSM   H16G 1041   1.658   4.809  12.379
    8OSM   C17F 1042   1.563   4.878  12.197
    8OSM   H17F 1043   1.547   4.983  12.232
    8OSM   H17G 1044   1.476   4.850  12.134
    8OSM   C18F 1045   1.691   4.875  12.112
    8OSM   H18F 1046   1.679   4.936  12.021
    8OSM   H18G 1047   1.715   4.771  12.082
    8OSM   H18H 1048   1.777   4.916  12.170
    9OSM      N 1049   4.462   1.518  14.304
    9OSM    C15 1050   4.357   1.426  14.246
    9OSM   H15A 1051   4.385   1.322  14.258
    9OSM   H15B 1052   4.351   1.441  14.138
    9OSM   H15C 1053   4.259   1.441  14.290
    9OSM    C14 1054   4.418   1.660  14.289
    9OSM   H14A 1055   4.392   1.678  14.186
    9OSM   H14B 1056   4.498   1.726  14.321
    9OSM   H14C 1057   4.332   1.678  14.354
    9OSM    C13 1058   4.476   1.493  14.449
    9OSM   H13A 1059   4.557   1.551  14.492
    9OSM   H13B 1060   4.495   1.388  14.471
    9OSM   H13C 1061   4.386   1.522  14.502
    9OSM    C12 1062   4.594   1.492  14.233
    9OSM   H12A 1063   4.608   1.384  14.227
    9OSM   H12B 1064   4.675   1.530  14.294
    9OSM    C11 1065   4.610   1.547  14.090
    9OSM   H11A 1066   4.713   1.524  14.053
    9OSM   H11B 1067   4.602   1.657  14.089
    9OSM      P 1068   4.539   1.359  13.923
    9OSM    O13 1069   4.626   1.270  14.003
    9OSM    O14 1070   4.410   1.308  13.872
    9OSM    O11 1071   4.623   1.419  13.803
    9OSM    O12 1072   4.509   1.491  14.007
    9OSM    C1S 1073   4.556   1.444  13.680
    9OSM    H1S 1074   4.615   1.516  13.619
    9OSM    H1T 1075   4.457   1.494  13.697
    9OSM     NF 1076   4.656   1.296  13.515
    9OSM    HNF 1077   4.656   1.330  13.423
    9OSM    C2S 1078   4.536   1.315  13.595
    9OSM    H2S 1079   4.521   1.226  13.661
    9OSM    C3S 1080   4.406   1.335  13.512
    9OSM    H3S 1081   4.392   1.442  13.486
    9OSM     O3 1082   4.290   1.294  13.584
    9OSM    HO3 1083   4.323   1.274  13.673
    9OSM    C4S 1084   4.406   1.254  13.385
    9OSM    H4S 1085   4.370   1.150  13.390
    9OSM    C5S 1086   4.443   1.311  13.270
    9OSM    H5S 1087   4.472   1.417  13.273
    9OSM    C6S 1088   4.447   1.250  13.133
    9OSM    H6S 1089   4.424   1.141  13.133
    9OSM    H6T 1090   4.545   1.264  13.083
    9OSM    C7S 1091   4.337   1.328  13.061
    9OSM    H7S 1092   4.336   1.437  13.087
    9OSM    H7T 1093   4.238   1.286  13.093
    9OSM    C8S 1094   4.343   1.327  12.909
    9OSM    H8S 1095   4.367   1.226  12.869
    9OSM    H8T 1096   4.425   1.395  12.876
    9OSM    C9S 1097   4.208   1.373  12.854
    9OSM    H9S 1098   4.147   1.416  12.938
    9OSM    H9T 1099   4.151   1.285  12.817
    9OSM   C10S 1100   4.214   1.482  12.747
    9OSM   H10S 1101   4.235   1.581  12.794
    9OSM   H10T 1102   4.112   1.487  12.704
    9OSM   C11S 1103   4.313   1.458  12.633
    9OSM   H11S 1104   4.417   1.471  12.670
    9OSM   H11T 1105   4.296   1.538  12.556
    9OSM   C12S 1106   4.299   1.320  12.566
    9OSM   H12S 1107   4.338   1.242  12.635
    9OSM   H12T 1108   4.364   1.319  12.476
    9OSM   C13S 1109   4.155   1.283  12.526
    9OSM   H13S 1110   4.090   1.372  12.528
    9OSM   H13T 1111   4.111   1.215  12.601
    9OSM   C14S 1112   4.148   1.213  12.389
    9OSM   H14S 1113   4.046   1.170  12.378
    9OSM   H14T 1114   4.221   1.129  12.389
    9OSM   C15S 1115   4.175   1.305  12.269
    9OSM   H15S 1116   4.123   1.263  12.180
    9OSM   H15T 1117   4.284   1.305  12.246
    9OSM   C16S 1118   4.127   1.449  12.294
    9OSM   H16S 1119   4.190   1.495  12.373
    9OSM   H16T 1120   4.024   1.446  12.334
    9OSM   C17S 1121   4.131   1.542  12.175
    9OSM   H17S 1122   4.062   1.626  12.194
    9OSM   H17T 1123   4.091   1.492  12.085
    9OSM   C18S 1124   4.271   1.601  12.155
    9OSM   H18S 1125   4.298   1.662  12.244
    9OSM   H18T 1126   4.274   1.666  12.065
    9OSM   H18U 1127   4.346   1.520  12.144
    9OSM    C1F 1128   4.765   1.246  13.571
    9OSM     OF 1129   4.763   1.171  13.668
    9OSM    C2F 1130   4.895   1.277  13.506
    9OSM    H2F 1131   4.976   1.234  13.569
    9OSM    H2G 1132   4.909   1.387  13.502
    9OSM    C3F 1133   4.901   1.215  13.365
    9OSM    H3F 1134   4.844   1.120  13.358
    9OSM    H3G 1135   5.007   1.192  13.342
    9OSM    C4F 1136   4.847   1.309  13.259
    9OSM    H4F 1137   4.905   1.404  13.259
    9OSM    H4G 1138   4.741   1.337  13.279
    9OSM    C5F 1139   4.851   1.249  13.119
    9OSM    H5F 1140   4.786   1.159  13.114
    9OSM    H5G 1141   4.955   1.218  13.094
    9OSM    C6F 1142   4.805   1.356  13.022
    9OSM    H6F 1143   4.885   1.432  13.017
    9OSM    H6G 1144   4.714   1.406  13.061
    9OSM    C7F 1145   4.773   1.300  12.883
    9OSM    H7F 1146   4.682   1.238  12.891
    9OSM    H7G 1147   4.856   1.235  12.847
    9OSM    C8F 1148   4.744   1.412  12.782
    9OSM    H8F 1149   4.662   1.476  12.823
    9OSM    H8G 1150   4.704   1.364  12.690
    9OSM    C9F 1151   4.868   1.493  12.757
    9OSM    H9F 1152   4.911   1.544  12.846
    9OSM   C10F 1153   4.931   1.509  12.640
    9OSM   H10F 1154   5.024   1.567  12.637
    9OSM   C11F 1155   4.887   1.448  12.510
    9OSM   H11F 1156   4.905   1.520  12.428
    9OSM   H11G 1157   4.778   1.427  12.510
    9OSM   C12F 1158   4.961   1.316  12.486
    9OSM   H12F 1159   4.947   1.248  12.573
    9OSM   H12G 1160   5.070   1.336  12.481
    9OSM   C13F 1161   4.914   1.240  12.360
    9OSM   H13F 1162   4.810   1.205  12.378
    9OSM   H13G 1163   4.978   1.151  12.348
    9OSM   C14F 1164   4.917   1.321  12.230
    9OSM   H14F 1165   5.022   1.346  12.203
    9OSM   H14G 1166   4.864   1.417  12.245
    9OSM   C15F 1167   4.854   1.250  12.110
    9OSM   H15F 1168   4.750   1.220  12.137
    9OSM   H15G 1169   4.911   1.159  12.085
    9OSM   C16F 1170   4.849   1.344  11.989
    9OSM   H16F 1171   4.949   1.392  11.979
    9OSM   H16G 1172   4.772   1.422  12.009
    9OSM   C17F 1173   4.816   1.282  11.854
    9OSM   H17F 1174   4.715   1.236  11.857
    9OSM   H17G 1175   4.890   1.203  11.835
    9OSM   C18F 1176   4.827   1.383  11.739
    9OSM   H18F 1177   4.785   1.341  11.645
    9OSM   H18G 1178   4.931   1.415  11.721
    9OSM   H18H 1179   4.771   1.476  11.765
   10OSM      N 1180   2.715   2.693   9.795
   10OSM    C15 1181   2.851   2.748   9.820
   10OSM   H15A 1182   2.914   2.737   9.732
   10OSM   H15B 1183   2.904   2.697   9.900
   10OSM   H15C 1184   2.848   2.851   9.849
   10OSM    C14 1185   2.660   2.740   9.663
   10OSM   H14A 1186   2.564   2.691   9.646
   10OSM   H14B 1187   2.724   2.712   9.579
   10OSM   H14C 1188   2.644   2.847   9.655
   10OSM    C13 1189   2.726   2.543   9.784
   10OSM   H13A 1190   2.788   2.511   9.701
   10OSM   H13B 1191   2.625   2.501   9.773
   10OSM   H13C 1192   2.766   2.499   9.875
   10OSM    C12 1193   2.620   2.724   9.911
   10OSM   H12A 1194   2.624   2.828   9.937
   10OSM   H12B 1195   2.655   2.669   9.999
   10OSM    C11 1196   2.471   2.684   9.898
   10OSM   H11A 1197   2.427   2.725   9.805
   10OSM   H11B 1198   2.415   2.729   9.983
   10OSM      P 1199   2.360   2.456   9.983
   10OSM    O13 1200   2.224   2.476   9.928
   10OSM    O14 1201   2.408   2.316   9.988
   10OSM    O11 1202   2.366   2.522  10.127
   10OSM    O12 1203   2.463   2.543   9.898
   10OSM    C1S 1204   2.488   2.532  10.199
   10OSM    H1S 1205   2.544   2.621  10.164
   10OSM    H1T 1206   2.553   2.442  10.185
   10OSM     NF 1207   2.582   2.554  10.430
   10OSM    HNF 1208   2.592   2.488  10.504
   10OSM    C2S 1209   2.459   2.547  10.351
   10OSM    H2S 1210   2.403   2.642  10.367
   10OSM    C3S 1211   2.369   2.429  10.392
   10OSM    H3S 1212   2.410   2.334  10.350
   10OSM     O3 1213   2.236   2.444  10.345
   10OSM    HO3 1214   2.247   2.491  10.261
   10OSM    C4S 1215   2.355   2.415  10.540
   10OSM    H4S 1216   2.281   2.482  10.587
   10OSM    C5S 1217   2.424   2.326  10.613
   10OSM    H5S 1218   2.497   2.262  10.562
   10OSM    C6S 1219   2.411   2.308  10.761
   10OSM    H6S 1220   2.435   2.202  10.785
   10OSM    H6T 1221   2.306   2.326  10.793
   10OSM    C7S 1222   2.499   2.398  10.848
   10OSM    H7S 1223   2.460   2.502  10.844
   10OSM    H7T 1224   2.603   2.397  10.811
   10OSM    C8S 1225   2.501   2.349  10.994
   10OSM    H8S 1226   2.575   2.266  11.002
   10OSM    H8T 1227   2.401   2.306  11.020
   10OSM    C9S 1228   2.535   2.459  11.096
   10OSM    H9S 1229   2.605   2.532  11.050
   10OSM    H9T 1230   2.587   2.412  11.182
   10OSM   C10S 1231   2.409   2.530  11.148
   10OSM   H10S 1232   2.351   2.457  11.208
   10OSM   H10T 1233   2.346   2.559  11.060
   10OSM   C11S 1234   2.435   2.656  11.233
   10OSM   H11S 1235   2.337   2.691  11.273
   10OSM   H11T 1236   2.474   2.736  11.166
   10OSM   C12S 1237   2.533   2.635  11.349
   10OSM   H12S 1238   2.632   2.610  11.304
   10OSM   H12T 1239   2.503   2.550  11.413
   10OSM   C13S 1240   2.553   2.762  11.434
   10OSM   H13S 1241   2.549   2.851  11.367
   10OSM   H13T 1242   2.654   2.758  11.479
   10OSM   C14S 1243   2.453   2.780  11.550
   10OSM   H14S 1244   2.356   2.731  11.526
   10OSM   H14T 1245   2.434   2.889  11.560
   10OSM   C15S 1246   2.508   2.728  11.684
   10OSM   H15S 1247   2.612   2.766  11.697
   10OSM   H15T 1248   2.516   2.617  11.679
   10OSM   C16S 1249   2.427   2.766  11.809
   10OSM   H16S 1250   2.484   2.731  11.898
   10OSM   H16T 1251   2.330   2.712  11.807
   10OSM   C17S 1252   2.399   2.916  11.829
   10OSM   H17S 1253   2.344   2.928  11.925
   10OSM   H17T 1254   2.331   2.952  11.748
   10OSM   C18S 1255   2.523   3.005  11.834
   10OSM   H18S 1256   2.591   2.971  11.915
   10OSM   H18T 1257   2.495   3.111  11.854
   10OSM   H18U 1258   2.577   3.003  11.737
   10OSM    C1F 1259   2.669   2.654  10.422
   10OSM     OF 1260   2.661   2.739  10.335
   10OSM    C2F 1261   2.776   2.655  10.527
   10OSM    H2F 1262   2.852   2.732  10.502
   10OSM    H2G 1263   2.825   2.555  10.526
   10OSM    C3F 1264   2.716   2.683  10.666
   10OSM    H3F 1265   2.608   2.657  10.672
   10OSM    H3G 1266   2.724   2.792  10.688
   10OSM    C4F 1267   2.785   2.603  10.778
   10OSM    H4F 1268   2.771   2.494  10.759
   10OSM    H4G 1269   2.732   2.629  10.872
   10OSM    C5F 1270   2.935   2.627  10.792
   10OSM    H5F 1271   2.952   2.737  10.800
   10OSM    H5G 1272   2.988   2.590  10.701
   10OSM    C6F 1273   2.994   2.558  10.916
   10OSM    H6F 1274   3.104   2.571  10.919
   10OSM    H6G 1275   2.975   2.448  10.912
   10OSM    C7F 1276   2.936   2.616  11.045
   10OSM    H7F 1277   2.827   2.592  11.049
   10OSM    H7G 1278   2.947   2.727  11.040
   10OSM    C8F 1279   3.000   2.564  11.173
   10OSM    H8F 1280   3.108   2.587  11.175
   10OSM    H8G 1281   2.987   2.453  11.179
   10OSM    C9F 1282   2.926   2.634  11.284
   10OSM    H9F 1283   2.877   2.728  11.253
   10OSM   C10F 1284   2.919   2.596  11.411
   10OSM   H10F 1285   2.855   2.654  11.479
   10OSM   C11F 1286   2.984   2.475  11.470
   10OSM   H11F 1287   3.078   2.449  11.417
   10OSM   H11G 1288   2.916   2.387  11.462
   10OSM   C12F 1289   3.014   2.503  11.618
   10OSM   H12F 1290   3.076   2.595  11.630
   10OSM   H12G 1291   3.075   2.419  11.657
   10OSM   C13F 1292   2.885   2.516  11.701
   10OSM   H13F 1293   2.808   2.448  11.659
   10OSM   H13G 1294   2.840   2.617  11.692
   10OSM   C14F 1295   2.909   2.482  11.848
   10OSM   H14F 1296   2.976   2.559  11.892
   10OSM   H14G 1297   2.963   2.385  11.856
   10OSM   C15F 1298   2.780   2.471  11.929
   10OSM   H15F 1299   2.726   2.569  11.924
   10OSM   H15G 1300   2.810   2.451  12.034
   10OSM   C16F 1301   2.686   2.357  11.889
   10OSM   H16F 1302   2.746   2.264  11.891
   10OSM   H16G 1303   2.648   2.371  11.785
   10OSM   C17F 1304   2.567   2.342  11.985
   10OSM   H17F 1305   2.605   2.336  12.089
   10OSM   H17G 1306   2.516   2.246  11.963
   10OSM   C18F 1307   2.463   2.454  11.976
   10OSM   H18F 1308   2.375   2.428  12.038
   10OSM   H18G 1309   2.429   2.467  11.871
   10OSM   H18H 1310   2.505   2.549  12.013
   11OSM      N 1311   2.757   3.168   9.750
   11OSM    C15 1312   2.808   3.289   9.680
   11OSM   H15A 1313   2.798   3.378   9.742
   11OSM   H15B 1314   2.764   3.308   9.583
   11OSM   H15C 1315   2.916   3.280   9.668
   11OSM    C14 1316   2.609   3.167   9.739
   11OSM   H14A 1317   2.569   3.258   9.782
   11OSM   H14B 1318   2.568   3.081   9.787
   11OSM   H14C 1319   2.578   3.163   9.634
   11OSM    C13 1320   2.813   3.051   9.676
   11OSM   H13A 1321   2.922   3.053   9.677
   11OSM   H13B 1322   2.783   3.055   9.571
   11OSM   H13C 1323   2.780   2.955   9.714
   11OSM    C12 1324   2.808   3.178   9.894
   11OSM   H12A 1325   2.915   3.155   9.895
   11OSM   H12B 1326   2.760   3.105   9.957
   11OSM    C11 1327   2.799   3.318   9.962
   11OSM   H11A 1328   2.804   3.305  10.072
   11OSM   H11B 1329   2.699   3.363   9.941
   11OSM      P 1330   3.049   3.391   9.971
   11OSM    O13 1331   3.098   3.254   9.945
   11OSM    O14 1332   3.136   3.498   9.917
   11OSM    O11 1333   3.031   3.409  10.126
   11OSM    O12 1334   2.901   3.406   9.913
   11OSM    C1S 1335   2.999   3.541  10.174
   11OSM    H1S 1336   2.917   3.588  10.114
   11OSM    H1T 1337   3.088   3.607  10.168
   11OSM     NF 1338   3.056   3.490  10.410
   11OSM    HNF 1339   3.064   3.392  10.422
   11OSM    C2S 1340   2.951   3.539  10.322
   11OSM    H2S 1341   2.927   3.645  10.350
   11OSM    C3S 1342   2.822   3.455  10.339
   11OSM    H3S 1343   2.842   3.350  10.309
   11OSM     O3 1344   2.712   3.499  10.258
   11OSM    HO3 1345   2.748   3.571  10.204
   11OSM    C4S 1346   2.790   3.454  10.488
   11OSM    H4S 1347   2.862   3.392  10.544
   11OSM    C5S 1348   2.693   3.514  10.560
   11OSM    H5S 1349   2.616   3.572  10.507
   11OSM    C6S 1350   2.677   3.504  10.711
   11OSM    H6S 1351   2.590   3.440  10.737
   11OSM    H6T 1352   2.652   3.605  10.747
   11OSM    C7S 1353   2.800   3.456  10.794
   11OSM    H7S 1354   2.891   3.502  10.749
   11OSM    H7T 1355   2.811   3.346  10.786
   11OSM    C8S 1356   2.799   3.500  10.943
   11OSM    H8S 1357   2.751   3.599  10.952
   11OSM    H8T 1358   2.905   3.510  10.976
   11OSM    C9S 1359   2.735   3.398  11.038
   11OSM    H9S 1360   2.808   3.317  11.049
   11OSM    H9T 1361   2.647   3.353  10.988
   11OSM   C10S 1362   2.694   3.451  11.178
   11OSM   H10S 1363   2.608   3.390  11.213
   11OSM   H10T 1364   2.658   3.556  11.169
   11OSM   C11S 1365   2.803   3.444  11.287
   11OSM   H11S 1366   2.877   3.523  11.265
   11OSM   H11T 1367   2.857   3.348  11.280
   11OSM   C12S 1368   2.752   3.461  11.432
   11OSM   H12S 1369   2.688   3.552  11.440
   11OSM   H12T 1370   2.843   3.477  11.495
   11OSM   C13S 1371   2.678   3.343  11.497
   11OSM   H13S 1372   2.724   3.249  11.460
   11OSM   H13T 1373   2.572   3.343  11.466
   11OSM   C14S 1374   2.690   3.338  11.651
   11OSM   H14S 1375   2.797   3.330  11.679
   11OSM   H14T 1376   2.639   3.245  11.686
   11OSM   C15S 1377   2.628   3.458  11.726
   11OSM   H15S 1378   2.529   3.480  11.683
   11OSM   H15T 1379   2.694   3.547  11.712
   11OSM   C16S 1380   2.609   3.429  11.876
   11OSM   H16S 1381   2.705   3.396  11.920
   11OSM   H16T 1382   2.539   3.343  11.884
   11OSM   C17S 1383   2.554   3.545  11.960
   11OSM   H17S 1384   2.490   3.505  12.041
   11OSM   H17T 1385   2.487   3.608  11.898
   11OSM   C18S 1386   2.662   3.630  12.028
   11OSM   H18S 1387   2.727   3.677  11.951
   11OSM   H18T 1388   2.726   3.567  12.093
   11OSM   H18U 1389   2.616   3.710  12.090
   11OSM    C1F 1390   3.159   3.566  10.444
   11OSM     OF 1391   3.180   3.672  10.388
   11OSM    C2F 1392   3.251   3.512  10.549
   11OSM    H2F 1393   3.322   3.592  10.579
   11OSM    H2G 1394   3.310   3.429  10.504
   11OSM    C3F 1395   3.178   3.459  10.675
   11OSM    H3F 1396   3.083   3.406  10.651
   11OSM    H3G 1397   3.152   3.546  10.738
   11OSM    C4F 1398   3.267   3.364  10.756
   11OSM    H4F 1399   3.370   3.407  10.758
   11OSM    H4G 1400   3.274   3.265  10.704
   11OSM    C5F 1401   3.221   3.342  10.901
   11OSM    H5F 1402   3.200   3.440  10.950
   11OSM    H5G 1403   3.305   3.293  10.955
   11OSM    C6F 1404   3.101   3.248  10.915
   11OSM    H6F 1405   3.127   3.153  10.863
   11OSM    H6G 1406   3.012   3.291  10.864
   11OSM    C7F 1407   3.065   3.214  11.061
   11OSM    H7F 1408   3.016   3.302  11.107
   11OSM    H7G 1409   3.158   3.194  11.118
   11OSM    C8F 1410   2.975   3.088  11.067
   11OSM    H8F 1411   3.038   3.002  11.097
   11OSM    H8G 1412   2.946   3.065  10.962
   11OSM    C9F 1413   2.848   3.094  11.148
   11OSM    H9F 1414   2.758   3.110  11.087
   11OSM   C10F 1415   2.831   3.085  11.281
   11OSM   H10F 1416   2.728   3.094  11.320
   11OSM   C11F 1417   2.934   3.065  11.388
   11OSM   H11F 1418   2.944   3.154  11.454
   11OSM   H11G 1419   3.035   3.049  11.344
   11OSM   C12F 1420   2.895   2.942  11.471
   11OSM   H12F 1421   2.985   2.877  11.478
   11OSM   H12G 1422   2.817   2.881  11.420
   11OSM   C13F 1423   2.846   2.970  11.613
   11OSM   H13F 1424   2.744   2.927  11.627
   11OSM   H13G 1425   2.836   3.079  11.633
   11OSM   C14F 1426   2.939   2.904  11.716
   11OSM   H14F 1427   3.045   2.931  11.691
   11OSM   H14G 1428   2.931   2.795  11.705
   11OSM   C15F 1429   2.909   2.947  11.859
   11OSM   H15F 1430   2.950   2.873  11.932
   11OSM   H15G 1431   2.799   2.951  11.874
   11OSM   C16F 1432   2.971   3.084  11.886
   11OSM   H16F 1433   2.962   3.147  11.795
   11OSM   H16G 1434   3.080   3.071  11.908
   11OSM   C17F 1435   2.905   3.158  12.001
   11OSM   H17F 1436   2.937   3.111  12.096
   11OSM   H17G 1437   2.794   3.148  11.990
   11OSM   C18F 1438   2.939   3.306  12.001
   11OSM   H18F 1439   3.048   3.320  12.011
   11OSM   H18G 1440   2.888   3.357  12.086
   11OSM   H18H 1441   2.909   3.355  11.906
   12OSM      N 1442   3.225   1.935   9.878
   12OSM    C15 1443   3.303   1.820   9.933
   12OSM   H15A 1444   3.390   1.800   9.873
   12OSM   H15B 1445   3.243   1.729   9.935
   12OSM   H15C 1446   3.334   1.839  10.035
   12OSM    C14 1447   3.314   2.055   9.865
   12OSM   H14A 1448   3.388   2.041   9.788
   12OSM   H14B 1449   3.363   2.079   9.959
   12OSM   H14C 1450   3.252   2.141   9.839
   12OSM    C13 1451   3.170   1.897   9.745
   12OSM   H13A 1452   3.081   1.834   9.756
   12OSM   H13B 1453   3.239   1.845   9.681
   12OSM   H13C 1454   3.130   1.986   9.696
   12OSM    C12 1455   3.106   1.967   9.970
   12OSM   H12A 1456   3.140   1.981  10.072
   12OSM   H12B 1457   3.043   1.878   9.975
   12OSM    C11 1458   3.013   2.087   9.937
   12OSM   H11A 1459   3.073   2.181   9.941
   12OSM   H11B 1460   2.935   2.097  10.017
   12OSM      P 1461   2.829   1.985   9.775
   12OSM    O13 1462   2.745   2.063   9.682
   12OSM    O14 1463   2.883   1.857   9.726
   12OSM    O11 1464   2.757   1.961   9.915
   12OSM    O12 1465   2.953   2.078   9.808
   12OSM    C1S 1466   2.769   1.833   9.979
   12OSM    H1S 1467   2.863   1.780   9.952
   12OSM    H1T 1468   2.685   1.767   9.949
   12OSM     NF 1469   2.819   1.732  10.202
   12OSM    HNF 1470   2.767   1.695  10.277
   12OSM    C2S 1471   2.767   1.852  10.134
   12OSM    H2S 1472   2.833   1.937  10.161
   12OSM    C3S 1473   2.621   1.885  10.175
   12OSM    H3S 1474   2.560   1.796  10.150
   12OSM     O3 1475   2.566   2.000  10.112
   12OSM    HO3 1476   2.622   2.015  10.034
   12OSM    C4S 1477   2.615   1.897  10.325
   12OSM    H4S 1478   2.608   1.799  10.374
   12OSM    C5S 1479   2.614   2.006  10.403
   12OSM    H5S 1480   2.612   2.105  10.355
   12OSM    C6S 1481   2.606   2.003  10.554
   12OSM    H6S 1482   2.517   2.062  10.585
   12OSM    H6T 1483   2.696   2.051  10.600
   12OSM    C7S 1484   2.586   1.864  10.616
   12OSM    H7S 1485   2.677   1.801  10.606
   12OSM    H7T 1486   2.503   1.813  10.562
   12OSM    C8S 1487   2.541   1.869  10.762
   12OSM    H8S 1488   2.492   1.772  10.784
   12OSM    H8T 1489   2.464   1.949  10.775
   12OSM    C9S 1490   2.650   1.883  10.867
   12OSM    H9S 1491   2.677   1.991  10.878
   12OSM    H9T 1492   2.741   1.828  10.837
   12OSM   C10S 1493   2.599   1.825  11.000
   12OSM   H10S 1494   2.632   1.720  11.008
   12OSM   H10T 1495   2.487   1.825  11.000
   12OSM   C11S 1496   2.642   1.902  11.125
   12OSM   H11S 1497   2.604   1.847  11.214
   12OSM   H11T 1498   2.595   2.002  11.125
   12OSM   C12S 1499   2.794   1.918  11.135
   12OSM   H12S 1500   2.831   1.978  11.049
   12OSM   H12T 1501   2.844   1.818  11.129
   12OSM   C13S 1502   2.834   1.988  11.264
   12OSM   H13S 1503   2.778   2.084  11.271
   12OSM   H13T 1504   2.942   2.013  11.259
   12OSM   C14S 1505   2.811   1.905  11.391
   12OSM   H14S 1506   2.850   1.802  11.374
   12OSM   H14T 1507   2.702   1.896  11.413
   12OSM   C15S 1508   2.884   1.967  11.510
   12OSM   H15S 1509   2.992   1.975  11.484
   12OSM   H15T 1510   2.877   1.902  11.598
   12OSM   C16S 1511   2.829   2.104  11.550
   12OSM   H16S 1512   2.731   2.090  11.601
   12OSM   H16T 1513   2.811   2.168  11.461
   12OSM   C17S 1514   2.924   2.180  11.642
   12OSM   H17S 1515   2.866   2.265  11.682
   12OSM   H17T 1516   3.010   2.219  11.583
   12OSM   C18S 1517   2.978   2.105  11.762
   12OSM   H18S 1518   3.056   2.033  11.729
   12OSM   H18T 1519   2.895   2.052  11.813
   12OSM   H18U 1520   3.025   2.174  11.836
   12OSM    C1F 1521   2.945   1.690  10.190
   12OSM     OF 1522   3.025   1.742  10.112
   12OSM    C2F 1523   2.986   1.579  10.282
   12OSM    H2F 1524   3.095   1.563  10.273
   12OSM    H2G 1525   2.934   1.486  10.250
   12OSM    C3F 1526   2.950   1.609  10.430
   12OSM    H3F 1527   2.994   1.527  10.491
   12OSM    H3G 1528   2.841   1.606  10.447
   12OSM    C4F 1529   3.006   1.743  10.483
   12OSM    H4F 1530   2.951   1.827  10.435
   12OSM    H4G 1531   3.113   1.750  10.454
   12OSM    C5F 1532   2.995   1.760  10.636
   12OSM    H5F 1533   3.076   1.701  10.684
   12OSM    H5G 1534   2.898   1.717  10.670
   12OSM    C6F 1535   3.000   1.907  10.684
   12OSM    H6F 1536   2.992   1.911  10.795
   12OSM    H6G 1537   2.910   1.957  10.643
   12OSM    C7F 1538   3.123   1.989  10.638
   12OSM    H7F 1539   3.088   2.088  10.602
   12OSM    H7G 1540   3.169   1.938  10.550
   12OSM    C8F 1541   3.233   2.010  10.744
   12OSM    H8F 1542   3.327   2.033  10.690
   12OSM    H8G 1543   3.249   1.912  10.795
   12OSM    C9F 1544   3.205   2.123  10.841
   12OSM    H9F 1545   3.167   2.215  10.795
   12OSM   C10F 1546   3.224   2.120  10.974
   12OSM   H10F 1547   3.201   2.209  11.034
   12OSM   C11F 1548   3.276   2.001  11.051
   12OSM   H11F 1549   3.338   2.034  11.137
   12OSM   H11G 1550   3.344   1.941  10.986
   12OSM   C12F 1551   3.163   1.909  11.100
   12OSM   H12F 1552   3.073   1.920  11.035
   12OSM   H12G 1553   3.133   1.939  11.203
   12OSM   C13F 1554   3.202   1.761  11.097
   12OSM   H13F 1555   3.231   1.737  10.992
   12OSM   H13G 1556   3.114   1.699  11.122
   12OSM   C14F 1557   3.320   1.727  11.189
   12OSM   H14F 1558   3.404   1.796  11.167
   12OSM   H14G 1559   3.355   1.624  11.165
   12OSM   C15F 1560   3.293   1.734  11.340
   12OSM   H15F 1561   3.294   1.840  11.374
   12OSM   H15G 1562   3.376   1.682  11.392
   12OSM   C16F 1563   3.161   1.670  11.385
   12OSM   H16F 1564   3.139   1.579  11.326
   12OSM   H16G 1565   3.079   1.743  11.366
   12OSM   C17F 1566   3.165   1.632  11.533
   12OSM   H17F 1567   3.062   1.642  11.573
   12OSM   H17G 1568   3.228   1.706  11.587
   12OSM   C18F 1569   3.217   1.490  11.558
   12OSM   H18F 1570   3.257   1.481  11.661
   12OSM   H18G 1571   3.299   1.465  11.487
   12OSM   H18H 1572   3.135   1.416  11.546
   13OSM      N 1573   1.402   2.039   9.894
   13OSM    C15 1574   1.265   2.059   9.946
   13OSM   H15A 1575   1.265   2.090  10.050
   13OSM   H15B 1576   1.204   1.970   9.943
   13OSM   H15C 1577   1.214   2.140   9.892
   13OSM    C14 1578   1.392   2.009   9.748
   13OSM   H14A 1579   1.319   2.071   9.699
   13OSM   H14B 1580   1.367   1.904   9.734
   13OSM   H14C 1581   1.490   2.024   9.703
   13OSM    C13 1582   1.473   2.169   9.911
   13OSM   H13A 1583   1.416   2.249   9.868
   13OSM   H13B 1584   1.570   2.167   9.862
   13OSM   H13C 1585   1.490   2.190  10.016
   13OSM    C12 1586   1.477   1.925   9.963
   13OSM   H12A 1587   1.418   1.834   9.956
   13OSM   H12B 1588   1.485   1.949  10.068
   13OSM    C11 1589   1.617   1.886   9.909
   13OSM   H11A 1590   1.671   1.824   9.984
   13OSM   H11B 1591   1.680   1.975   9.892
   13OSM      P 1592   1.549   1.667   9.778
   13OSM    O13 1593   1.405   1.677   9.741
   13OSM    O14 1594   1.639   1.581   9.698
   13OSM    O11 1595   1.555   1.624   9.930
   13OSM    O12 1596   1.606   1.815   9.785
   13OSM    C1S 1597   1.443   1.555   9.988
   13OSM    H1S 1598   1.446   1.448   9.958
   13OSM    H1T 1599   1.345   1.596   9.956
   13OSM     NF 1600   1.370   1.663  10.204
   13OSM    HNF 1601   1.423   1.723  10.262
   13OSM    C2S 1602   1.451   1.558  10.143
   13OSM    H2S 1603   1.410   1.460  10.178
   13OSM    C3S 1604   1.597   1.572  10.193
   13OSM    H3S 1605   1.637   1.672  10.167
   13OSM     O3 1606   1.686   1.474  10.140
   13OSM    HO3 1607   1.680   1.486  10.044
   13OSM    C4S 1608   1.586   1.559  10.343
   13OSM    H4S 1609   1.582   1.455  10.377
   13OSM    C5S 1610   1.583   1.659  10.435
   13OSM    H5S 1611   1.596   1.763  10.401
   13OSM    C6S 1612   1.569   1.641  10.584
   13OSM    H6S 1613   1.519   1.731  10.627
   13OSM    H6T 1614   1.670   1.639  10.629
   13OSM    C7S 1615   1.489   1.517  10.632
   13OSM    H7S 1616   1.528   1.428  10.580
   13OSM    H7T 1617   1.384   1.526  10.598
   13OSM    C8S 1618   1.496   1.494  10.785
   13OSM    H8S 1619   1.487   1.592  10.836
   13OSM    H8T 1620   1.595   1.450  10.810
   13OSM    C9S 1621   1.391   1.397  10.844
   13OSM    H9S 1622   1.389   1.304  10.784
   13OSM    H9T 1623   1.291   1.442  10.837
   13OSM   C10S 1624   1.415   1.359  10.993
   13OSM   H10S 1625   1.505   1.293  10.999
   13OSM   H10T 1626   1.328   1.299  11.027
   13OSM   C11S 1627   1.434   1.479  11.088
   13OSM   H11S 1628   1.350   1.550  11.073
   13OSM   H11T 1629   1.527   1.532  11.064
   13OSM   C12S 1630   1.433   1.442  11.238
   13OSM   H12S 1631   1.505   1.358  11.258
   13OSM   H12T 1632   1.331   1.405  11.263
   13OSM   C13S 1633   1.466   1.561  11.331
   13OSM   H13S 1634   1.396   1.559  11.418
   13OSM   H13T 1635   1.449   1.656  11.276
   13OSM   C14S 1636   1.609   1.558  11.387
   13OSM   H14S 1637   1.678   1.543  11.302
   13OSM   H14T 1638   1.620   1.470  11.454
   13OSM   C15S 1639   1.657   1.685  11.460
   13OSM   H15S 1640   1.663   1.766  11.384
   13OSM   H15T 1641   1.761   1.669  11.497
   13OSM   C16S 1642   1.571   1.734  11.577
   13OSM   H16S 1643   1.464   1.737  11.549
   13OSM   H16T 1644   1.602   1.839  11.598
   13OSM   C17S 1645   1.588   1.656  11.709
   13OSM   H17S 1646   1.586   1.729  11.793
   13OSM   H17T 1647   1.689   1.608  11.710
   13OSM   C18S 1648   1.480   1.551  11.734
   13OSM   H18S 1649   1.477   1.477  11.651
   13OSM   H18T 1650   1.380   1.600  11.741
   13OSM   H18U 1651   1.499   1.497  11.829
   13OSM    C1F 1652   1.238   1.667  10.210
   13OSM     OF 1653   1.167   1.626  10.121
   13OSM    C2F 1654   1.183   1.725  10.335
   13OSM    H2F 1655   1.096   1.790  10.309
   13OSM    H2G 1656   1.261   1.787  10.385
   13OSM    C3F 1657   1.135   1.614  10.431
   13OSM    H3F 1658   1.214   1.537  10.448
   13OSM    H3G 1659   1.048   1.562  10.384
   13OSM    C4F 1660   1.090   1.673  10.565
   13OSM    H4F 1661   1.010   1.610  10.610
   13OSM    H4G 1662   1.051   1.775  10.547
   13OSM    C5F 1663   1.202   1.689  10.667
   13OSM    H5F 1664   1.295   1.723  10.616
   13OSM    H5G 1665   1.220   1.589  10.711
   13OSM    C6F 1666   1.173   1.787  10.781
   13OSM    H6F 1667   1.072   1.765  10.822
   13OSM    H6G 1668   1.174   1.892  10.744
   13OSM    C7F 1669   1.276   1.770  10.892
   13OSM    H7F 1670   1.379   1.786  10.853
   13OSM    H7G 1671   1.271   1.663  10.924
   13OSM    C8F 1672   1.249   1.856  11.016
   13OSM    H8F 1673   1.300   1.806  11.101
   13OSM    H8G 1674   1.141   1.853  11.039
   13OSM    C9F 1675   1.298   1.997  10.996
   13OSM    H9F 1676   1.242   2.054  10.919
   13OSM   C10F 1677   1.400   2.057  11.059
   13OSM   H10F 1678   1.427   2.160  11.028
   13OSM   C11F 1679   1.491   1.997  11.163
   13OSM   H11F 1680   1.573   2.068  11.186
   13OSM   H11G 1681   1.540   1.906  11.119
   13OSM   C12F 1682   1.429   1.952  11.298
   13OSM   H12F 1683   1.512   1.912  11.361
   13OSM   H12G 1684   1.358   1.869  11.282
   13OSM   C13F 1685   1.359   2.059  11.384
   13OSM   H13F 1686   1.291   2.119  11.320
   13OSM   H13G 1687   1.436   2.129  11.424
   13OSM   C14F 1688   1.280   1.991  11.498
   13OSM   H14F 1689   1.336   1.899  11.527
   13OSM   H14G 1690   1.182   1.956  11.459
   13OSM   C15F 1691   1.257   2.069  11.628
   13OSM   H15F 1692   1.207   2.002  11.701
   13OSM   H15G 1693   1.191   2.156  11.614
   13OSM   C16F 1694   1.387   2.120  11.691
   13OSM   H16F 1695   1.418   2.209  11.633
   13OSM   H16G 1696   1.466   2.042  11.683
   13OSM   C17F 1697   1.372   2.160  11.838
   13OSM   H17F 1698   1.468   2.207  11.869
   13OSM   H17G 1699   1.357   2.069  11.900
   13OSM   C18F 1700   1.260   2.260  11.865
   13OSM   H18F 1701   1.255   2.282  11.974
   13OSM   H18G 1702   1.162   2.220  11.833
   13OSM   H18H 1703   1.279   2.355  11.811
   14OSM      N 1704   1.867   1.002   9.894
   14OSM    C15 1705   1.911   0.969  10.033
   14OSM   H15A 1706   1.826   0.950  10.098
   14OSM   H15B 1707   1.967   1.054  10.072
   14OSM   H15C 1708   1.974   0.881  10.032
   14OSM    C14 1709   1.983   0.997   9.799
   14OSM   H14A 1710   2.056   1.073   9.829
   14OSM   H14B 1711   1.950   1.023   9.699
   14OSM   H14C 1712   2.032   0.902   9.794
   14OSM    C13 1713   1.760   0.907   9.848
   14OSM   H13A 1714   1.674   0.909   9.914
   14OSM   H13B 1715   1.798   0.806   9.843
   14OSM   H13C 1716   1.722   0.936   9.750
   14OSM    C12 1717   1.814   1.144   9.889
   14OSM   H12A 1718   1.713   1.148   9.927
   14OSM   H12B 1719   1.801   1.172   9.785
   14OSM    C11 1720   1.893   1.259   9.957
   14OSM   H11A 1721   1.893   1.245  10.067
   14OSM   H11B 1722   1.835   1.353   9.938
   14OSM      P 1723   2.098   1.408   9.889
   14OSM    O13 1724   2.230   1.376   9.830
   14OSM    O14 1725   2.014   1.505   9.815
   14OSM    O11 1726   2.126   1.453  10.038
   14OSM    O12 1727   2.025   1.266   9.906
   14OSM    C1S 1728   2.160   1.353  10.136
   14OSM    H1S 1729   2.268   1.330  10.131
   14OSM    H1T 1730   2.105   1.257  10.122
   14OSM     NF 1731   2.128   1.295  10.378
   14OSM    HNF 1732   2.063   1.310  10.452
   14OSM    C2S 1733   2.123   1.402  10.277
   14OSM    H2S 1734   2.197   1.479  10.308
   14OSM    C3S 1735   1.980   1.468  10.279
   14OSM    H3S 1736   1.909   1.395  10.234
   14OSM     O3 1737   1.966   1.592  10.211
   14OSM    HO3 1738   2.030   1.589  10.139
   14OSM    C4S 1739   1.944   1.491  10.422
   14OSM    H4S 1740   1.977   1.588  10.461
   14OSM    C5S 1741   1.874   1.403  10.497
   14OSM    H5S 1742   1.839   1.310  10.449
   14OSM    C6S 1743   1.837   1.419  10.641
   14OSM    H6S 1744   1.867   1.329  10.698
   14OSM    H6T 1745   1.727   1.426  10.649
   14OSM    C7S 1746   1.903   1.541  10.708
   14OSM    H7S 1747   1.886   1.633  10.647
   14OSM    H7T 1748   2.012   1.521  10.711
   14OSM    C8S 1749   1.853   1.574  10.849
   14OSM    H8S 1750   1.743   1.585  10.849
   14OSM    H8T 1751   1.893   1.674  10.879
   14OSM    C9S 1752   1.896   1.474  10.957
   14OSM    H9S 1753   1.984   1.517  11.009
   14OSM    H9T 1754   1.925   1.377  10.910
   14OSM   C10S 1755   1.788   1.447  11.062
   14OSM   H10S 1756   1.705   1.394  11.012
   14OSM   H10T 1757   1.750   1.546  11.098
   14OSM   C11S 1758   1.836   1.365  11.183
   14OSM   H11S 1759   1.874   1.266  11.149
   14OSM   H11T 1760   1.747   1.346  11.247
   14OSM   C12S 1761   1.944   1.435  11.266
   14OSM   H12S 1762   1.931   1.545  11.255
   14OSM   H12T 1763   2.044   1.410  11.225
   14OSM   C13S 1764   1.941   1.405  11.418
   14OSM   H13S 1765   1.859   1.465  11.463
   14OSM   H13T 1766   2.036   1.441  11.463
   14OSM   C14S 1767   1.920   1.257  11.456
   14OSM   H14S 1768   2.008   1.199  11.421
   14OSM   H14T 1769   1.830   1.216  11.407
   14OSM   C15S 1770   1.903   1.238  11.608
   14OSM   H15S 1771   1.984   1.293  11.661
   14OSM   H15T 1772   1.915   1.130  11.632
   14OSM   C16S 1773   1.765   1.282  11.661
   14OSM   H16S 1774   1.688   1.218  11.612
   14OSM   H16T 1775   1.746   1.387  11.632
   14OSM   C17S 1776   1.750   1.270  11.813
   14OSM   H17S 1777   1.776   1.167  11.846
   14OSM   H17T 1778   1.642   1.287  11.839
   14OSM   C18S 1779   1.833   1.372  11.891
   14OSM   H18S 1780   1.813   1.363  12.000
   14OSM   H18T 1781   1.808   1.476  11.860
   14OSM   H18U 1782   1.942   1.356  11.873
   14OSM    C1F 1783   2.203   1.187  10.393
   14OSM     OF 1784   2.301   1.165  10.323
   14OSM    C2F 1785   2.144   1.087  10.492
   14OSM    H2F 1786   2.093   1.009  10.431
   14OSM    H2G 1787   2.066   1.139  10.550
   14OSM    C3F 1788   2.237   1.014  10.592
   14OSM    H3F 1789   2.319   0.963  10.537
   14OSM    H3G 1790   2.177   0.934  10.641
   14OSM    C4F 1791   2.299   1.099  10.704
   14OSM    H4F 1792   2.367   1.172  10.657
   14OSM    H4G 1793   2.364   1.034  10.768
   14OSM    C5F 1794   2.205   1.175  10.800
   14OSM    H5F 1795   2.187   1.111  10.889
   14OSM    H5G 1796   2.106   1.195  10.755
   14OSM    C6F 1797   2.269   1.308  10.843
   14OSM    H6F 1798   2.241   1.386  10.769
   14OSM    H6G 1799   2.379   1.295  10.835
   14OSM    C7F 1800   2.240   1.361  10.984
   14OSM    H7F 1801   2.135   1.393  10.989
   14OSM    H7G 1802   2.303   1.451  11.001
   14OSM    C8F 1803   2.262   1.263  11.101
   14OSM    H8F 1804   2.178   1.191  11.103
   14OSM    H8G 1805   2.259   1.321  11.196
   14OSM    C9F 1806   2.395   1.194  11.089
   14OSM    H9F 1807   2.472   1.250  11.034
   14OSM   C10F 1808   2.423   1.072  11.136
   14OSM   H10F 1809   2.521   1.028  11.115
   14OSM   C11F 1810   2.324   0.986  11.208
   14OSM   H11F 1811   2.366   0.884  11.212
   14OSM   H11G 1812   2.231   0.976  11.147
   14OSM   C12F 1813   2.277   1.030  11.350
   14OSM   H12F 1814   2.195   0.960  11.380
   14OSM   H12G 1815   2.232   1.131  11.346
   14OSM   C13F 1816   2.384   1.026  11.461
   14OSM   H13F 1817   2.432   1.126  11.467
   14OSM   H13G 1818   2.463   0.953  11.435
   14OSM   C14F 1819   2.328   0.990  11.600
   14OSM   H14F 1820   2.414   0.988  11.672
   14OSM   H14G 1821   2.284   0.888  11.598
   14OSM   C15F 1822   2.222   1.089  11.653
   14OSM   H15F 1823   2.126   1.070  11.601
   14OSM   H15G 1824   2.255   1.192  11.627
   14OSM   C16F 1825   2.203   1.082  11.806
   14OSM   H16F 1826   2.157   1.176  11.842
   14OSM   H16G 1827   2.302   1.072  11.854
   14OSM   C17F 1828   2.113   0.966  11.851
   14OSM   H17F 1829   2.128   0.880  11.782
   14OSM   H17G 1830   2.008   1.001  11.841
   14OSM   C18F 1831   2.133   0.917  11.994
   14OSM   H18F 1832   2.135   1.002  12.065
   14OSM   H18G 1833   2.229   0.862  12.002
   14OSM   H18H 1834   2.052   0.848  12.023
   15OSM      N 1835   0.837   1.901   9.744
   15OSM    C15 1836   0.837   1.817   9.619
   15OSM   H15A 1837   0.795   1.719   9.639
   15OSM   H15B 1838   0.937   1.805   9.580
   15OSM   H15C 1839   0.776   1.864   9.542
   15OSM    C14 1840   0.921   1.833   9.846
   15OSM   H14A 1841   1.018   1.805   9.808
   15OSM   H14B 1842   0.870   1.740   9.876
   15OSM   H14C 1843   0.934   1.891   9.936
   15OSM    C13 1844   0.894   2.035   9.710
   15OSM   H13A 1845   0.829   2.093   9.645
   15OSM   H13B 1846   0.989   2.021   9.660
   15OSM   H13C 1847   0.911   2.098   9.796
   15OSM    C12 1848   0.694   1.914   9.793
   15OSM   H12A 1849   0.634   1.966   9.719
   15OSM   H12B 1850   0.691   1.976   9.882
   15OSM    C11 1851   0.620   1.782   9.823
   15OSM   H11A 1852   0.618   1.721   9.729
   15OSM   H11B 1853   0.515   1.805   9.848
   15OSM      P 1854   0.681   1.557   9.933
   15OSM    O13 1855   0.562   1.508   9.861
   15OSM    O14 1856   0.814   1.511   9.887
   15OSM    O11 1857   0.663   1.519  10.085
   15OSM    O12 1858   0.680   1.715   9.934
   15OSM    C1S 1859   0.709   1.607  10.187
   15OSM    H1S 1860   0.659   1.705  10.176
   15OSM    H1T 1861   0.820   1.622  10.181
   15OSM     NF 1862   0.732   1.631  10.429
   15OSM    HNF 1863   0.801   1.591  10.488
   15OSM    C2S 1864   0.675   1.547  10.326
   15OSM    H2S 1865   0.565   1.545  10.340
   15OSM    C3S 1866   0.729   1.400  10.328
   15OSM    H3S 1867   0.831   1.398  10.283
   15OSM     O3 1868   0.648   1.311  10.252
   15OSM    HO3 1869   0.611   1.371  10.185
   15OSM    C4S 1870   0.737   1.346  10.469
   15OSM    H4S 1871   0.642   1.350  10.524
   15OSM    C5S 1872   0.846   1.295  10.529
   15OSM    H5S 1873   0.941   1.287  10.474
   15OSM    C6S 1874   0.850   1.241  10.671
   15OSM    H6S 1875   0.938   1.175  10.685
   15OSM    H6T 1876   0.762   1.176  10.688
   15OSM    C7S 1877   0.853   1.350  10.780
   15OSM    H7S 1878   0.792   1.316  10.867
   15OSM    H7T 1879   0.806   1.444  10.744
   15OSM    C8S 1880   0.995   1.378  10.831
   15OSM    H8S 1881   1.060   1.397  10.742
   15OSM    H8T 1882   1.036   1.288  10.882
   15OSM    C9S 1883   1.005   1.499  10.925
   15OSM    H9S 1884   0.939   1.581  10.890
   15OSM    H9T 1885   1.110   1.535  10.917
   15OSM   C10S 1886   0.981   1.467  11.073
   15OSM   H10S 1887   1.035   1.373  11.097
   15OSM   H10T 1888   0.873   1.451  11.093
   15OSM   C11S 1889   1.037   1.577  11.165
   15OSM   H11S 1890   0.971   1.667  11.162
   15OSM   H11T 1891   1.137   1.608  11.127
   15OSM   C12S 1892   1.056   1.532  11.311
   15OSM   H12S 1893   1.121   1.608  11.362
   15OSM   H12T 1894   1.111   1.435  11.313
   15OSM   C13S 1895   0.926   1.519  11.390
   15OSM   H13S 1896   0.868   1.431  11.352
   15OSM   H13T 1897   0.864   1.610  11.374
   15OSM   C14S 1898   0.953   1.501  11.540
   15OSM   H14S 1899   1.026   1.579  11.572
   15OSM   H14T 1900   1.001   1.402  11.556
   15OSM   C15S 1901   0.830   1.513  11.632
   15OSM   H15S 1902   0.794   1.618  11.631
   15OSM   H15T 1903   0.863   1.489  11.736
   15OSM   C16S 1904   0.710   1.426  11.594
   15OSM   H16S 1905   0.739   1.319  11.591
   15OSM   H16T 1906   0.676   1.455  11.492
   15OSM   C17S 1907   0.593   1.447  11.690
   15OSM   H17S 1908   0.500   1.405  11.646
   15OSM   H17T 1909   0.576   1.557  11.700
   15OSM   C18S 1910   0.613   1.387  11.830
   15OSM   H18S 1911   0.532   1.421  11.897
   15OSM   H18T 1912   0.710   1.418  11.874
   15OSM   H18U 1913   0.611   1.276  11.825
   15OSM    C1F 1914   0.703   1.760  10.443
   15OSM     OF 1915   0.613   1.815  10.381
   15OSM    C2F 1916   0.806   1.830  10.523
   15OSM    H2F 1917   0.888   1.859  10.454
   15OSM    H2G 1918   0.844   1.757  10.598
   15OSM    C3F 1919   0.766   1.955  10.603
   15OSM    H3F 1920   0.691   1.927  10.680
   15OSM    H3G 1921   0.722   2.032  10.536
   15OSM    C4F 1922   0.896   2.005  10.668
   15OSM    H4F 1923   0.957   2.058  10.592
   15OSM    H4G 1924   0.955   1.917  10.700
   15OSM    C5F 1925   0.874   2.093  10.790
   15OSM    H5F 1926   0.765   2.107  10.802
   15OSM    H5G 1927   0.922   2.192  10.772
   15OSM    C6F 1928   0.921   2.033  10.922
   15OSM    H6F 1929   1.003   1.960  10.907
   15OSM    H6G 1930   0.833   1.978  10.965
   15OSM    C7F 1931   0.968   2.141  11.020
   15OSM    H7F 1932   0.930   2.241  10.989
   15OSM    H7G 1933   1.079   2.148  11.015
   15OSM    C8F 1934   0.919   2.112  11.162
   15OSM    H8F 1935   0.869   2.014  11.164
   15OSM    H8G 1936   0.843   2.187  11.186
   15OSM    C9F 1937   1.023   2.114  11.270
   15OSM    H9F 1938   1.097   2.033  11.260
   15OSM   C10F 1939   1.029   2.198  11.375
   15OSM   H10F 1940   1.116   2.187  11.439
   15OSM   C11F 1941   0.938   2.311  11.417
   15OSM   H11F 1942   0.843   2.311  11.361
   15OSM   H11G 1943   0.989   2.407  11.392
   15OSM   C12F 1944   0.903   2.314  11.568
   15OSM   H12F 1945   0.914   2.419  11.604
   15OSM   H12G 1946   0.976   2.252  11.624
   15OSM   C13F 1947   0.759   2.272  11.599
   15OSM   H13F 1948   0.741   2.170  11.559
   15OSM   H13G 1949   0.688   2.341  11.547
   15OSM   C14F 1950   0.719   2.275  11.748
   15OSM   H14F 1951   0.628   2.211  11.757
   15OSM   H14G 1952   0.690   2.378  11.778
   15OSM   C15F 1953   0.826   2.225  11.847
   15OSM   H15F 1954   0.884   2.314  11.880
   15OSM   H15G 1955   0.898   2.157  11.796
   15OSM   C16F 1956   0.770   2.152  11.970
   15OSM   H16F 1957   0.776   2.042  11.955
   15OSM   H16G 1958   0.663   2.178  11.984
   15OSM   C17F 1959   0.843   2.188  12.100
   15OSM   H17F 1960   0.789   2.142  12.186
   15OSM   H17G 1961   0.838   2.299  12.111
   15OSM   C18F 1962   0.990   2.147  12.105
   15OSM   H18F 1963   1.039   2.189  12.196
   15OSM   H18G 1964   1.044   2.186  12.016
   15OSM   H18H 1965   1.001   2.037  12.107
   16OSM      N 1966   3.446   0.823   9.855
   16OSM    C15 1967   3.551   0.907   9.790
   16OSM   H15A 1968   3.521   0.935   9.690
   16OSM   H15B 1969   3.645   0.854   9.779
   16OSM   H15C 1970   3.571   0.997   9.847
   16OSM    C14 1971   3.437   0.692   9.784
   16OSM   H14A 1972   3.347   0.638   9.816
   16OSM   H14B 1973   3.521   0.629   9.808
   16OSM   H14C 1974   3.427   0.705   9.678
   16OSM    C13 1975   3.487   0.798   9.997
   16OSM   H13A 1976   3.489   0.889  10.055
   16OSM   H13B 1977   3.585   0.753  10.001
   16OSM   H13C 1978   3.418   0.728  10.044
   16OSM    C12 1979   3.310   0.891   9.847
   16OSM   H12A 1980   3.283   0.901   9.743
   16OSM   H12B 1981   3.319   0.991   9.888
   16OSM    C11 1982   3.188   0.819   9.911
   16OSM   H11A 1983   3.101   0.889   9.903
   16OSM   H11B 1984   3.205   0.801  10.020
   16OSM      P 1985   3.019   0.625   9.862
   16OSM    O13 1986   2.914   0.729   9.862
   16OSM    O14 1987   3.009   0.525   9.754
   16OSM    O11 1988   3.028   0.558  10.006
   16OSM    O12 1989   3.161   0.695   9.845
   16OSM    C1S 1990   3.153   0.509  10.057
   16OSM    H1S 1991   3.237   0.578  10.033
   16OSM    H1T 1992   3.174   0.409  10.012
   16OSM     NF 1993   3.290   0.511  10.265
   16OSM    HNF 1994   3.345   0.428  10.272
   16OSM    C2S 1995   3.154   0.497  10.213
   16OSM    H2S 1996   3.091   0.581  10.252
   16OSM    C3S 1997   3.092   0.364  10.263
   16OSM    H3S 1998   3.150   0.280  10.219
   16OSM     O3 1999   2.956   0.340  10.233
   16OSM    HO3 2000   2.932   0.404  10.165
   16OSM    C4S 2001   3.106   0.361  10.413
   16OSM    H4S 2002   3.065   0.450  10.464
   16OSM    C5S 2003   3.166   0.265  10.485
   16OSM    H5S 2004   3.207   0.178  10.430
   16OSM    C6S 2005   3.182   0.260  10.635
   16OSM    H6S 2006   3.290   0.252  10.660
   16OSM    H6T 2007   3.133   0.166  10.667
   16OSM    C7S 2008   3.122   0.371  10.723
   16OSM    H7S 2009   3.024   0.401  10.687
   16OSM    H7T 2010   3.183   0.463  10.718
   16OSM    C8S 2011   3.103   0.334  10.871
   16OSM    H8S 2012   3.060   0.232  10.881
   16OSM    H8T 2013   3.027   0.406  10.912
   16OSM    C9S 2014   3.229   0.347  10.956
   16OSM    H9S 2015   3.256   0.455  10.964
   16OSM    H9T 2016   3.313   0.294  10.905
   16OSM   C10S 2017   3.213   0.292  11.098
   16OSM   H10S 2018   3.296   0.330  11.160
   16OSM   H10T 2019   3.224   0.181  11.092
   16OSM   C11S 2020   3.078   0.325  11.163
   16OSM   H11S 2021   3.070   0.270  11.259
   16OSM   H11T 2022   2.996   0.287  11.099
   16OSM   C12S 2023   3.055   0.474  11.190
   16OSM   H12S 2024   2.949   0.485  11.221
   16OSM   H12T 2025   3.067   0.532  11.096
   16OSM   C13S 2026   3.145   0.536  11.298
   16OSM   H13S 2027   3.104   0.637  11.320
   16OSM   H13T 2028   3.248   0.550  11.259
   16OSM   C14S 2029   3.154   0.452  11.427
   16OSM   H14S 2030   3.216   0.362  11.406
   16OSM   H14T 2031   3.053   0.416  11.454
   16OSM   C15S 2032   3.215   0.527  11.545
   16OSM   H15S 2033   3.313   0.565  11.514
   16OSM   H15T 2034   3.233   0.457  11.629
   16OSM   C16S 2035   3.129   0.645  11.594
   16OSM   H16S 2036   3.057   0.674  11.516
   16OSM   H16T 2037   3.192   0.735  11.610
   16OSM   C17S 2038   3.057   0.613  11.724
   16OSM   H17S 2039   3.026   0.506  11.724
   16OSM   H17T 2040   2.963   0.673  11.730
   16OSM   C18S 2041   3.143   0.643  11.847
   16OSM   H18S 2042   3.180   0.747  11.844
   16OSM   H18T 2043   3.230   0.574  11.851
   16OSM   H18U 2044   3.083   0.630  11.938
   16OSM    C1F 2045   3.341   0.629  10.301
   16OSM     OF 2046   3.285   0.733  10.268
   16OSM    C2F 2047   3.472   0.629  10.373
   16OSM    H2F 2048   3.541   0.700  10.322
   16OSM    H2G 2049   3.514   0.527  10.368
   16OSM    C3F 2050   3.464   0.669  10.522
   16OSM    H3F 2051   3.420   0.771  10.536
   16OSM    H3G 2052   3.568   0.671  10.563
   16OSM    C4F 2053   3.388   0.568  10.608
   16OSM    H4F 2054   3.420   0.465  10.578
   16OSM    H4G 2055   3.280   0.578  10.585
   16OSM    C5F 2056   3.416   0.582  10.759
   16OSM    H5F 2057   3.526   0.588  10.773
   16OSM    H5G 2058   3.385   0.488  10.808
   16OSM    C6F 2059   3.351   0.702  10.829
   16OSM    H6F 2060   3.398   0.792  10.784
   16OSM    H6G 2061   3.377   0.698  10.937
   16OSM    C7F 2062   3.197   0.714  10.819
   16OSM    H7F 2063   3.149   0.624  10.862
   16OSM    H7G 2064   3.168   0.718  10.712
   16OSM    C8F 2065   3.135   0.837  10.890
   16OSM    H8F 2066   3.105   0.806  10.993
   16OSM    H8G 2067   3.042   0.865  10.837
   16OSM    C9F 2068   3.233   0.952  10.894
   16OSM    H9F 2069   3.258   0.993  10.795
   16OSM   C10F 2070   3.293   1.003  11.003
   16OSM   H10F 2071   3.367   1.083  10.990
   16OSM   C11F 2072   3.274   0.956  11.146
   16OSM   H11F 2073   3.171   0.918  11.162
   16OSM   H11G 2074   3.285   1.045  11.212
   16OSM   C12F 2075   3.368   0.846  11.201
   16OSM   H12F 2076   3.469   0.858  11.157
   16OSM   H12G 2077   3.330   0.746  11.168
   16OSM   C13F 2078   3.381   0.850  11.355
   16OSM   H13F 2079   3.283   0.829  11.402
   16OSM   H13G 2080   3.411   0.954  11.384
   16OSM   C14F 2081   3.487   0.753  11.408
   16OSM   H14F 2082   3.576   0.760  11.341
   16OSM   H14G 2083   3.452   0.649  11.399
   16OSM   C15F 2084   3.538   0.782  11.551
   16OSM   H15F 2085   3.587   0.882  11.551
   16OSM   H15G 2086   3.616   0.704  11.572
   16OSM   C16F 2087   3.442   0.783  11.672
   16OSM   H16F 2088   3.389   0.687  11.678
   16OSM   H16G 2089   3.368   0.864  11.660
   16OSM   C17F 2090   3.522   0.803  11.802
   16OSM   H17F 2091   3.574   0.901  11.797
   16OSM   H17G 2092   3.599   0.724  11.805
   16OSM   C18F 2093   3.445   0.796  11.935
   16OSM   H18F 2094   3.516   0.803  12.020
   16OSM   H18G 2095   3.393   0.699  11.944
   16OSM   H18H 2096   3.371   0.878  11.943
   17OSM      N 2097   3.578   4.764   9.867
   17OSM    C15 2098   3.592   4.758  10.015
   17OSM   H15A 2099   3.578   4.857  10.059
   17OSM   H15B 2100   3.688   4.722  10.046
   17OSM   H15C 2101   3.512   4.697  10.059
   17OSM    C14 2102   3.459   4.851   9.848
   17OSM   H14A 2103   3.368   4.799   9.880
   17OSM   H14B 2104   3.441   4.880   9.746
   17OSM   H14C 2105   3.467   4.943   9.904
   17OSM    C13 2106   3.697   4.831   9.806
   17OSM   H13A 2107   3.788   4.773   9.811
   17OSM   H13B 2108   3.714   4.927   9.853
   17OSM   H13C 2109   3.679   4.855   9.701
   17OSM    C12 2110   3.555   4.627   9.804
   17OSM   H12A 2111   3.647   4.572   9.811
   17OSM   H12B 2112   3.529   4.639   9.699
   17OSM    C11 2113   3.445   4.537   9.863
   17OSM   H11A 2114   3.470   4.516   9.970
   17OSM   H11B 2115   3.450   4.438   9.810
   17OSM      P 2116   3.195   4.499   9.896
   17OSM    O13 2117   3.065   4.569   9.889
   17OSM    O14 2118   3.206   4.379   9.810
   17OSM    O11 2119   3.242   4.474  10.047
   17OSM    O12 2120   3.314   4.596   9.849
   17OSM    C1S 2121   3.268   4.582  10.136
   17OSM    H1S 2122   3.171   4.632  10.157
   17OSM    H1T 2123   3.336   4.659  10.092
   17OSM     NF 2124   3.470   4.555  10.296
   17OSM    HNF 2125   3.523   4.471  10.291
   17OSM    C2S 2126   3.325   4.538  10.277
   17OSM    H2S 2127   3.274   4.604  10.351
   17OSM    C3S 2128   3.288   4.390  10.309
   17OSM    H3S 2129   3.351   4.322  10.248
   17OSM     O3 2130   3.152   4.354  10.292
   17OSM    HO3 2131   3.148   4.321  10.201
   17OSM    C4S 2132   3.318   4.367  10.455
   17OSM    H4S 2133   3.292   4.455  10.516
   17OSM    C5S 2134   3.369   4.258  10.515
   17OSM    H5S 2135   3.388   4.168  10.455
   17OSM    C6S 2136   3.394   4.247  10.664
   17OSM    H6S 2137   3.501   4.224  10.683
   17OSM    H6T 2138   3.339   4.157  10.700
   17OSM    C7S 2139   3.350   4.365  10.756
   17OSM    H7S 2140   3.250   4.403  10.726
   17OSM    H7T 2141   3.420   4.450  10.743
   17OSM    C8S 2142   3.342   4.326  10.905
   17OSM    H8S 2143   3.439   4.284  10.932
   17OSM    H8T 2144   3.271   4.241  10.915
   17OSM    C9S 2145   3.306   4.441  11.001
   17OSM    H9S 2146   3.201   4.473  10.983
   17OSM    H9T 2147   3.370   4.528  10.976
   17OSM   C10S 2148   3.324   4.409  11.152
   17OSM   H10S 2149   3.428   4.374  11.168
   17OSM   H10T 2150   3.257   4.325  11.181
   17OSM   C11S 2151   3.301   4.528  11.248
   17OSM   H11S 2152   3.192   4.548  11.250
   17OSM   H11T 2153   3.352   4.619  11.210
   17OSM   C12S 2154   3.347   4.503  11.395
   17OSM   H12S 2155   3.337   4.395  11.417
   17OSM   H12T 2156   3.276   4.556  11.463
   17OSM   C13S 2157   3.489   4.553  11.429
   17OSM   H13S 2158   3.481   4.660  11.454
   17OSM   H13T 2159   3.549   4.546  11.335
   17OSM   C14S 2160   3.570   4.481  11.541
   17OSM   H14S 2161   3.676   4.505  11.521
   17OSM   H14T 2162   3.563   4.372  11.530
   17OSM   C15S 2163   3.551   4.515  11.690
   17OSM   H15S 2164   3.443   4.518  11.716
   17OSM   H15T 2165   3.594   4.615  11.711
   17OSM   C16S 2166   3.622   4.408  11.776
   17OSM   H16S 2167   3.691   4.351  11.709
   17OSM   H16T 2168   3.550   4.334  11.815
   17OSM   C17S 2169   3.706   4.457  11.895
   17OSM   H17S 2170   3.757   4.552  11.869
   17OSM   H17T 2171   3.785   4.381  11.916
   17OSM   C18S 2172   3.624   4.474  12.023
   17OSM   H18S 2173   3.690   4.500  12.109
   17OSM   H18T 2174   3.569   4.381  12.047
   17OSM   H18U 2175   3.551   4.556  12.008
   17OSM    C1F 2176   3.528   4.675  10.309
   17OSM     OF 2177   3.467   4.776  10.283
   17OSM    C2F 2178   3.674   4.681  10.345
   17OSM    H2F 2179   3.722   4.753  10.274
   17OSM    H2G 2180   3.721   4.582  10.330
   17OSM    C3F 2181   3.703   4.733  10.488
   17OSM    H3F 2182   3.678   4.654  10.561
   17OSM    H3G 2183   3.639   4.822  10.510
   17OSM    C4F 2184   3.851   4.776  10.504
   17OSM    H4F 2185   3.861   4.880  10.463
   17OSM    H4G 2186   3.916   4.710  10.443
   17OSM    C5F 2187   3.907   4.774  10.648
   17OSM    H5F 2188   4.005   4.827  10.649
   17OSM    H5G 2189   3.927   4.669  10.679
   17OSM    C6F 2190   3.816   4.839  10.753
   17OSM    H6F 2191   3.719   4.784  10.753
   17OSM    H6G 2192   3.794   4.945  10.724
   17OSM    C7F 2193   3.873   4.835  10.895
   17OSM    H7F 2194   3.956   4.909  10.905
   17OSM    H7G 2195   3.916   4.734  10.914
   17OSM    C8F 2196   3.763   4.865  10.999
   17OSM    H8F 2197   3.675   4.804  10.970
   17OSM    H8G 2198   3.734   4.971  10.990
   17OSM    C9F 2199   3.800   4.833  11.142
   17OSM    H9F 2200   3.906   4.812  11.162
   17OSM   C10F 2201   3.712   4.829  11.243
   17OSM   H10F 2202   3.747   4.802  11.344
   17OSM   C11F 2203   3.563   4.856  11.232
   17OSM   H11F 2204   3.506   4.776  11.284
   17OSM   H11G 2205   3.529   4.852  11.126
   17OSM   C12F 2206   3.521   4.992  11.290
   17OSM   H12F 2207   3.411   5.002  11.280
   17OSM   H12G 2208   3.566   5.072  11.228
   17OSM   C13F 2209   3.559   5.019  11.437
   17OSM   H13F 2210   3.512   5.114  11.468
   17OSM   H13G 2211   3.670   5.032  11.444
   17OSM   C14F 2212   3.516   4.912  11.539
   17OSM   H14F 2213   3.554   4.943  11.639
   17OSM   H14G 2214   3.569   4.818  11.516
   17OSM   C15F 2215   3.363   4.895  11.547
   17OSM   H15F 2216   3.322   4.867  11.447
   17OSM   H15G 2217   3.323   4.996  11.573
   17OSM   C16F 2218   3.308   4.798  11.653
   17OSM   H16F 2219   3.330   4.693  11.626
   17OSM   H16G 2220   3.198   4.809  11.656
   17OSM   C17F 2221   3.363   4.827  11.793
   17OSM   H17F 2222   3.344   4.934  11.815
   17OSM   H17G 2223   3.472   4.809  11.792
   17OSM   C18F 2224   3.300   4.746  11.906
   17OSM   H18F 2225   3.325   4.639  11.894
   17OSM   H18G 2226   3.341   4.781  12.003
   17OSM   H18H 2227   3.190   4.759  11.908
   18OSM      N 2228   2.761   4.824   9.882
   18OSM    C15 2229   2.619   4.802   9.846
   18OSM   H15A 2230   2.574   4.733   9.917
   18OSM   H15B 2231   2.615   4.756   9.747
   18OSM   H15C 2232   2.561   4.894   9.843
   18OSM    C14 2233   2.774   4.893  10.015
   18OSM   H14A 2234   2.741   4.995  10.010
   18OSM   H14B 2235   2.879   4.896  10.042
   18OSM   H14C 2236   2.718   4.840  10.090
   18OSM    C13 2237   2.830   4.694   9.897
   18OSM   H13A 2238   2.795   4.636   9.982
   18OSM   H13B 2239   2.936   4.709   9.920
   18OSM   H13C 2240   2.829   4.632   9.808
   18OSM    C12 2241   2.830   4.902   9.772
   18OSM   H12A 2242   2.797   5.005   9.775
   18OSM   H12B 2243   2.796   4.865   9.675
   18OSM    C11 2244   2.985   4.906   9.770
   18OSM   H11A 2245   3.014   4.973   9.685
   18OSM   H11B 2246   3.026   4.805   9.749
   18OSM      P 2247   3.163   5.032   9.918
   18OSM    O13 2248   3.249   5.026   9.798
   18OSM    O14 2249   3.120   5.166   9.963
   18OSM    O11 2250   3.222   4.954  10.041
   18OSM    O12 2251   3.030   4.952   9.896
   18OSM    C1S 2252   3.130   4.939  10.153
   18OSM    H1S 2253   3.083   4.838  10.145
   18OSM    H1T 2254   3.047   5.015  10.156
   18OSM     NF 2255   3.093   4.939  10.395
   18OSM    HNF 2256   3.058   5.023  10.434
   18OSM    C2S 2257   3.196   4.951  10.293
   18OSM    H2S 2258   3.267   4.867  10.304
   18OSM    C3S 2259   3.275   5.084  10.308
   18OSM    H3S 2260   3.204   5.169  10.302
   18OSM     O3 2261   3.370   5.099  10.205
   18OSM    HO3 2262   3.347   5.026  10.144
   18OSM    C4S 2263   3.345   5.089  10.442
   18OSM    H4S 2264   3.451   5.060  10.439
   18OSM    C5S 2265   3.290   5.129  10.560
   18OSM    H5S 2266   3.185   5.160  10.561
   18OSM    C6S 2267   3.360   5.135  10.693
   18OSM    H6S 2268   3.344   5.235  10.740
   18OSM    H6T 2269   3.469   5.126  10.678
   18OSM    C7S 2270   3.323   5.028  10.799
   18OSM    H7S 2271   3.381   5.050  10.892
   18OSM    H7T 2272   3.357   4.929  10.762
   18OSM    C8S 2273   3.175   5.020  10.837
   18OSM    H8S 2274   3.162   4.941  10.915
   18OSM    H8T 2275   3.116   4.990  10.748
   18OSM    C9S 2276   3.116   5.151  10.890
   18OSM    H9S 2277   3.126   5.226  10.809
   18OSM    H9T 2278   3.177   5.188  10.975
   18OSM   C10S 2279   2.967   5.143  10.926
   18OSM   H10S 2280   2.915   5.080  10.850
   18OSM   H10T 2281   2.922   5.245  10.921
   18OSM   C11S 2282   2.942   5.088  11.067
   18OSM   H11S 2283   3.003   4.997  11.082
   18OSM   H11T 2284   2.835   5.058  11.076
   18OSM   C12S 2285   2.974   5.191  11.175
   18OSM   H12S 2286   2.900   5.274  11.173
   18OSM   H12T 2287   3.073   5.234  11.151
   18OSM   C13S 2288   2.984   5.133  11.317
   18OSM   H13S 2289   3.053   5.046  11.313
   18OSM   H13T 2290   2.886   5.096  11.352
   18OSM   C14S 2291   3.042   5.237  11.413
   18OSM   H14S 2292   2.970   5.320  11.430
   18OSM   H14T 2293   3.133   5.281  11.365
   18OSM   C15S 2294   3.090   5.179  11.546
   18OSM   H15S 2295   3.157   5.252  11.595
   18OSM   H15T 2296   3.149   5.087  11.525
   18OSM   C16S 2297   2.978   5.142  11.643
   18OSM   H16S 2298   2.905   5.074  11.593
   18OSM   H16T 2299   2.923   5.234  11.674
   18OSM   C17S 2300   3.033   5.072  11.768
   18OSM   H17S 2301   3.088   4.980  11.737
   18OSM   H17T 2302   2.948   5.040  11.831
   18OSM   C18S 2303   3.126   5.158  11.855
   18OSM   H18S 2304   3.077   5.255  11.879
   18OSM   H18T 2305   3.222   5.179  11.803
   18OSM   H18U 2306   3.149   5.105  11.950
   18OSM    C1F 2307   3.046   4.821  10.432
   18OSM     OF 2308   3.074   4.720  10.370
   18OSM    C2F 2309   2.957   4.818  10.551
   18OSM    H2F 2310   2.862   4.768  10.522
   18OSM    H2G 2311   2.934   4.922  10.584
   18OSM    C3F 2312   3.019   4.739  10.668
   18OSM    H3F 2313   3.113   4.786  10.704
   18OSM    H3G 2314   3.047   4.637  10.632
   18OSM    C4F 2315   2.920   4.727  10.784
   18OSM    H4F 2316   2.823   4.688  10.744
   18OSM    H4G 2317   2.901   4.828  10.826
   18OSM    C5F 2318   2.966   4.632  10.894
   18OSM    H5F 2319   3.062   4.667  10.938
   18OSM    H5G 2320   2.984   4.531  10.849
   18OSM    C6F 2321   2.861   4.618  11.005
   18OSM    H6F 2322   2.886   4.529  11.066
   18OSM    H6G 2323   2.761   4.601  10.960
   18OSM    C7F 2324   2.859   4.738  11.099
   18OSM    H7F 2325   2.840   4.830  11.041
   18OSM    H7G 2326   2.959   4.749  11.147
   18OSM    C8F 2327   2.751   4.727  11.208
   18OSM    H8F 2328   2.650   4.728  11.159
   18OSM    H8G 2329   2.759   4.819  11.268
   18OSM    C9F 2330   2.765   4.606  11.297
   18OSM    H9F 2331   2.745   4.510  11.247
   18OSM   C10F 2332   2.796   4.605  11.427
   18OSM   H10F 2333   2.799   4.507  11.477
   18OSM   C11F 2334   2.825   4.722  11.517
   18OSM   H11F 2335   2.739   4.737  11.586
   18OSM   H11G 2336   2.834   4.818  11.460
   18OSM   C12F 2337   2.953   4.710  11.602
   18OSM   H12F 2338   2.954   4.798  11.672
   18OSM   H12G 2339   3.041   4.722  11.535
   18OSM   C13F 2340   2.975   4.582  11.686
   18OSM   H13F 2341   3.039   4.610  11.773
   18OSM   H13G 2342   3.034   4.509  11.627
   18OSM   C14F 2343   2.847   4.513  11.737
   18OSM   H14F 2344   2.819   4.431  11.668
   18OSM   H14G 2345   2.763   4.585  11.736
   18OSM   C15F 2346   2.855   4.456  11.880
   18OSM   H15F 2347   2.758   4.406  11.903
   18OSM   H15G 2348   2.865   4.540  11.951
   18OSM   C16F 2349   2.967   4.357  11.912
   18OSM   H16F 2350   3.048   4.365  11.836
   18OSM   H16G 2351   2.925   4.254  11.909
   18OSM   C17F 2352   3.030   4.383  12.049
   18OSM   H17F 2353   3.076   4.289  12.088
   18OSM   H17G 2354   2.952   4.414  12.121
   18OSM   C18F 2355   3.135   4.492  12.042
   18OSM   H18F 2356   3.211   4.466  11.965
   18OSM   H18G 2357   3.186   4.504  12.139
   18OSM   H18H 2358   3.088   4.589  12.014
   19SAPS     N 2359   2.434   2.241  14.255
   19SAPS   HN1 2360   2.343   2.227  14.306
   19SAPS   HN2 2361   2.509   2.255  14.325
   19SAPS   HN3 2362   2.427   2.323  14.193
   19SAPS   C12 2363   2.448   2.116  14.176
   19SAPS  H12A 2364   2.548   2.076  14.186
   19SAPS   C13 2365   2.343   2.013  14.229
   19SAPS  O13A 2366   2.260   2.058  14.315
   19SAPS  O13B 2367   2.361   1.890  14.209
   19SAPS   C11 2368   2.419   2.158  14.029
   19SAPS  H11A 2369   2.470   2.253  14.003
   19SAPS  H11B 2370   2.309   2.178  14.022
   19SAPS     P 2371   2.365   2.009  13.826
   19SAPS   O13 2372   2.240   1.966  13.895
   19SAPS   O14 2373   2.357   2.118  13.726
   19SAPS   O12 2374   2.466   2.057  13.940
   19SAPS   O11 2375   2.441   1.881  13.772
   19SAPS    C1 2376   2.475   1.781  13.870
   19SAPS    HA 2377   2.582   1.789  13.897
   19SAPS    HB 2378   2.418   1.790  13.967
   19SAPS    C2 2379   2.441   1.639  13.817
   19SAPS    HS 2380   2.465   1.567  13.898
   19SAPS   O21 2381   2.513   1.600  13.700
   19SAPS   C21 2382   2.633   1.647  13.685
   19SAPS   O22 2383   2.723   1.644  13.767
   19SAPS   C22 2384   2.646   1.702  13.545
   19SAPS   H2R 2385   2.642   1.616  13.475
   19SAPS   H2S 2386   2.560   1.769  13.525
   19SAPS    C3 2387   2.289   1.623  13.783
   19SAPS    HX 2388   2.235   1.630  13.880
   19SAPS    HY 2389   2.274   1.521  13.743
   19SAPS   O31 2390   2.232   1.723  13.695
   19SAPS   C31 2391   2.266   1.719  13.566
   19SAPS   O32 2392   2.334   1.633  13.514
   19SAPS   C32 2393   2.183   1.823  13.489
   19SAPS   H2X 2394   2.147   1.900  13.561
   19SAPS   H2Y 2395   2.095   1.770  13.448
   19SAPS   C23 2396   2.777   1.781  13.531
   19SAPS   H3R 2397   2.860   1.724  13.579
   19SAPS   H3S 2398   2.768   1.877  13.586
   19SAPS   C24 2399   2.814   1.799  13.384
   19SAPS   H4R 2400   2.784   1.706  13.332
   19SAPS   H4S 2401   2.925   1.805  13.373
   19SAPS   C25 2402   2.749   1.920  13.323
   19SAPS   H5R 2403   2.698   1.989  13.393
   19SAPS   C26 2404   2.747   1.944  13.192
   19SAPS   H6R 2405   2.702   2.038  13.156
   19SAPS   C27 2406   2.811   1.857  13.087
   19SAPS   H7R 2407   2.918   1.846  13.112
   19SAPS   H7S 2408   2.808   1.912  12.991
   19SAPS   C28 2409   2.762   1.716  13.066
   19SAPS   H8R 2410   2.796   1.644  13.141
   19SAPS   C29 2411   2.690   1.669  12.963
   19SAPS   H9R 2412   2.676   1.562  12.956
   19SAPS  C210 2413   2.639   1.743  12.844
   19SAPS  H10R 2414   2.708   1.724  12.759
   19SAPS  H10S 2415   2.642   1.853  12.860
   19SAPS  C211 2416   2.499   1.699  12.809
   19SAPS  H11R 2417   2.447   1.631  12.879
   19SAPS  C212 2418   2.436   1.738  12.698
   19SAPS  H12R 2419   2.334   1.703  12.677
   19SAPS  C213 2420   2.498   1.831  12.596
   19SAPS  H13R 2421   2.557   1.907  12.650
   19SAPS  H13S 2422   2.417   1.886  12.543
   19SAPS  C214 2423   2.594   1.772  12.497
   19SAPS  H14R 2424   2.699   1.803  12.510
   19SAPS  C215 2425   2.561   1.687  12.400
   19SAPS  H15R 2426   2.639   1.655  12.328
   19SAPS  C216 2427   2.423   1.636  12.373
   19SAPS  H16R 2428   2.348   1.672  12.447
   19SAPS  H16S 2429   2.425   1.526  12.384
   19SAPS  C217 2430   2.371   1.677  12.235
   19SAPS  H17R 2431   2.284   1.612  12.215
   19SAPS  H17S 2432   2.447   1.658  12.156
   19SAPS  C218 2433   2.325   1.823  12.229
   19SAPS  H18R 2434   2.409   1.891  12.255
   19SAPS  H18S 2435   2.246   1.838  12.306
   19SAPS  C219 2436   2.268   1.864  12.092
   19SAPS  H19R 2437   2.353   1.869  12.020
   19SAPS  H19S 2438   2.225   1.966  12.099
   19SAPS  C220 2439   2.164   1.767  12.035
   19SAPS  H20R 2440   2.211   1.668  12.016
   19SAPS  H20S 2441   2.124   1.804  11.939
   19SAPS  H20T 2442   2.080   1.754  12.106
   19SAPS   C33 2443   2.259   1.895  13.374
   19SAPS   H3X 2444   2.349   1.945  13.417
   19SAPS   H3Y 2445   2.192   1.976  13.335
   19SAPS   C34 2446   2.300   1.806  13.255
   19SAPS   H4X 2447   2.211   1.772  13.198
   19SAPS   H4Y 2448   2.352   1.716  13.294
   19SAPS   C35 2449   2.401   1.875  13.163
   19SAPS   H5X 2450   2.447   1.800  13.095
   19SAPS   H5Y 2451   2.482   1.914  13.228
   19SAPS   C36 2452   2.345   1.990  13.077
   19SAPS   H6X 2453   2.285   2.059  13.140
   19SAPS   H6Y 2454   2.279   1.948  12.999
   19SAPS   C37 2455   2.460   2.069  13.011
   19SAPS   H7X 2456   2.523   1.997  12.955
   19SAPS   H7Y 2457   2.522   2.115  13.091
   19SAPS   C38 2458   2.414   2.180  12.916
   19SAPS   H8X 2459   2.381   2.267  12.978
   19SAPS   H8Y 2460   2.327   2.145  12.858
   19SAPS   C39 2461   2.527   2.226  12.821
   19SAPS   H9X 2462   2.624   2.211  12.873
   19SAPS   H9Y 2463   2.516   2.335  12.802
   19SAPS  C310 2464   2.529   2.153  12.686
   19SAPS  H10X 2465   2.451   2.073  12.690
   19SAPS  H10Y 2466   2.629   2.106  12.673
   19SAPS  C311 2467   2.498   2.241  12.564
   19SAPS  H11X 2468   2.572   2.324  12.561
   19SAPS  H11Y 2469   2.397   2.285  12.577
   19SAPS  C312 2470   2.503   2.171  12.426
   19SAPS  H12X 2471   2.468   2.245  12.351
   19SAPS  H12Y 2472   2.431   2.086  12.424
   19SAPS  C313 2473   2.643   2.122  12.383
   19SAPS  H13X 2474   2.668   2.030  12.440
   19SAPS  H13Y 2475   2.719   2.198  12.409
   19SAPS  C314 2476   2.652   2.092  12.231
   19SAPS  H14X 2477   2.717   2.169  12.183
   19SAPS  H14Y 2478   2.550   2.103  12.189
   19SAPS  C315 2479   2.704   1.951  12.197
   19SAPS  H15X 2480   2.630   1.880  12.240
   19SAPS  H15Y 2481   2.801   1.931  12.246
   19SAPS  C316 2482   2.717   1.916  12.047
   19SAPS  H16X 2483   2.706   1.806  12.036
   19SAPS  H16Y 2484   2.819   1.944  12.012
   19SAPS  C317 2485   2.615   1.988  11.959
   19SAPS  H17X 2486   2.651   2.092  11.948
   19SAPS  H17Y 2487   2.517   1.991  12.010
   19SAPS  C318 2488   2.594   1.930  11.819
   19SAPS  H18X 2489   2.691   1.926  11.763
   19SAPS  H18Y 2490   2.524   1.994  11.761
   19SAPS  H18Z 2491   2.551   1.828  11.824
   20SAPS     N 2492   3.400   0.642  14.025
   20SAPS   HN1 2493   3.439   0.547  14.020
   20SAPS   HN2 2494   3.377   0.687  13.933
   20SAPS   HN3 2495   3.454   0.702  14.091
   20SAPS   C12 2496   3.270   0.645  14.095
   20SAPS  H12A 2497   3.217   0.553  14.077
   20SAPS   C13 2498   3.296   0.668  14.246
   20SAPS  O13A 2499   3.407   0.720  14.280
   20SAPS  O13B 2500   3.213   0.619  14.325
   20SAPS   C11 2501   3.195   0.769  14.041
   20SAPS  H11A 2502   3.231   0.861  14.094
   20SAPS  H11B 2503   3.087   0.755  14.066
   20SAPS     P 2504   3.135   0.906  13.831
   20SAPS   O13 2505   3.068   0.854  13.710
   20SAPS   O14 2506   3.055   0.970  13.936
   20SAPS   O12 2507   3.213   0.785  13.899
   20SAPS   O11 2508   3.258   1.002  13.793
   20SAPS    C1 2509   3.394   0.956  13.789
   20SAPS    HA 2510   3.442   0.967  13.889
   20SAPS    HB 2511   3.397   0.849  13.760
   20SAPS    C2 2512   3.483   1.033  13.684
   20SAPS    HS 2513   3.502   1.134  13.726
   20SAPS   O21 2514   3.414   1.036  13.559
   20SAPS   C21 2515   3.342   1.146  13.542
   20SAPS   O22 2516   3.368   1.254  13.592
   20SAPS   C22 2517   3.226   1.118  13.447
   20SAPS   H2R 2518   3.137   1.102  13.512
   20SAPS   H2S 2519   3.210   1.209  13.386
   20SAPS    C3 2520   3.624   0.971  13.657
   20SAPS    HX 2521   3.677   0.953  13.752
   20SAPS    HY 2522   3.682   1.049  13.602
   20SAPS   O31 2523   3.617   0.856  13.570
   20SAPS   C31 2524   3.591   0.741  13.628
   20SAPS   O32 2525   3.625   0.714  13.742
   20SAPS   C32 2526   3.507   0.652  13.538
   20SAPS   H2X 2527   3.554   0.552  13.536
   20SAPS   H2Y 2528   3.505   0.694  13.435
   20SAPS   C23 2529   3.244   0.994  13.356
   20SAPS   H3R 2530   3.275   0.905  13.416
   20SAPS   H3S 2531   3.324   1.016  13.282
   20SAPS   C24 2532   3.113   0.959  13.285
   20SAPS   H4R 2533   3.063   1.054  13.254
   20SAPS   H4S 2534   3.046   0.909  13.359
   20SAPS   C25 2535   3.140   0.868  13.168
   20SAPS   H5R 2536   3.194   0.776  13.192
   20SAPS   C26 2537   3.113   0.892  13.039
   20SAPS   H6R 2538   3.145   0.819  12.963
   20SAPS   C27 2539   3.050   1.017  12.984
   20SAPS   H7R 2540   2.984   1.067  13.058
   20SAPS   H7S 2541   2.984   0.993  12.897
   20SAPS   C28 2542   3.166   1.105  12.949
   20SAPS   H8R 2543   3.214   1.154  13.035
   20SAPS   C29 2544   3.214   1.129  12.826
   20SAPS   H9R 2545   3.300   1.196  12.813
   20SAPS  C210 2546   3.158   1.072  12.700
   20SAPS  H10R 2547   3.091   0.986  12.719
   20SAPS  H10S 2548   3.241   1.031  12.637
   20SAPS  C211 2549   3.081   1.183  12.635
   20SAPS  H11R 2550   2.980   1.202  12.676
   20SAPS  C212 2551   3.124   1.254  12.531
   20SAPS  H12R 2552   3.055   1.324  12.483
   20SAPS  C213 2553   3.258   1.231  12.466
   20SAPS  H13R 2554   3.243   1.149  12.393
   20SAPS  H13S 2555   3.333   1.193  12.539
   20SAPS  C214 2556   3.321   1.348  12.395
   20SAPS  H14R 2557   3.293   1.449  12.428
   20SAPS  C215 2558   3.415   1.331  12.300
   20SAPS  H15R 2559   3.456   1.420  12.249
   20SAPS  C216 2560   3.468   1.197  12.254
   20SAPS  H16R 2561   3.438   1.114  12.323
   20SAPS  H16S 2562   3.579   1.195  12.257
   20SAPS  C217 2563   3.422   1.161  12.113
   20SAPS  H17R 2564   3.313   1.184  12.104
   20SAPS  H17S 2565   3.434   1.051  12.097
   20SAPS  C218 2566   3.497   1.236  12.002
   20SAPS  H18R 2567   3.521   1.339  12.034
   20SAPS  H18S 2568   3.427   1.244  11.916
   20SAPS  C219 2569   3.619   1.165  11.942
   20SAPS  H19R 2570   3.602   1.164  11.832
   20SAPS  H19S 2571   3.628   1.059  11.975
   20SAPS  C220 2572   3.752   1.231  11.978
   20SAPS  H20R 2573   3.816   1.239  11.887
   20SAPS  H20S 2574   3.738   1.333  12.013
   20SAPS  H20T 2575   3.800   1.173  12.060
   20SAPS   C33 2576   3.363   0.639  13.593
   20SAPS   H3X 2577   3.311   0.738  13.589
   20SAPS   H3Y 2578   3.365   0.607  13.700
   20SAPS   C34 2579   3.277   0.538  13.517
   20SAPS   H4X 2580   3.182   0.524  13.575
   20SAPS   H4Y 2581   3.328   0.439  13.512
   20SAPS   C35 2582   3.239   0.584  13.374
   20SAPS   H5X 2583   3.330   0.597  13.312
   20SAPS   H5Y 2584   3.188   0.682  13.384
   20SAPS   C36 2585   3.143   0.484  13.307
   20SAPS   H6X 2586   3.064   0.468  13.384
   20SAPS   H6Y 2587   3.196   0.389  13.288
   20SAPS   C37 2588   3.069   0.529  13.180
   20SAPS   H7X 2589   3.038   0.634  13.190
   20SAPS   H7Y 2590   2.974   0.472  13.172
   20SAPS   C38 2591   3.145   0.502  13.050
   20SAPS   H8X 2592   3.172   0.394  13.042
   20SAPS   H8Y 2593   3.238   0.562  13.047
   20SAPS   C39 2594   3.054   0.540  12.932
   20SAPS   H9X 2595   3.019   0.643  12.951
   20SAPS   H9Y 2596   2.965   0.474  12.933
   20SAPS  C310 2597   3.121   0.533  12.794
   20SAPS  H10X 2598   3.153   0.429  12.773
   20SAPS  H10Y 2599   3.212   0.597  12.797
   20SAPS  C311 2600   3.032   0.583  12.679
   20SAPS  H11X 2601   2.957   0.505  12.652
   20SAPS  H11Y 2602   3.097   0.597  12.590
   20SAPS  C312 2603   2.956   0.714  12.710
   20SAPS  H12X 2604   3.031   0.789  12.742
   20SAPS  H12Y 2605   2.887   0.697  12.796
   20SAPS  C313 2606   2.871   0.770  12.595
   20SAPS  H13X 2607   2.835   0.871  12.622
   20SAPS  H13Y 2608   2.781   0.704  12.583
   20SAPS  C314 2609   2.942   0.776  12.459
   20SAPS  H14X 2610   2.870   0.816  12.383
   20SAPS  H14Y 2611   2.968   0.671  12.434
   20SAPS  C315 2612   3.072   0.857  12.454
   20SAPS  H15X 2613   3.148   0.807  12.519
   20SAPS  H15Y 2614   3.052   0.956  12.497
   20SAPS  C316 2615   3.135   0.875  12.314
   20SAPS  H16X 2616   3.153   0.774  12.270
   20SAPS  H16Y 2617   3.234   0.923  12.327
   20SAPS  C317 2618   3.054   0.959  12.214
   20SAPS  H17X 2619   2.962   0.904  12.187
   20SAPS  H17Y 2620   3.114   0.970  12.121
   20SAPS  C318 2621   3.009   1.098  12.260
   20SAPS  H18X 2622   2.989   1.100  12.368
   20SAPS  H18Y 2623   2.913   1.125  12.212
   20SAPS  H18Z 2624   3.083   1.176  12.234
   21SAPS     N 2625   2.579   0.238  13.865
   21SAPS   HN1 2626   2.603   0.295  13.782
   21SAPS   HN2 2627   2.558   0.138  13.844
   21SAPS   HN3 2628   2.495   0.280  13.914
   21SAPS   C12 2629   2.687   0.239  13.967
   21SAPS  H12A 2630   2.705   0.342  13.996
   21SAPS   C13 2631   2.642   0.159  14.094
   21SAPS  O13A 2632   2.538   0.088  14.083
   21SAPS  O13B 2633   2.667   0.213  14.205
   21SAPS   C11 2634   2.817   0.182  13.903
   21SAPS  H11A 2635   2.829   0.220  13.799
   21SAPS  H11B 2636   2.810   0.071  13.895
   21SAPS     P 2637   3.045   0.134  14.028
   21SAPS   O13 2638   3.138   0.214  14.111
   21SAPS   O14 2639   2.985   0.016  14.093
   21SAPS   O12 2640   2.930   0.228  13.975
   21SAPS   O11 2641   3.117   0.086  13.899
   21SAPS    C1 2642   3.206   0.163  13.821
   21SAPS    HA 2643   3.198   0.273  13.841
   21SAPS    HB 2644   3.310   0.131  13.845
   21SAPS    C2 2645   3.174   0.135  13.673
   21SAPS    HS 2646   3.264   0.164  13.614
   21SAPS   O21 2647   3.060   0.216  13.639
   21SAPS   C21 2648   3.045   0.236  13.510
   21SAPS   O22 2649   3.127   0.211  13.423
   21SAPS   C22 2650   2.902   0.286  13.488
   21SAPS   H2R 2651   2.835   0.226  13.553
   21SAPS   H2S 2652   2.898   0.393  13.519
   21SAPS    C3 2653   3.145  -0.018  13.653
   21SAPS    HX 2654   3.054  -0.047  13.711
   21SAPS    HY 2655   3.229  -0.072  13.701
   21SAPS   O31 2656   3.138  -0.056  13.515
   21SAPS   C31 2657   3.017  -0.064  13.458
   21SAPS   O32 2658   2.911  -0.054  13.517
   21SAPS   C32 2659   3.038  -0.077  13.306
   21SAPS   H2X 2660   3.100  -0.168  13.292
   21SAPS   H2Y 2661   3.096   0.011  13.273
   21SAPS   C23 2662   2.860   0.268  13.342
   21SAPS   H3R 2663   2.853   0.160  13.321
   21SAPS   H3S 2664   2.940   0.305  13.274
   21SAPS   C24 2665   2.728   0.338  13.307
   21SAPS   H4R 2666   2.730   0.360  13.198
   21SAPS   H4S 2667   2.722   0.437  13.358
   21SAPS   C25 2668   2.610   0.250  13.340
   21SAPS   H5R 2669   2.566   0.267  13.439
   21SAPS   C26 2670   2.556   0.158  13.258
   21SAPS   H6R 2671   2.471   0.097  13.294
   21SAPS   C27 2672   2.601   0.122  13.119
   21SAPS   H7R 2673   2.623   0.013  13.114
   21SAPS   H7S 2674   2.697   0.172  13.095
   21SAPS   C28 2675   2.498   0.155  13.013
   21SAPS   H8R 2676   2.415   0.083  13.004
   21SAPS   C29 2677   2.497   0.263  12.932
   21SAPS   H9R 2678   2.417   0.272  12.857
   21SAPS  C210 2679   2.598   0.376  12.931
   21SAPS  H10R 2680   2.604   0.419  13.033
   21SAPS  H10S 2681   2.557   0.458  12.869
   21SAPS  C211 2682   2.737   0.340  12.884
   21SAPS  H11R 2683   2.807   0.311  12.964
   21SAPS  C212 2684   2.780   0.337  12.757
   21SAPS  H12R 2685   2.884   0.307  12.737
   21SAPS  C213 2686   2.699   0.369  12.634
   21SAPS  H13R 2687   2.750   0.446  12.573
   21SAPS  H13S 2688   2.600   0.412  12.660
   21SAPS  C214 2689   2.679   0.241  12.556
   21SAPS  H14R 2690   2.696   0.149  12.613
   21SAPS  C215 2691   2.644   0.232  12.427
   21SAPS  H15R 2692   2.632   0.133  12.380
   21SAPS  C216 2693   2.619   0.349  12.336
   21SAPS  H16R 2694   2.565   0.431  12.389
   21SAPS  H16S 2695   2.555   0.317  12.251
   21SAPS  C217 2696   2.748   0.405  12.279
   21SAPS  H17R 2697   2.804   0.322  12.229
   21SAPS  H17S 2698   2.814   0.446  12.359
   21SAPS  C218 2699   2.717   0.513  12.175
   21SAPS  H18R 2700   2.689   0.608  12.225
   21SAPS  H18S 2701   2.629   0.480  12.117
   21SAPS  C219 2702   2.837   0.535  12.083
   21SAPS  H19R 2703   2.806   0.583  11.988
   21SAPS  H19S 2704   2.885   0.437  12.059
   21SAPS  C220 2705   2.935   0.627  12.151
   21SAPS  H20R 2706   2.908   0.730  12.122
   21SAPS  H20S 2707   3.041   0.606  12.127
   21SAPS  H20T 2708   2.923   0.616  12.260
   21SAPS   C33 2709   2.911  -0.092  13.219
   21SAPS   H3X 2710   2.842  -0.005  13.223
   21SAPS   H3Y 2711   2.851  -0.177  13.257
   21SAPS   C34 2712   2.947  -0.116  13.071
   21SAPS   H4X 2713   2.866  -0.177  13.025
   21SAPS   H4Y 2714   3.039  -0.177  13.064
   21SAPS   C35 2715   2.961   0.013  12.989
   21SAPS   H5X 2716   3.043   0.077  13.029
   21SAPS   H5Y 2717   2.866   0.070  13.003
   21SAPS   C36 2718   2.976  -0.013  12.838
   21SAPS   H6X 2719   2.890   0.036  12.788
   21SAPS   H6Y 2720   2.969  -0.123  12.821
   21SAPS   C37 2721   3.102   0.041  12.768
   21SAPS   H7X 2722   3.191  -0.020  12.795
   21SAPS   H7Y 2723   3.120   0.145  12.804
   21SAPS   C38 2724   3.085   0.047  12.615
   21SAPS   H8X 2725   3.178   0.087  12.569
   21SAPS   H8Y 2726   3.002   0.119  12.593
   21SAPS   C39 2727   3.049  -0.087  12.546
   21SAPS   H9X 2728   2.976  -0.143  12.608
   21SAPS   H9Y 2729   3.138  -0.150  12.535
   21SAPS  C310 2730   2.984  -0.069  12.407
   21SAPS  H10X 2731   2.893  -0.005  12.420
   21SAPS  H10Y 2732   2.950  -0.168  12.371
   21SAPS  C311 2733   3.073  -0.007  12.298
   21SAPS  H11X 2734   3.137  -0.086  12.253
   21SAPS  H11Y 2735   3.141   0.068  12.345
   21SAPS  C312 2736   2.993   0.065  12.188
   21SAPS  H12X 2737   3.065   0.107  12.114
   21SAPS  H12Y 2738   2.941   0.151  12.235
   21SAPS  C313 2739   2.890  -0.022  12.114
   21SAPS  H13X 2740   2.824  -0.073  12.187
   21SAPS  H13Y 2741   2.944  -0.100  12.056
   21SAPS  C314 2742   2.799   0.059  12.019
   21SAPS  H14X 2743   2.860   0.128  11.957
   21SAPS  H14Y 2744   2.733   0.121  12.083
   21SAPS  C315 2745   2.712  -0.028  11.925
   21SAPS  H15X 2746   2.702  -0.128  11.972
   21SAPS  H15Y 2747   2.763  -0.043  11.828
   21SAPS  C316 2748   2.569   0.027  11.907
   21SAPS  H16X 2749   2.565   0.128  11.953
   21SAPS  H16Y 2750   2.499  -0.034  11.968
   21SAPS  C317 2751   2.510   0.037  11.764
   21SAPS  H17X 2752   2.429   0.113  11.771
   21SAPS  H17Y 2753   2.461  -0.058  11.736
   21SAPS  C318 2754   2.599   0.079  11.648
   21SAPS  H18X 2755   2.535   0.089  11.558
   21SAPS  H18Y 2756   2.679   0.004  11.627
   21SAPS  H18Z 2757   2.644   0.178  11.664
   22SAPS     N 2758   0.145   1.406  14.241
   22SAPS   HN1 2759   0.064   1.342  14.228
   22SAPS   HN2 2760   0.195   1.387  14.330
   22SAPS   HN3 2761   0.116   1.505  14.227
   22SAPS   C12 2762   0.237   1.372  14.130
   22SAPS  H12A 2763   0.327   1.432  14.138
   22SAPS   C13 2764   0.283   1.223  14.137
   22SAPS  O13A 2765   0.264   1.165  14.248
   22SAPS  O13B 2766   0.378   1.194  14.060
   22SAPS   C11 2767   0.160   1.409  14.002
   22SAPS  H11A 2768   0.074   1.339  13.988
   22SAPS  H11B 2769   0.229   1.392  13.918
   22SAPS     P 2770   0.176   1.664  13.926
   22SAPS   O13 2771   0.080   1.712  13.824
   22SAPS   O14 2772   0.231   1.754  14.029
   22SAPS   O12 2773   0.111   1.544  14.006
   22SAPS   O11 2774   0.298   1.603  13.852
   22SAPS    C1 2775   0.427   1.664  13.847
   22SAPS    HA 2776   0.419   1.771  13.819
   22SAPS    HB 2777   0.477   1.659  13.946
   22SAPS    C2 2778   0.516   1.588  13.744
   22SAPS    HS 2779   0.614   1.640  13.736
   22SAPS   O21 2780   0.455   1.579  13.614
   22SAPS   C21 2781   0.422   1.692  13.554
   22SAPS   O22 2782   0.463   1.803  13.585
   22SAPS   C22 2783   0.324   1.658  13.439
   22SAPS   H2R 2784   0.317   1.547  13.433
   22SAPS   H2S 2785   0.225   1.697  13.468
   22SAPS    C3 2786   0.544   1.443  13.794
   22SAPS    HX 2787   0.588   1.451  13.895
   22SAPS    HY 2788   0.618   1.391  13.729
   22SAPS   O31 2789   0.423   1.367  13.809
   22SAPS   C31 2790   0.382   1.302  13.701
   22SAPS   O32 2791   0.447   1.292  13.598
   22SAPS   C32 2792   0.242   1.242  13.716
   22SAPS   H2X 2793   0.231   1.209  13.821
   22SAPS   H2Y 2794   0.237   1.150  13.653
   22SAPS   C23 2795   0.365   1.708  13.297
   22SAPS   H3R 2796   0.321   1.641  13.220
   22SAPS   H3S 2797   0.475   1.701  13.286
   22SAPS   C24 2798   0.321   1.853  13.267
   22SAPS   H4R 2799   0.405   1.898  13.210
   22SAPS   H4S 2800   0.317   1.906  13.364
   22SAPS   C25 2801   0.192   1.880  13.192
   22SAPS   H5R 2802   0.106   1.901  13.257
   22SAPS   C26 2803   0.174   1.885  13.058
   22SAPS   H6R 2804   0.072   1.910  13.022
   22SAPS   C27 2805   0.276   1.865  12.946
   22SAPS   H7R 2806   0.316   1.762  12.952
   22SAPS   H7S 2807   0.365   1.927  12.966
   22SAPS   C28 2808   0.220   1.892  12.807
   22SAPS   H8R 2809   0.110   1.887  12.801
   22SAPS   C29 2810   0.289   1.919  12.693
   22SAPS   H9R 2811   0.236   1.938  12.598
   22SAPS  C210 2812   0.439   1.926  12.690
   22SAPS  H10R 2813   0.469   1.826  12.729
   22SAPS  H10S 2814   0.471   1.997  12.771
   22SAPS  C211 2815   0.542   1.947  12.582
   22SAPS  H11R 2816   0.637   1.923  12.628
   22SAPS  C212 2817   0.558   1.995  12.456
   22SAPS  H12R 2818   0.662   1.988  12.420
   22SAPS  C213 2819   0.476   2.066  12.351
   22SAPS  H13R 2820   0.530   2.036  12.258
   22SAPS  H13S 2821   0.499   2.173  12.360
   22SAPS  C214 2822   0.329   2.062  12.321
   22SAPS  H14R 2823   0.260   2.075  12.406
   22SAPS  C215 2824   0.277   2.050  12.196
   22SAPS  H15R 2825   0.168   2.055  12.184
   22SAPS  C216 2826   0.354   2.038  12.065
   22SAPS  H16R 2827   0.454   1.993  12.078
   22SAPS  H16S 2828   0.373   2.138  12.022
   22SAPS  C217 2829   0.276   1.953  11.963
   22SAPS  H17R 2830   0.190   2.015  11.927
   22SAPS  H17S 2831   0.231   1.866  12.015
   22SAPS  C218 2832   0.351   1.895  11.840
   22SAPS  H18R 2833   0.309   1.939  11.747
   22SAPS  H18S 2834   0.326   1.786  11.833
   22SAPS  C219 2835   0.504   1.911  11.832
   22SAPS  H19R 2836   0.536   2.011  11.868
   22SAPS  H19S 2837   0.532   1.906  11.724
   22SAPS  C220 2838   0.581   1.801  11.905
   22SAPS  H20R 2839   0.567   1.809  12.014
   22SAPS  H20S 2840   0.690   1.811  11.886
   22SAPS  H20T 2841   0.548   1.700  11.872
   22SAPS   C33 2842   0.132   1.343  13.677
   22SAPS   H3X 2843   0.160   1.445  13.713
   22SAPS   H3Y 2844   0.038   1.317  13.731
   22SAPS   C34 2845   0.101   1.353  13.527
   22SAPS   H4X 2846   0.054   1.258  13.493
   22SAPS   H4Y 2847   0.196   1.367  13.470
   22SAPS   C35 2848   0.007   1.472  13.500
   22SAPS   H5X 2849   0.057   1.567  13.528
   22SAPS   H5Y 2850  -0.079   1.460  13.569
   22SAPS   C36 2851  -0.049   1.479  13.357
   22SAPS   H6X 2852  -0.143   1.538  13.363
   22SAPS   H6Y 2853  -0.074   1.377  13.322
   22SAPS   C37 2854   0.039   1.546  13.250
   22SAPS   H7X 2855   0.131   1.488  13.233
   22SAPS   H7Y 2856   0.069   1.646  13.289
   22SAPS   C38 2857  -0.039   1.565  13.118
   22SAPS   H8X 2858  -0.038   1.674  13.093
   22SAPS   H8Y 2859  -0.145   1.538  13.135
   22SAPS   C39 2860   0.015   1.487  12.997
   22SAPS   H9X 2861  -0.059   1.496  12.915
   22SAPS   H9Y 2862   0.025   1.379  13.022
   22SAPS  C310 2863   0.148   1.545  12.950
   22SAPS  H10X 2864   0.231   1.509  13.014
   22SAPS  H10Y 2865   0.138   1.654  12.965
   22SAPS  C311 2866   0.183   1.527  12.801
   22SAPS  H11X 2867   0.275   1.586  12.781
   22SAPS  H11Y 2868   0.102   1.569  12.738
   22SAPS  C312 2869   0.206   1.381  12.767
   22SAPS  H12X 2870   0.105   1.335  12.756
   22SAPS  H12Y 2871   0.260   1.334  12.853
   22SAPS  C313 2872   0.287   1.350  12.641
   22SAPS  H13X 2873   0.234   1.394  12.555
   22SAPS  H13Y 2874   0.286   1.239  12.625
   22SAPS  C314 2875   0.433   1.395  12.647
   22SAPS  H14X 2876   0.480   1.353  12.739
   22SAPS  H14Y 2877   0.438   1.506  12.654
   22SAPS  C315 2878   0.512   1.350  12.524
   22SAPS  H15X 2879   0.512   1.238  12.520
   22SAPS  H15Y 2880   0.618   1.383  12.532
   22SAPS  C316 2881   0.451   1.407  12.395
   22SAPS  H16X 2882   0.437   1.516  12.407
   22SAPS  H16Y 2883   0.352   1.360  12.384
   22SAPS  C317 2884   0.528   1.376  12.266
   22SAPS  H17X 2885   0.594   1.290  12.288
   22SAPS  H17Y 2886   0.592   1.461  12.237
   22SAPS  C318 2887   0.437   1.344  12.148
   22SAPS  H18X 2888   0.493   1.297  12.065
   22SAPS  H18Y 2889   0.386   1.435  12.111
   22SAPS  H18Z 2890   0.359   1.271  12.180
   23SAPS     N 2891   0.788   4.161   9.867
   23SAPS   HN1 2892   0.787   4.242   9.802
   23SAPS   HN2 2893   0.692   4.124   9.884
   23SAPS   HN3 2894   0.837   4.182   9.958
   23SAPS   C12 2895   0.878   4.061   9.801
   23SAPS  H12A 2896   0.828   3.965   9.801
   23SAPS   C13 2897   0.922   4.097   9.656
   23SAPS  O13A 2898   0.929   4.220   9.625
   23SAPS  O13B 2899   0.999   4.011   9.604
   23SAPS   C11 2900   1.010   4.055   9.884
   23SAPS  H11A 2901   1.085   4.127   9.843
   23SAPS  H11B 2902   1.053   3.952   9.867
   23SAPS     P 2903   1.090   4.023  10.129
   23SAPS   O13 2904   1.205   3.960  10.059
   23SAPS   O14 2905   1.113   4.124  10.234
   23SAPS   O12 2906   0.990   4.086  10.023
   23SAPS   O11 2907   0.993   3.910  10.182
   23SAPS    C1 2908   0.881   3.948  10.263
   23SAPS    HA 2909   0.861   4.058  10.265
   23SAPS    HB 2910   0.789   3.903  10.220
   23SAPS    C2 2911   0.893   3.896  10.409
   23SAPS    HS 2912   0.797   3.846  10.433
   23SAPS   O21 2913   0.914   4.002  10.503
   23SAPS   C21 2914   0.810   4.077  10.530
   23SAPS   O22 2915   0.707   4.083  10.465
   23SAPS   C22 2916   0.843   4.152  10.658
   23SAPS   H2R 2917   0.933   4.107  10.704
   23SAPS   H2S 2918   0.864   4.257  10.632
   23SAPS    C3 2919   1.008   3.793  10.430
   23SAPS    HX 2920   1.105   3.848  10.433
   23SAPS    HY 2921   1.010   3.729  10.339
   23SAPS   O31 2922   0.988   3.708  10.546
   23SAPS   C31 2923   1.002   3.768  10.664
   23SAPS   O32 2924   1.065   3.869  10.686
   23SAPS   C32 2925   0.928   3.691  10.773
   23SAPS   H2X 2926   0.996   3.691  10.862
   23SAPS   H2Y 2927   0.911   3.586  10.740
   23SAPS   C23 2928   0.727   4.144  10.757
   23SAPS   H3R 2929   0.769   4.164  10.858
   23SAPS   H3S 2930   0.686   4.040  10.759
   23SAPS   C24 2931   0.617   4.245  10.725
   23SAPS   H4R 2932   0.579   4.230  10.621
   23SAPS   H4S 2933   0.656   4.349  10.731
   23SAPS   C25 2934   0.505   4.222  10.821
   23SAPS   H5R 2935   0.418   4.169  10.779
   23SAPS   C26 2936   0.510   4.251  10.952
   23SAPS   H6R 2937   0.424   4.226  11.014
   23SAPS   C27 2938   0.623   4.312  11.029
   23SAPS   H7R 2939   0.583   4.397  11.087
   23SAPS   H7S 2940   0.701   4.355  10.962
   23SAPS   C28 2941   0.681   4.213  11.127
   23SAPS   H8R 2942   0.613   4.131  11.155
   23SAPS   C29 2943   0.802   4.219  11.185
   23SAPS   H9R 2944   0.827   4.136  11.253
   23SAPS  C210 2945   0.909   4.324  11.167
   23SAPS  H10R 2946   0.887   4.412  11.232
   23SAPS  H10S 2947   0.905   4.364  11.062
   23SAPS  C211 2948   1.046   4.268  11.197
   23SAPS  H11R 2949   1.070   4.182  11.133
   23SAPS  C212 2950   1.144   4.313  11.281
   23SAPS  H12R 2951   1.235   4.252  11.282
   23SAPS  C213 2952   1.154   4.435  11.373
   23SAPS  H13R 2953   1.053   4.482  11.376
   23SAPS  H13S 2954   1.211   4.495  11.302
   23SAPS  C214 2955   1.237   4.457  11.506
   23SAPS  H14R 2956   1.345   4.444  11.481
   23SAPS  C215 2957   1.212   4.472  11.642
   23SAPS  H15R 2958   1.305   4.481  11.705
   23SAPS  C216 2959   1.093   4.478  11.743
   23SAPS  H16R 2960   1.002   4.527  11.706
   23SAPS  H16S 2961   1.124   4.556  11.816
   23SAPS  C217 2962   1.056   4.363  11.847
   23SAPS  H17R 2963   1.101   4.393  11.944
   23SAPS  H17S 2964   1.110   4.274  11.812
   23SAPS  C218 2965   0.907   4.319  11.881
   23SAPS  H18R 2966   0.860   4.278  11.790
   23SAPS  H18S 2967   0.846   4.406  11.910
   23SAPS  C219 2968   0.882   4.209  11.989
   23SAPS  H19R 2969   0.846   4.255  12.083
   23SAPS  H19S 2970   0.977   4.163  12.018
   23SAPS  C220 2971   0.776   4.100  11.959
   23SAPS  H20R 2972   0.730   4.115  11.859
   23SAPS  H20S 2973   0.694   4.102  12.034
   23SAPS  H20T 2974   0.821   3.999  11.964
   23SAPS   C33 2975   0.795   3.760  10.809
   23SAPS   H3X 2976   0.721   3.745  10.727
   23SAPS   H3Y 2977   0.811   3.870  10.820
   23SAPS   C34 2978   0.732   3.712  10.941
   23SAPS   H4X 2979   0.801   3.739  11.024
   23SAPS   H4Y 2980   0.720   3.601  10.941
   23SAPS   C35 2981   0.595   3.779  10.963
   23SAPS   H5X 2982   0.524   3.740  10.887
   23SAPS   H5Y 2983   0.605   3.888  10.945
   23SAPS   C36 2984   0.536   3.757  11.103
   23SAPS   H6X 2985   0.529   3.649  11.124
   23SAPS   H6Y 2986   0.433   3.799  11.103
   23SAPS   C37 2987   0.616   3.826  11.214
   23SAPS   H7X 2988   0.639   3.929  11.180
   23SAPS   H7Y 2989   0.712   3.774  11.229
   23SAPS   C38 2990   0.538   3.833  11.346
   23SAPS   H8X 2991   0.549   3.737  11.401
   23SAPS   H8Y 2992   0.430   3.847  11.323
   23SAPS   C39 2993   0.584   3.949  11.434
   23SAPS   H9X 2994   0.521   3.959  11.525
   23SAPS   H9Y 2995   0.570   4.043  11.375
   23SAPS  C310 2996   0.732   3.936  11.473
   23SAPS  H10X 2997   0.777   4.036  11.463
   23SAPS  H10Y 2998   0.786   3.873  11.400
   23SAPS  C311 2999   0.760   3.882  11.615
   23SAPS  H11X 3000   0.687   3.800  11.634
   23SAPS  H11Y 3001   0.739   3.963  11.688
   23SAPS  C312 3002   0.904   3.828  11.631
   23SAPS  H12X 3003   0.961   3.851  11.537
   23SAPS  H12Y 3004   0.906   3.718  11.638
   23SAPS  C313 3005   0.987   3.883  11.749
   23SAPS  H13X 3006   0.931   3.964  11.798
   23SAPS  H13Y 3007   1.078   3.929  11.704
   23SAPS  C314 3008   1.038   3.781  11.853
   23SAPS  H14X 3009   1.063   3.687  11.800
   23SAPS  H14Y 3010   0.960   3.761  11.929
   23SAPS  C315 3011   1.164   3.830  11.925
   23SAPS  H15X 3012   1.238   3.858  11.846
   23SAPS  H15Y 3013   1.209   3.750  11.986
   23SAPS  C316 3014   1.143   3.958  12.006
   23SAPS  H16X 3015   1.077   3.943  12.094
   23SAPS  H16Y 3016   1.091   4.028  11.938
   23SAPS  C317 3017   1.274   4.023  12.048
   23SAPS  H17X 3018   1.349   3.946  12.079
   23SAPS  H17Y 3019   1.256   4.088  12.136
   23SAPS  C318 3020   1.329   4.109  11.935
   23SAPS  H18X 3021   1.245   4.152  11.879
   23SAPS  H18Y 3022   1.388   4.046  11.865
   23SAPS  H18Z 3023   1.392   4.192  11.972
   24SAPS     N 3024   4.171   1.673   9.901
   24SAPS   HN1 3025   4.244   1.748   9.911
   24SAPS   HN2 3026   4.118   1.679   9.811
   24SAPS   HN3 3027   4.103   1.671   9.979
   24SAPS   C12 3028   4.242   1.542   9.891
   24SAPS  H12A 3029   4.233   1.489   9.985
   24SAPS   C13 3030   4.183   1.454   9.780
   24SAPS  O13A 3031   4.086   1.505   9.717
   24SAPS  O13B 3032   4.211   1.332   9.773
   24SAPS   C11 3033   4.391   1.576   9.863
   24SAPS  H11A 3034   4.400   1.625   9.764
   24SAPS  H11B 3035   4.450   1.482   9.857
   24SAPS     P 3036   4.501   1.606  10.096
   24SAPS   O13 3037   4.578   1.484  10.061
   24SAPS   O14 3038   4.571   1.713  10.170
   24SAPS   O12 3039   4.441   1.667   9.963
   24SAPS   O11 3040   4.365   1.575  10.170
   24SAPS    C1 3041   4.284   1.684  10.217
   24SAPS    HA 3042   4.330   1.785  10.203
   24SAPS    HB 3043   4.186   1.686  10.163
   24SAPS    C2 3044   4.248   1.669  10.366
   24SAPS    HS 3045   4.184   1.756  10.395
   24SAPS   O21 3046   4.365   1.663  10.448
   24SAPS   C21 3047   4.425   1.778  10.472
   24SAPS   O22 3048   4.387   1.888  10.436
   24SAPS   C22 3049   4.547   1.748  10.557
   24SAPS   H2R 3050   4.531   1.648  10.602
   24SAPS   H2S 3051   4.636   1.742  10.492
   24SAPS    C3 3052   4.168   1.539  10.391
   24SAPS    HX 3053   4.235   1.454  10.367
   24SAPS    HY 3054   4.081   1.533  10.323
   24SAPS   O31 3055   4.129   1.530  10.530
   24SAPS   C31 3056   4.035   1.620  10.562
   24SAPS   O32 3057   3.966   1.681  10.482
   24SAPS   C32 3058   4.036   1.642  10.712
   24SAPS   H2X 3059   4.033   1.545  10.765
   24SAPS   H2Y 3060   3.944   1.698  10.736
   24SAPS   C23 3061   4.571   1.848  10.674
   24SAPS   H3R 3062   4.475   1.899  10.701
   24SAPS   H3S 3063   4.642   1.927  10.640
   24SAPS   C24 3064   4.624   1.778  10.800
   24SAPS   H4R 3065   4.539   1.723  10.845
   24SAPS   H4S 3066   4.656   1.853  10.875
   24SAPS   C25 3067   4.737   1.684  10.765
   24SAPS   H5R 3068   4.823   1.734  10.717
   24SAPS   C26 3069   4.740   1.551  10.780
   24SAPS   H6R 3070   4.833   1.498  10.750
   24SAPS   C27 3071   4.633   1.461  10.836
   24SAPS   H7R 3072   4.596   1.394  10.755
   24SAPS   H7S 3073   4.544   1.518  10.871
   24SAPS   C28 3074   4.689   1.375  10.947
   24SAPS   H8R 3075   4.796   1.348  10.937
   24SAPS   C29 3076   4.622   1.329  11.054
   24SAPS   H9R 3077   4.678   1.273  11.130
   24SAPS  C210 3078   4.476   1.351  11.088
   24SAPS  H10R 3079   4.462   1.458  11.115
   24SAPS  H10S 3080   4.456   1.294  11.182
   24SAPS  C211 3081   4.374   1.311  10.985
   24SAPS  H11R 3082   4.412   1.291  10.884
   24SAPS  C212 3083   4.241   1.306  11.008
   24SAPS  H12R 3084   4.173   1.275  10.927
   24SAPS  C213 3085   4.174   1.339  11.139
   24SAPS  H13R 3086   4.072   1.378  11.119
   24SAPS  H13S 3087   4.228   1.424  11.187
   24SAPS  C214 3088   4.164   1.221  11.232
   24SAPS  H14R 3089   4.111   1.134  11.191
   24SAPS  C215 3090   4.214   1.212  11.357
   24SAPS  H15R 3091   4.196   1.121  11.415
   24SAPS  C216 3092   4.290   1.319  11.431
   24SAPS  H16R 3093   4.352   1.382  11.363
   24SAPS  H16S 3094   4.362   1.270  11.500
   24SAPS  C217 3095   4.198   1.411  11.513
   24SAPS  H17R 3096   4.258   1.450  11.598
   24SAPS  H17S 3097   4.112   1.355  11.556
   24SAPS  C218 3098   4.150   1.535  11.437
   24SAPS  H18R 3099   4.094   1.504  11.346
   24SAPS  H18S 3100   4.240   1.592  11.404
   24SAPS  C219 3101   4.060   1.627  11.520
   24SAPS  H19R 3102   3.962   1.576  11.527
   24SAPS  H19S 3103   4.042   1.721  11.463
   24SAPS  C220 3104   4.105   1.661  11.662
   24SAPS  H20R 3105   4.202   1.715  11.662
   24SAPS  H20S 3106   4.117   1.568  11.722
   24SAPS  H20T 3107   4.030   1.725  11.714
   24SAPS   C33 3108   4.161   1.723  10.757
   24SAPS   H3X 3109   4.185   1.802  10.682
   24SAPS   H3Y 3110   4.249   1.655  10.763
   24SAPS   C34 3111   4.136   1.791  10.891
   24SAPS   H4X 3112   4.085   1.720  10.960
   24SAPS   H4Y 3113   4.067   1.877  10.873
   24SAPS   C35 3114   4.263   1.844  10.960
   24SAPS   H5X 3115   4.233   1.926  11.029
   24SAPS   H5Y 3116   4.332   1.887  10.885
   24SAPS   C36 3117   4.332   1.736  11.044
   24SAPS   H6X 3118   4.370   1.654  10.980
   24SAPS   H6Y 3119   4.255   1.692  11.111
   24SAPS   C37 3120   4.445   1.790  11.134
   24SAPS   H7X 3121   4.438   1.901  11.140
   24SAPS   H7Y 3122   4.544   1.766  11.089
   24SAPS   C38 3123   4.435   1.731  11.275
   24SAPS   H8X 3124   4.436   1.620  11.269
   24SAPS   H8Y 3125   4.339   1.761  11.320
   24SAPS   C39 3126   4.546   1.776  11.369
   24SAPS   H9X 3127   4.565   1.885  11.356
   24SAPS   H9Y 3128   4.637   1.720  11.343
   24SAPS  C310 3129   4.513   1.751  11.517
   24SAPS  H10X 3130   4.410   1.788  11.539
   24SAPS  H10Y 3131   4.584   1.808  11.581
   24SAPS  C311 3132   4.520   1.604  11.556
   24SAPS  H11X 3133   4.622   1.563  11.540
   24SAPS  H11Y 3134   4.449   1.544  11.495
   24SAPS  C312 3135   4.485   1.591  11.704
   24SAPS  H12X 3136   4.384   1.632  11.721
   24SAPS  H12Y 3137   4.556   1.652  11.764
   24SAPS  C313 3138   4.487   1.447  11.754
   24SAPS  H13X 3139   4.587   1.404  11.753
   24SAPS  H13Y 3140   4.428   1.381  11.687
   24SAPS  C314 3141   4.433   1.443  11.896
   24SAPS  H14X 3142   4.428   1.546  11.937
   24SAPS  H14Y 3143   4.500   1.383  11.962
   24SAPS  C315 3144   4.296   1.380  11.892
   24SAPS  H15X 3145   4.242   1.402  11.798
   24SAPS  H15Y 3146   4.233   1.417  11.974
   24SAPS  C316 3147   4.311   1.230  11.910
   24SAPS  H16X 3148   4.349   1.214  12.014
   24SAPS  H16Y 3149   4.386   1.188  11.839
   24SAPS  C317 3150   4.178   1.162  11.893
   24SAPS  H17X 3151   4.164   1.142  11.784
   24SAPS  H17Y 3152   4.096   1.231  11.926
   24SAPS  C318 3153   4.174   1.036  11.976
   24SAPS  H18X 3154   4.233   0.955  11.927
   24SAPS  H18Y 3155   4.070   1.002  11.992
   24SAPS  H18Z 3156   4.216   1.057  12.076
   25SAPS     N 3157   5.016   3.161   9.737
   25SAPS   HN1 3158   5.096   3.216   9.703
   25SAPS   HN2 3159   4.954   3.139   9.656
   25SAPS   HN3 3160   4.967   3.215   9.812
   25SAPS   C12 3161   5.067   3.040   9.810
   25SAPS  H12A 3162   4.989   2.966   9.816
   25SAPS   C13 3163   5.190   2.976   9.743
   25SAPS  O13A 3164   5.231   3.034   9.638
   25SAPS  O13B 3165   5.270   2.905   9.810
   25SAPS   C11 3166   5.097   3.092   9.952
   25SAPS  H11A 3167   5.188   3.153   9.957
   25SAPS  H11B 3168   5.116   3.006  10.021
   25SAPS     P 3169   4.880   3.120  10.082
   25SAPS   O13 3170   4.812   3.013  10.006
   25SAPS   O14 3171   4.956   3.083  10.203
   25SAPS   O12 3172   4.990   3.179   9.988
   25SAPS   O11 3173   4.785   3.240  10.106
   25SAPS    C1 3174   4.755   3.368  10.054
   25SAPS    HA 3175   4.836   3.402   9.985
   25SAPS    HB 3176   4.663   3.366   9.993
   25SAPS    C2 3177   4.734   3.477  10.167
   25SAPS    HS 3178   4.745   3.576  10.118
   25SAPS   O21 3179   4.838   3.460  10.266
   25SAPS   C21 3180   4.963   3.475  10.221
   25SAPS   O22 3181   4.998   3.519  10.113
   25SAPS   C22 3182   5.057   3.453  10.339
   25SAPS   H2R 3183   5.042   3.351  10.379
   25SAPS   H2S 3184   5.161   3.463  10.301
   25SAPS    C3 3185   4.590   3.483  10.244
   25SAPS    HX 3186   4.520   3.521  10.167
   25SAPS    HY 3187   4.605   3.563  10.318
   25SAPS   O31 3188   4.528   3.368  10.310
   25SAPS   C31 3189   4.453   3.375  10.424
   25SAPS   O32 3190   4.430   3.480  10.480
   25SAPS   C32 3191   4.383   3.240  10.475
   25SAPS   H2X 3192   4.330   3.186  10.398
   25SAPS   H2Y 3193   4.301   3.290  10.532
   25SAPS   C23 3194   5.026   3.562  10.443
   25SAPS   H3R 3195   4.931   3.540  10.497
   25SAPS   H3S 3196   5.011   3.660  10.391
   25SAPS   C24 3197   5.138   3.584  10.544
   25SAPS   H4R 3198   5.119   3.679  10.598
   25SAPS   H4S 3199   5.233   3.597  10.486
   25SAPS   C25 3200   5.154   3.469  10.639
   25SAPS   H5R 3201   5.202   3.379  10.598
   25SAPS   C26 3202   5.110   3.466  10.766
   25SAPS   H6R 3203   5.134   3.377  10.827
   25SAPS   C27 3204   5.036   3.575  10.840
   25SAPS   H7R 3205   4.991   3.648  10.769
   25SAPS   H7S 3206   5.106   3.632  10.904
   25SAPS   C28 3207   4.925   3.511  10.919
   25SAPS   H8R 3208   4.861   3.445  10.858
   25SAPS   C29 3209   4.899   3.520  11.050
   25SAPS   H9R 3210   4.812   3.466  11.090
   25SAPS  C210 3211   4.973   3.597  11.156
   25SAPS  H10R 3212   4.901   3.664  11.209
   25SAPS  H10S 3213   5.051   3.663  11.113
   25SAPS  C211 3214   5.035   3.495  11.247
   25SAPS  H11R 3215   5.109   3.429  11.199
   25SAPS  C212 3216   5.010   3.479  11.379
   25SAPS  H12R 3217   5.065   3.400  11.433
   25SAPS  C213 3218   4.914   3.559  11.464
   25SAPS  H13R 3219   4.886   3.497  11.552
   25SAPS  H13S 3220   4.819   3.578  11.409
   25SAPS  C214 3221   4.976   3.690  11.506
   25SAPS  H14R 3222   4.968   3.773  11.433
   25SAPS  C215 3223   5.041   3.711  11.622
   25SAPS  H15R 3224   5.087   3.808  11.643
   25SAPS  C216 3225   5.060   3.602  11.724
   25SAPS  H16R 3226   5.103   3.512  11.675
   25SAPS  H16S 3227   4.962   3.573  11.768
   25SAPS  C217 3228   5.155   3.636  11.840
   25SAPS  H17R 3229   5.254   3.673  11.803
   25SAPS  H17S 3230   5.175   3.540  11.893
   25SAPS  C218 3231   5.103   3.733  11.945
   25SAPS  H18R 3232   4.996   3.715  11.967
   25SAPS  H18S 3233   5.114   3.837  11.908
   25SAPS  C219 3234   5.187   3.712  12.072
   25SAPS  H19R 3235   5.291   3.687  12.040
   25SAPS  H19S 3236   5.147   3.623  12.127
   25SAPS  C220 3237   5.195   3.830  12.167
   25SAPS  H20R 3238   5.099   3.847  12.219
   25SAPS  H20S 3239   5.221   3.921  12.109
   25SAPS  H20T 3240   5.273   3.813  12.243
   25SAPS   C33 3241   4.435   3.139  10.587
   25SAPS   H3X 3242   4.344   3.111  10.645
   25SAPS   H3Y 3243   4.492   3.199  10.654
   25SAPS   C34 3244   4.509   3.002  10.566
   25SAPS   H4X 3245   4.591   2.997  10.495
   25SAPS   H4Y 3246   4.433   2.929  10.530
   25SAPS   C35 3247   4.575   2.948  10.696
   25SAPS   H5X 3248   4.546   2.841  10.706
   25SAPS   H5Y 3249   4.515   3.006  10.769
   25SAPS   C36 3250   4.725   2.965  10.744
   25SAPS   H6X 3251   4.735   2.914  10.843
   25SAPS   H6Y 3252   4.745   3.071  10.763
   25SAPS   C37 3253   4.853   2.930  10.663
   25SAPS   H7X 3254   4.839   2.963  10.557
   25SAPS   H7Y 3255   4.875   2.822  10.661
   25SAPS   C38 3256   4.979   3.001  10.719
   25SAPS   H8X 3257   4.953   3.103  10.755
   25SAPS   H8Y 3258   5.053   3.014  10.636
   25SAPS   C39 3259   5.049   2.920  10.830
   25SAPS   H9X 3260   5.088   2.826  10.784
   25SAPS   H9Y 3261   4.973   2.890  10.906
   25SAPS  C310 3262   5.165   2.992  10.901
   25SAPS  H10X 3263   5.243   3.021  10.827
   25SAPS  H10Y 3264   5.211   2.919  10.971
   25SAPS  C311 3265   5.124   3.115  10.982
   25SAPS  H11X 3266   5.025   3.097  11.029
   25SAPS  H11Y 3267   5.112   3.200  10.912
   25SAPS  C312 3268   5.224   3.152  11.093
   25SAPS  H12X 3269   5.247   3.261  11.087
   25SAPS  H12Y 3270   5.320   3.098  11.078
   25SAPS  C313 3271   5.170   3.122  11.234
   25SAPS  H13X 3272   5.139   3.015  11.238
   25SAPS  H13Y 3273   5.079   3.184  11.250
   25SAPS  C314 3274   5.270   3.150  11.348
   25SAPS  H14X 3275   5.314   3.250  11.334
   25SAPS  H14Y 3276   5.353   3.076  11.343
   25SAPS  C315 3277   5.204   3.143  11.487
   25SAPS  H15X 3278   5.104   3.096  11.475
   25SAPS  H15Y 3279   5.188   3.245  11.528
   25SAPS  C316 3280   5.280   3.059  11.591
   25SAPS  H16X 3281   5.313   2.962  11.547
   25SAPS  H16Y 3282   5.210   3.034  11.674
   25SAPS  C317 3283   5.403   3.124  11.654
   25SAPS  H17X 3284   5.374   3.223  11.694
   25SAPS  H17Y 3285   5.480   3.141  11.575
   25SAPS  C318 3286   5.461   3.039  11.767
   25SAPS  H18X 3287   5.497   2.941  11.730
   25SAPS  H18Y 3288   5.384   3.021  11.845
   25SAPS  H18Z 3289   5.546   3.092  11.816
   26SAPS     N 3290   4.724   0.378   9.785
   26SAPS   HN1 3291   4.693   0.476   9.771
   26SAPS   HN2 3292   4.798   0.374   9.857
   26SAPS   HN3 3293   4.748   0.331   9.695
   26SAPS   C12 3294   4.606   0.303   9.836
   26SAPS  H12A 3295   4.545   0.369   9.897
   26SAPS   C13 3296   4.522   0.250   9.719
   26SAPS  O13A 3297   4.581   0.212   9.614
   26SAPS  O13B 3298   4.398   0.272   9.722
   26SAPS   C11 3299   4.663   0.184   9.917
   26SAPS  H11A 3300   4.759   0.209   9.967
   26SAPS  H11B 3301   4.687   0.101   9.846
   26SAPS     P 3302   4.563   0.206  10.156
   26SAPS   O13 3303   4.569   0.353  10.143
   26SAPS   O14 3304   4.450   0.147  10.229
   26SAPS   O12 3305   4.568   0.139  10.012
   26SAPS   O11 3306   4.701   0.152  10.214
   26SAPS    C1 3307   4.734   0.013  10.202
   26SAPS    HA 3308   4.651  -0.047  10.155
   26SAPS    HB 3309   4.822   0.002  10.136
   26SAPS    C2 3310   4.764  -0.059  10.337
   26SAPS    HS 3311   4.708  -0.154  10.332
   26SAPS   O21 3312   4.727   0.016  10.454
   26SAPS   C21 3313   4.600   0.010  10.490
   26SAPS   O22 3314   4.513  -0.057  10.438
   26SAPS   C22 3315   4.591   0.071  10.631
   26SAPS   H2R 3316   4.563  -0.011  10.700
   26SAPS   H2S 3317   4.690   0.108  10.661
   26SAPS    C3 3318   4.915  -0.099  10.353
   26SAPS    HX 3319   4.957  -0.129  10.255
   26SAPS    HY 3320   4.920  -0.189  10.418
   26SAPS   O31 3321   4.995   0.004  10.415
   26SAPS   C31 3322   5.033   0.102  10.334
   26SAPS   O32 3323   5.036   0.097  10.212
   26SAPS   C32 3324   5.064   0.226  10.415
   26SAPS   H2X 3325   5.148   0.276  10.362
   26SAPS   H2Y 3326   5.103   0.196  10.514
   26SAPS   C23 3327   4.490   0.186  10.642
   26SAPS   H3R 3328   4.390   0.137  10.644
   26SAPS   H3S 3329   4.496   0.253  10.553
   26SAPS   C24 3330   4.501   0.265  10.773
   26SAPS   H4R 3331   4.578   0.216  10.838
   26SAPS   H4S 3332   4.409   0.248  10.828
   26SAPS   C25 3333   4.520   0.414  10.763
   26SAPS   H5R 3334   4.515   0.457  10.661
   26SAPS   C26 3335   4.537   0.492  10.871
   26SAPS   H6R 3336   4.548   0.601  10.858
   26SAPS   C27 3337   4.540   0.438  11.012
   26SAPS   H7R 3338   4.597   0.343  11.017
   26SAPS   H7S 3339   4.436   0.411  11.040
   26SAPS   C28 3340   4.593   0.529  11.119
   26SAPS   H8R 3341   4.688   0.498  11.165
   26SAPS   C29 3342   4.535   0.643  11.161
   26SAPS   H9R 3343   4.579   0.695  11.247
   26SAPS  C210 3344   4.405   0.699  11.108
   26SAPS  H10R 3345   4.324   0.625  11.124
   26SAPS  H10S 3346   4.411   0.715  10.999
   26SAPS  C211 3347   4.370   0.830  11.175
   26SAPS  H11R 3348   4.391   0.921  11.117
   26SAPS  C212 3349   4.316   0.841  11.297
   26SAPS  H12R 3350   4.295   0.941  11.338
   26SAPS  C213 3351   4.283   0.722  11.385
   26SAPS  H13R 3352   4.368   0.651  11.386
   26SAPS  H13S 3353   4.198   0.666  11.340
   26SAPS  C214 3354   4.244   0.765  11.524
   26SAPS  H14R 3355   4.166   0.842  11.528
   26SAPS  C215 3356   4.289   0.715  11.640
   26SAPS  H15R 3357   4.246   0.752  11.735
   26SAPS  C216 3358   4.389   0.603  11.656
   26SAPS  H16R 3359   4.469   0.632  11.728
   26SAPS  H16S 3360   4.440   0.578  11.561
   26SAPS  C217 3361   4.317   0.477  11.707
   26SAPS  H17R 3362   4.372   0.387  11.671
   26SAPS  H17S 3363   4.214   0.471  11.664
   26SAPS  C218 3364   4.310   0.472  11.860
   26SAPS  H18R 3365   4.220   0.414  11.892
   26SAPS  H18S 3366   4.301   0.575  11.901
   26SAPS  C219 3367   4.434   0.404  11.916
   26SAPS  H19R 3368   4.523   0.453  11.869
   26SAPS  H19S 3369   4.429   0.298  11.885
   26SAPS  C220 3370   4.452   0.409  12.067
   26SAPS  H20R 3371   4.447   0.514  12.104
   26SAPS  H20S 3372   4.551   0.366  12.096
   26SAPS  H20T 3373   4.372   0.348  12.115
   26SAPS   C33 3374   4.941   0.318  10.424
   26SAPS   H3X 3375   4.876   0.310  10.333
   26SAPS   H3Y 3376   4.974   0.424  10.433
   26SAPS   C34 3377   4.856   0.283  10.546
   26SAPS   H4X 3378   4.860   0.173  10.560
   26SAPS   H4Y 3379   4.750   0.314  10.532
   26SAPS   C35 3380   4.915   0.350  10.668
   26SAPS   H5X 3381   4.902   0.460  10.657
   26SAPS   H5Y 3382   5.023   0.326  10.668
   26SAPS   C36 3383   4.859   0.303  10.800
   26SAPS   H6X 3384   4.750   0.304  10.794
   26SAPS   H6Y 3385   4.885   0.377  10.879
   26SAPS   C37 3386   4.905   0.163  10.843
   26SAPS   H7X 3387   5.016   0.153  10.831
   26SAPS   H7Y 3388   4.857   0.086  10.778
   26SAPS   C38 3389   4.866   0.139  10.989
   26SAPS   H8X 3390   4.769   0.191  11.006
   26SAPS   H8Y 3391   4.941   0.187  11.055
   26SAPS   C39 3392   4.849  -0.008  11.026
   26SAPS   H9X 3393   4.946  -0.060  11.011
   26SAPS   H9Y 3394   4.774  -0.058  10.961
   26SAPS  C310 3395   4.808  -0.022  11.174
   26SAPS  H10X 3396   4.879   0.041  11.232
   26SAPS  H10Y 3397   4.823  -0.127  11.208
   26SAPS  C311 3398   4.665   0.023  11.206
   26SAPS  H11X 3399   4.593  -0.061  11.193
   26SAPS  H11Y 3400   4.631   0.103  11.137
   26SAPS  C312 3401   4.651   0.073  11.349
   26SAPS  H12X 3402   4.543   0.082  11.375
   26SAPS  H12Y 3403   4.695   0.176  11.351
   26SAPS  C313 3404   4.723  -0.014  11.453
   26SAPS  H13X 3405   4.832  -0.012  11.435
   26SAPS  H13Y 3406   4.687  -0.119  11.443
   26SAPS  C314 3407   4.701   0.029  11.599
   26SAPS  H14X 3408   4.777  -0.021  11.664
   26SAPS  H14Y 3409   4.602  -0.008  11.632
   26SAPS  C315 3410   4.704   0.180  11.620
   26SAPS  H15X 3411   4.645   0.232  11.541
   26SAPS  H15Y 3412   4.808   0.217  11.615
   26SAPS  C316 3413   4.635   0.222  11.749
   26SAPS  H16X 3414   4.531   0.182  11.746
   26SAPS  H16Y 3415   4.630   0.333  11.748
   26SAPS  C317 3416   4.703   0.177  11.879
   26SAPS  H17X 3417   4.747   0.076  11.866
   26SAPS  H17Y 3418   4.625   0.169  11.959
   26SAPS  C318 3419   4.808   0.276  11.925
   26SAPS  H18X 3420   4.864   0.236  12.012
   26SAPS  H18Y 3421   4.760   0.372  11.955
   26SAPS  H18Z 3422   4.879   0.299  11.843
   27SAPE     N 3423   1.813   2.915  13.716
   27SAPE   HN1 3424   1.890   2.983  13.700
   27SAPE   HN2 3425   1.834   2.826  13.666
   27SAPE   HN3 3426   1.725   2.956  13.677
   27SAPE   C12 3427   1.799   2.886  13.864
   27SAPE  H12A 3428   1.715   2.814  13.876
   27SAPE  H12B 3429   1.774   2.980  13.917
   27SAPE   C11 3430   1.925   2.825  13.925
   27SAPE  H11A 3431   2.001   2.906  13.943
   27SAPE  H11B 3432   1.970   2.748  13.858
   27SAPE     P 3433   1.993   2.716  14.151
   27SAPE   O13 3434   2.087   2.826  14.182
   27SAPE   O14 3435   1.932   2.643  14.266
   27SAPE   O12 3436   1.885   2.764  14.046
   27SAPE   O11 3437   2.074   2.614  14.065
   27SAPE    C1 3438   2.024   2.493  14.010
   27SAPE    HA 3439   1.990   2.424  14.091
   27SAPE    HB 3440   1.940   2.512  13.940
   27SAPE    C2 3441   2.139   2.426  13.930
   27SAPE    HS 3442   2.217   2.398  14.005
   27SAPE   O21 3443   2.188   2.522  13.834
   27SAPE   C21 3444   2.294   2.591  13.873
   27SAPE   O22 3445   2.373   2.556  13.960
   27SAPE   C22 3446   2.304   2.721  13.791
   27SAPE   H2R 3447   2.260   2.803  13.851
   27SAPE   H2S 3448   2.411   2.743  13.777
   27SAPE    C3 3449   2.097   2.295  13.859
   27SAPE    HX 3450   2.046   2.225  13.929
   27SAPE    HY 3451   2.193   2.246  13.829
   27SAPE   O31 3452   2.011   2.324  13.746
   27SAPE   C31 3453   2.064   2.281  13.631
   27SAPE   O32 3454   2.068   2.165  13.594
   27SAPE   C32 3455   2.131   2.398  13.558
   27SAPE   H2X 3456   2.239   2.387  13.580
   27SAPE   H2Y 3457   2.093   2.492  13.603
   27SAPE   C23 3458   2.235   2.714  13.652
   27SAPE   H3R 3459   2.126   2.696  13.667
   27SAPE   H3S 3460   2.276   2.629  13.594
   27SAPE   C24 3461   2.246   2.841  13.565
   27SAPE   H4R 3462   2.205   2.926  13.623
   27SAPE   H4S 3463   2.179   2.828  13.476
   27SAPE   C25 3464   2.385   2.876  13.518
   27SAPE   H5R 3465   2.445   2.932  13.592
   27SAPE   C26 3466   2.442   2.850  13.399
   27SAPE   H6R 3467   2.544   2.887  13.382
   27SAPE   C27 3468   2.383   2.776  13.281
   27SAPE   H7R 3469   2.300   2.710  13.314
   27SAPE   H7S 3470   2.460   2.709  13.239
   27SAPE   C28 3471   2.329   2.869  13.175
   27SAPE   H8R 3472   2.299   2.967  13.212
   27SAPE   C29 3473   2.317   2.844  13.043
   27SAPE   H9R 3474   2.272   2.924  12.981
   27SAPE  C210 3475   2.354   2.718  12.968
   27SAPE  H10R 3476   2.296   2.632  13.008
   27SAPE  H10S 3477   2.461   2.694  12.985
   27SAPE  C211 3478   2.331   2.737  12.820
   27SAPE  H11R 3479   2.397   2.813  12.774
   27SAPE  C212 3480   2.244   2.673  12.739
   27SAPE  H12R 3481   2.242   2.700  12.632
   27SAPE  C213 3482   2.146   2.565  12.776
   27SAPE  H13R 3483   2.055   2.575  12.713
   27SAPE  H13S 3484   2.110   2.579  12.881
   27SAPE  C214 3485   2.206   2.427  12.766
   27SAPE  H14R 3486   2.307   2.418  12.810
   27SAPE  C215 3487   2.152   2.317  12.711
   27SAPE  H15R 3488   2.211   2.224  12.710
   27SAPE  C216 3489   2.017   2.302  12.646
   27SAPE  H16R 3490   1.956   2.395  12.653
   27SAPE  H16S 3491   1.959   2.223  12.698
   27SAPE  C217 3492   2.030   2.263  12.497
   27SAPE  H17R 3493   1.930   2.228  12.462
   27SAPE  H17S 3494   2.101   2.178  12.486
   27SAPE  C218 3495   2.074   2.380  12.409
   27SAPE  H18R 3496   2.171   2.420  12.445
   27SAPE  H18S 3497   1.999   2.462  12.418
   27SAPE  C219 3498   2.088   2.343  12.261
   27SAPE  H19R 3499   1.991   2.304  12.223
   27SAPE  H19S 3500   2.162   2.260  12.250
   27SAPE  C220 3501   2.131   2.462  12.177
   27SAPE  H20R 3502   2.064   2.549  12.197
   27SAPE  H20S 3503   2.127   2.439  12.068
   27SAPE  H20T 3504   2.235   2.494  12.203
   27SAPE   C33 3505   2.113   2.405  13.404
   27SAPE   H3X 3506   2.059   2.315  13.367
   27SAPE   H3Y 3507   2.215   2.400  13.358
   27SAPE   C34 3508   2.044   2.533  13.353
   27SAPE   H4X 3509   2.102   2.622  13.383
   27SAPE   H4Y 3510   1.942   2.541  13.397
   27SAPE   C35 3511   2.033   2.529  13.199
   27SAPE   H5X 3512   2.016   2.422  13.172
   27SAPE   H5Y 3513   2.130   2.558  13.153
   27SAPE   C36 3514   1.917   2.607  13.136
   27SAPE   H6X 3515   1.832   2.621  13.205
   27SAPE   H6Y 3516   1.880   2.542  13.053
   27SAPE   C37 3517   1.956   2.740  13.069
   27SAPE   H7X 3518   2.060   2.729  13.030
   27SAPE   H7Y 3519   1.957   2.824  13.142
   27SAPE   C38 3520   1.866   2.772  12.948
   27SAPE   H8X 3521   1.763   2.796  12.980
   27SAPE   H8Y 3522   1.861   2.679  12.887
   27SAPE   C39 3523   1.923   2.883  12.858
   27SAPE   H9X 3524   2.033   2.884  12.872
   27SAPE   H9Y 3525   1.884   2.983  12.889
   27SAPE  C310 3526   1.895   2.859  12.708
   27SAPE  H10X 3527   1.790   2.886  12.684
   27SAPE  H10Y 3528   1.907   2.750  12.688
   27SAPE  C311 3529   1.992   2.934  12.616
   27SAPE  H11X 3530   2.095   2.917  12.654
   27SAPE  H11Y 3531   1.972   3.043  12.621
   27SAPE  C312 3532   1.990   2.887  12.469
   27SAPE  H12X 3533   1.957   2.780  12.465
   27SAPE  H12Y 3534   2.093   2.891  12.429
   27SAPE  C313 3535   1.902   2.974  12.378
   27SAPE  H13X 3536   1.942   3.078  12.381
   27SAPE  H13Y 3537   1.798   2.977  12.417
   27SAPE  C314 3538   1.901   2.925  12.232
   27SAPE  H14X 3539   2.002   2.891  12.201
   27SAPE  H14Y 3540   1.873   3.011  12.167
   27SAPE  C315 3541   1.799   2.812  12.213
   27SAPE  H15X 3542   1.702   2.846  12.257
   27SAPE  H15Y 3543   1.833   2.724  12.272
   27SAPE  C316 3544   1.771   2.769  12.068
   27SAPE  H16X 3545   1.752   2.857  12.003
   27SAPE  H16Y 3546   1.679   2.707  12.070
   27SAPE  C317 3547   1.880   2.684  12.004
   27SAPE  H17X 3548   1.907   2.603  12.075
   27SAPE  H17Y 3549   1.970   2.747  11.985
   27SAPE  C318 3550   1.832   2.621  11.873
   27SAPE  H18X 3551   1.812   2.700  11.797
   27SAPE  H18Y 3552   1.738   2.565  11.890
   27SAPE  H18Z 3553   1.907   2.550  11.832
   28SAPE     N 3554   3.092   2.208  14.237
   28SAPE   HN1 3555   3.135   2.254  14.155
   28SAPE   HN2 3556   2.997   2.247  14.251
   28SAPE   HN3 3557   3.156   2.230  14.317
   28SAPE   C12 3558   3.098   2.061  14.206
   28SAPE  H12A 3559   3.041   2.044  14.113
   28SAPE  H12B 3560   3.051   2.005  14.289
   28SAPE   C11 3561   3.244   2.019  14.184
   28SAPE  H11A 3562   3.250   1.912  14.152
   28SAPE  H11B 3563   3.299   2.026  14.281
   28SAPE     P 3564   3.320   2.071  13.936
   28SAPE   O13 3565   3.369   2.193  13.869
   28SAPE   O14 3566   3.395   1.945  13.924
   28SAPE   O12 3567   3.304   2.107  14.090
   28SAPE   O11 3568   3.166   2.049  13.901
   28SAPE    C1 3569   3.112   2.102  13.779
   28SAPE    HA 3570   3.018   2.158  13.801
   28SAPE    HB 3571   3.180   2.174  13.727
   28SAPE    C2 3572   3.079   1.989  13.680
   28SAPE    HS 3573   3.015   1.916  13.735
   28SAPE   O21 3574   3.203   1.929  13.636
   28SAPE   C21 3575   3.195   1.803  13.599
   28SAPE   O22 3576   3.097   1.732  13.608
   28SAPE   C22 3577   3.323   1.766  13.527
   28SAPE   H2R 3578   3.408   1.796  13.590
   28SAPE   H2S 3579   3.325   1.656  13.512
   28SAPE    C3 3580   2.997   2.040  13.557
   28SAPE    HX 3581   2.891   2.051  13.590
   28SAPE    HY 3582   3.000   1.959  13.482
   28SAPE   O31 3583   3.050   2.158  13.494
   28SAPE   C31 3584   2.970   2.264  13.489
   28SAPE   O32 3585   2.867   2.279  13.552
   28SAPE   C32 3586   3.018   2.365  13.385
   28SAPE   H2X 3587   3.037   2.462  13.436
   28SAPE   H2Y 3588   2.932   2.379  13.317
   28SAPE   C23 3589   3.327   1.841  13.392
   28SAPE   H3R 3590   3.327   1.951  13.412
   28SAPE   H3S 3591   3.236   1.819  13.332
   28SAPE   C24 3592   3.453   1.809  13.310
   28SAPE   H4R 3593   3.540   1.803  13.379
   28SAPE   H4S 3594   3.471   1.894  13.242
   28SAPE   C25 3595   3.435   1.681  13.233
   28SAPE   H5R 3596   3.372   1.606  13.282
   28SAPE   C26 3597   3.490   1.652  13.114
   28SAPE   H6R 3598   3.466   1.555  13.068
   28SAPE   C27 3599   3.581   1.738  13.030
   28SAPE   H7R 3600   3.606   1.682  12.937
   28SAPE   H7S 3601   3.677   1.746  13.085
   28SAPE   C28 3602   3.540   1.878  12.989
   28SAPE   H8R 3603   3.623   1.951  12.995
   28SAPE   C29 3604   3.420   1.924  12.950
   28SAPE   H9R 3605   3.410   2.032  12.929
   28SAPE  C210 3606   3.290   1.849  12.934
   28SAPE  H10R 3607   3.303   1.740  12.950
   28SAPE  H10S 3608   3.256   1.859  12.829
   28SAPE  C211 3609   3.183   1.902  13.027
   28SAPE  H11R 3610   3.176   1.849  13.123
   28SAPE  C212 3611   3.099   2.003  13.000
   28SAPE  H12R 3612   3.026   2.033  13.077
   28SAPE  C213 3613   3.093   2.085  12.874
   28SAPE  H13R 3614   3.190   2.083  12.820
   28SAPE  H13S 3615   3.077   2.190  12.905
   28SAPE  C214 3616   2.980   2.049  12.780
   28SAPE  H14R 3617   2.903   1.982  12.819
   28SAPE  C215 3618   2.968   2.095  12.654
   28SAPE  H15R 3619   2.880   2.066  12.594
   28SAPE  C216 3620   3.067   2.188  12.588
   28SAPE  H16R 3621   3.167   2.140  12.583
   28SAPE  H16S 3622   3.079   2.281  12.649
   28SAPE  C217 3623   3.027   2.230  12.445
   28SAPE  H17R 3624   3.106   2.300  12.410
   28SAPE  H17S 3625   2.931   2.285  12.446
   28SAPE  C218 3626   3.019   2.113  12.346
   28SAPE  H18R 3627   2.928   2.054  12.367
   28SAPE  H18S 3628   3.105   2.045  12.363
   28SAPE  C219 3629   3.021   2.154  12.197
   28SAPE  H19R 3630   2.933   2.218  12.174
   28SAPE  H19S 3631   3.012   2.061  12.137
   28SAPE  C220 3632   3.149   2.227  12.155
   28SAPE  H20R 3633   3.163   2.220  12.045
   28SAPE  H20S 3634   3.238   2.182  12.205
   28SAPE  H20T 3635   3.145   2.334  12.183
   28SAPE   C33 3636   3.140   2.321  13.302
   28SAPE   H3X 3637   3.139   2.211  13.283
   28SAPE   H3Y 3638   3.233   2.344  13.359
   28SAPE   C34 3639   3.144   2.388  13.165
   28SAPE   H4X 3640   3.135   2.498  13.175
   28SAPE   H4Y 3641   3.058   2.350  13.104
   28SAPE   C35 3642   3.275   2.356  13.093
   28SAPE   H5X 3643   3.294   2.246  13.100
   28SAPE   H5Y 3644   3.358   2.408  13.147
   28SAPE   C36 3645   3.278   2.398  12.947
   28SAPE   H6X 3646   3.252   2.506  12.936
   28SAPE   H6Y 3647   3.206   2.340  12.887
   28SAPE   C37 3648   3.418   2.373  12.892
   28SAPE   H7X 3649   3.451   2.274  12.929
   28SAPE   H7Y 3650   3.487   2.448  12.939
   28SAPE   C38 3651   3.429   2.380  12.739
   28SAPE   H8X 3652   3.513   2.448  12.720
   28SAPE   H8Y 3653   3.339   2.427  12.695
   28SAPE   C39 3654   3.459   2.246  12.668
   28SAPE   H9X 3655   3.478   2.268  12.560
   28SAPE   H9Y 3656   3.368   2.183  12.675
   28SAPE  C310 3657   3.581   2.172  12.726
   28SAPE  H10X 3658   3.560   2.143  12.831
   28SAPE  H10Y 3659   3.665   2.244  12.729
   28SAPE  C311 3660   3.632   2.044  12.657
   28SAPE  H11X 3661   3.632   1.960  12.730
   28SAPE  H11Y 3662   3.738   2.064  12.630
   28SAPE  C312 3663   3.562   1.999  12.528
   28SAPE  H12X 3664   3.628   1.926  12.475
   28SAPE  H12Y 3665   3.549   2.086  12.461
   28SAPE  C313 3666   3.428   1.927  12.548
   28SAPE  H13X 3667   3.371   1.973  12.631
   28SAPE  H13Y 3668   3.446   1.821  12.574
   28SAPE  C314 3669   3.344   1.936  12.420
   28SAPE  H14X 3670   3.311   2.042  12.409
   28SAPE  H14Y 3671   3.254   1.874  12.431
   28SAPE  C315 3672   3.418   1.896  12.291
   28SAPE  H15X 3673   3.469   1.798  12.307
   28SAPE  H15Y 3674   3.496   1.971  12.268
   28SAPE  C316 3675   3.321   1.885  12.173
   28SAPE  H16X 3676   3.219   1.915  12.208
   28SAPE  H16Y 3677   3.315   1.780  12.138
   28SAPE  C317 3678   3.357   1.976  12.055
   28SAPE  H17X 3679   3.386   2.076  12.094
   28SAPE  H17Y 3680   3.267   1.988  11.991
   28SAPE  C318 3681   3.470   1.919  11.970
   28SAPE  H18X 3682   3.486   1.981  11.879
   28SAPE  H18Y 3683   3.444   1.816  11.938
   28SAPE  H18Z 3684   3.565   1.916  12.027
   29SAPE     N 3685   2.606   3.954  13.986
   29SAPE   HN1 3686   2.698   3.903  14.003
   29SAPE   HN2 3687   2.526   3.889  13.996
   29SAPE   HN3 3688   2.614   3.977  13.884
   29SAPE   C12 3689   2.605   4.081  14.069
   29SAPE  H12A 3690   2.543   4.063  14.159
   29SAPE  H12B 3691   2.558   4.160  14.008
   29SAPE   C11 3692   2.746   4.128  14.112
   29SAPE  H11A 3693   2.784   4.068  14.198
   29SAPE  H11B 3694   2.738   4.233  14.149
   29SAPE     P 3695   2.939   4.010  13.981
   29SAPE   O13 3696   3.045   4.023  14.082
   29SAPE   O14 3697   2.856   3.887  13.977
   29SAPE   O12 3698   2.837   4.128  14.003
   29SAPE   O11 3699   2.998   4.040  13.837
   29SAPE    C1 3700   2.955   4.156  13.766
   29SAPE    HA 3701   2.956   4.247  13.830
   29SAPE    HB 3702   3.025   4.173  13.681
   29SAPE    C2 3703   2.813   4.135  13.707
   29SAPE    HS 3704   2.743   4.119  13.792
   29SAPE   O21 3705   2.820   4.023  13.617
   29SAPE   C21 3706   2.717   3.942  13.623
   29SAPE   O22 3707   2.631   3.940  13.711
   29SAPE   C22 3708   2.713   3.858  13.496
   29SAPE   H2R 3709   2.607   3.834  13.476
   29SAPE   H2S 3710   2.750   3.923  13.414
   29SAPE    C3 3711   2.759   4.260  13.634
   29SAPE    HX 3712   2.846   4.324  13.607
   29SAPE    HY 3713   2.698   4.320  13.706
   29SAPE   O31 3714   2.675   4.220  13.523
   29SAPE   C31 3715   2.728   4.244  13.403
   29SAPE   O32 3716   2.821   4.320  13.381
   29SAPE   C32 3717   2.653   4.162  13.298
   29SAPE   H2X 3718   2.558   4.212  13.273
   29SAPE   H2Y 3719   2.628   4.063  13.337
   29SAPE   C23 3720   2.799   3.730  13.492
   29SAPE   H3R 3721   2.747   3.651  13.551
   29SAPE   H3S 3722   2.898   3.745  13.541
   29SAPE   C24 3723   2.818   3.684  13.346
   29SAPE   H4R 3724   2.724   3.706  13.290
   29SAPE   H4S 3725   2.830   3.573  13.347
   29SAPE   C25 3726   2.938   3.745  13.278
   29SAPE   H5R 3727   3.018   3.774  13.348
   29SAPE   C26 3728   2.956   3.772  13.147
   29SAPE   H6R 3729   3.050   3.820  13.115
   29SAPE   C27 3730   2.855   3.746  13.038
   29SAPE   H7R 3731   2.788   3.835  13.035
   29SAPE   H7S 3732   2.789   3.660  13.066
   29SAPE   C28 3733   2.908   3.725  12.898
   29SAPE   H8R 3734   3.017   3.727  12.884
   29SAPE   C29 3735   2.828   3.707  12.792
   29SAPE   H9R 3736   2.871   3.690  12.692
   29SAPE  C210 3737   2.678   3.706  12.805
   29SAPE  H10R 3738   2.646   3.784  12.878
   29SAPE  H10S 3739   2.648   3.610  12.850
   29SAPE  C211 3740   2.602   3.722  12.676
   29SAPE  H11R 3741   2.630   3.652  12.596
   29SAPE  C212 3742   2.504   3.811  12.653
   29SAPE  H12R 3743   2.456   3.812  12.555
   29SAPE  C213 3744   2.451   3.915  12.750
   29SAPE  H13R 3745   2.420   3.865  12.845
   29SAPE  H13S 3746   2.356   3.957  12.709
   29SAPE  C214 3747   2.544   4.030  12.783
   29SAPE  H14R 3748   2.586   4.028  12.884
   29SAPE  C215 3749   2.577   4.131  12.700
   29SAPE  H15R 3750   2.646   4.210  12.735
   29SAPE  C216 3751   2.526   4.146  12.559
   29SAPE  H16R 3752   2.445   4.222  12.556
   29SAPE  H16S 3753   2.479   4.051  12.526
   29SAPE  C217 3754   2.630   4.181  12.451
   29SAPE  H17R 3755   2.583   4.148  12.356
   29SAPE  H17S 3756   2.724   4.123  12.466
   29SAPE  C218 3757   2.664   4.330  12.440
   29SAPE  H18R 3758   2.758   4.345  12.497
   29SAPE  H18S 3759   2.588   4.390  12.492
   29SAPE  C219 3760   2.679   4.385  12.297
   29SAPE  H19R 3761   2.748   4.472  12.302
   29SAPE  H19S 3762   2.581   4.425  12.262
   29SAPE  C220 3763   2.730   4.288  12.192
   29SAPE  H20R 3764   2.833   4.255  12.219
   29SAPE  H20S 3765   2.736   4.339  12.093
   29SAPE  H20T 3766   2.664   4.200  12.179
   29SAPE   C33 3767   2.736   4.154  13.169
   29SAPE   H3X 3768   2.745   4.256  13.128
   29SAPE   H3Y 3769   2.683   4.092  13.094
   29SAPE   C34 3770   2.873   4.091  13.198
   29SAPE   H4X 3771   2.853   3.985  13.220
   29SAPE   H4Y 3772   2.922   4.132  13.289
   29SAPE   C35 3773   2.974   4.111  13.086
   29SAPE   H5X 3774   2.943   4.045  13.003
   29SAPE   H5Y 3775   3.073   4.076  13.122
   29SAPE   C36 3776   2.984   4.258  13.045
   29SAPE   H6X 3777   2.982   4.318  13.139
   29SAPE   H6Y 3778   2.897   4.290  12.984
   29SAPE   C37 3779   3.113   4.294  12.972
   29SAPE   H7X 3780   3.194   4.240  13.024
   29SAPE   H7Y 3781   3.134   4.402  12.986
   29SAPE   C38 3782   3.114   4.263  12.822
   29SAPE   H8X 3783   3.213   4.291  12.778
   29SAPE   H8Y 3784   3.037   4.327  12.774
   29SAPE   C39 3785   3.080   4.118  12.786
   29SAPE   H9X 3786   2.975   4.100  12.819
   29SAPE   H9Y 3787   3.147   4.048  12.840
   29SAPE  C310 3788   3.080   4.090  12.636
   29SAPE  H10X 3789   3.182   4.092  12.593
   29SAPE  H10Y 3790   3.021   4.172  12.589
   29SAPE  C311 3791   3.008   3.959  12.605
   29SAPE  H11X 3792   2.915   3.958  12.666
   29SAPE  H11Y 3793   3.069   3.871  12.635
   29SAPE  C312 3794   2.967   3.951  12.458
   29SAPE  H12X 3795   3.052   3.920  12.395
   29SAPE  H12Y 3796   2.938   4.055  12.429
   29SAPE  C313 3797   2.846   3.859  12.437
   29SAPE  H13X 3798   2.779   3.869  12.526
   29SAPE  H13Y 3799   2.881   3.754  12.434
   29SAPE  C314 3800   2.759   3.890  12.315
   29SAPE  H14X 3801   2.672   3.951  12.347
   29SAPE  H14Y 3802   2.715   3.795  12.276
   29SAPE  C315 3803   2.828   3.965  12.201
   29SAPE  H15X 3804   2.878   4.058  12.235
   29SAPE  H15Y 3805   2.750   3.996  12.128
   29SAPE  C316 3806   2.931   3.879  12.129
   29SAPE  H16X 3807   3.034   3.909  12.156
   29SAPE  H16Y 3808   2.919   3.773  12.163
   29SAPE  C317 3809   2.909   3.884  11.979
   29SAPE  H17X 3810   2.801   3.893  11.954
   29SAPE  H17Y 3811   2.940   3.785  11.942
   29SAPE  C318 3812   2.989   3.992  11.906
   29SAPE  H18X 3813   2.927   4.043  11.830
   29SAPE  H18Y 3814   3.076   3.946  11.853
   29SAPE  H18Z 3815   3.029   4.068  11.976
   30SAPE     N 3816   3.555   4.336  13.886
   30SAPE   HN1 3817   3.614   4.289  13.960
   30SAPE   HN2 3818   3.622   4.354  13.808
   30SAPE   HN3 3819   3.514   4.424  13.928
   30SAPE   C12 3820   3.455   4.228  13.864
   30SAPE  H12A 3821   3.442   4.214  13.756
   30SAPE  H12B 3822   3.359   4.259  13.910
   30SAPE   C11 3823   3.510   4.101  13.933
   30SAPE  H11A 3824   3.527   4.023  13.855
   30SAPE  H11B 3825   3.433   4.060  14.001
   30SAPE     P 3826   3.724   4.015  14.055
   30SAPE   O13 3827   3.779   4.055  14.185
   30SAPE   O14 3828   3.649   3.887  14.054
   30SAPE   O12 3829   3.629   4.132  14.008
   30SAPE   O11 3830   3.838   4.010  13.944
   30SAPE    C1 3831   3.938   3.908  13.956
   30SAPE    HA 3832   4.037   3.955  13.937
   30SAPE    HB 3833   3.946   3.864  14.058
   30SAPE    C2 3834   3.920   3.790  13.854
   30SAPE    HS 3835   4.014   3.731  13.857
   30SAPE   O21 3836   3.896   3.837  13.721
   30SAPE   C21 3837   3.991   3.912  13.672
   30SAPE   O22 3838   4.108   3.910  13.706
   30SAPE   C22 3839   3.936   3.995  13.558
   30SAPE   H2R 3840   4.021   4.056  13.519
   30SAPE   H2S 3841   3.903   3.927  13.478
   30SAPE    C3 3842   3.802   3.694  13.888
   30SAPE    HX 3843   3.707   3.751  13.874
   30SAPE    HY 3844   3.809   3.667  13.995
   30SAPE   O31 3845   3.809   3.575  13.806
   30SAPE   C31 3846   3.721   3.570  13.704
   30SAPE   O32 3847   3.622   3.639  13.691
   30SAPE   C32 3848   3.766   3.462  13.607
   30SAPE   H2X 3849   3.694   3.377  13.615
   30SAPE   H2Y 3850   3.866   3.425  13.636
   30SAPE   C23 3851   3.821   4.090  13.601
   30SAPE   H3R 3852   3.798   4.157  13.514
   30SAPE   H3S 3853   3.857   4.154  13.685
   30SAPE   C24 3854   3.687   4.026  13.642
   30SAPE   H4R 3855   3.619   4.110  13.668
   30SAPE   H4S 3856   3.702   3.967  13.735
   30SAPE   C25 3857   3.628   3.939  13.535
   30SAPE   H5R 3858   3.690   3.852  13.510
   30SAPE   C26 3859   3.509   3.954  13.474
   30SAPE   H6R 3860   3.484   3.886  13.391
   30SAPE   C27 3861   3.407   4.062  13.498
   30SAPE   H7R 3862   3.390   4.069  13.608
   30SAPE   H7S 3863   3.309   4.030  13.456
   30SAPE   C28 3864   3.444   4.197  13.443
   30SAPE   H8R 3865   3.443   4.280  13.515
   30SAPE   C29 3866   3.480   4.224  13.317
   30SAPE   H9R 3867   3.503   4.329  13.292
   30SAPE  C210 3868   3.490   4.125  13.203
   30SAPE  H10R 3869   3.434   4.032  13.226
   30SAPE  H10S 3870   3.597   4.096  13.189
   30SAPE  C211 3871   3.437   4.184  13.076
   30SAPE  H11R 3872   3.418   4.292  13.077
   30SAPE  C212 3873   3.416   4.119  12.960
   30SAPE  H12R 3874   3.378   4.177  12.875
   30SAPE  C213 3875   3.440   3.973  12.930
   30SAPE  H13R 3876   3.353   3.929  12.877
   30SAPE  H13S 3877   3.458   3.913  13.021
   30SAPE  C214 3878   3.563   3.978  12.844
   30SAPE  H14R 3879   3.658   3.964  12.898
   30SAPE  C215 3880   3.566   4.003  12.711
   30SAPE  H15R 3881   3.664   4.024  12.667
   30SAPE  C216 3882   3.449   4.030  12.621
   30SAPE  H16R 3883   3.400   4.126  12.649
   30SAPE  H16S 3884   3.372   3.949  12.633
   30SAPE  C217 3885   3.488   4.038  12.472
   30SAPE  H17R 3886   3.394   4.055  12.414
   30SAPE  H17S 3887   3.530   3.940  12.439
   30SAPE  C218 3888   3.586   4.151  12.440
   30SAPE  H18R 3889   3.687   4.125  12.479
   30SAPE  H18S 3890   3.553   4.243  12.494
   30SAPE  C219 3891   3.597   4.184  12.290
   30SAPE  H19R 3892   3.667   4.270  12.278
   30SAPE  H19S 3893   3.497   4.217  12.254
   30SAPE  C220 3894   3.647   4.068  12.204
   30SAPE  H20R 3895   3.584   3.978  12.217
   30SAPE  H20S 3896   3.752   4.042  12.231
   30SAPE  H20T 3897   3.645   4.097  12.097
   30SAPE   C33 3898   3.770   3.511  13.461
   30SAPE   H3X 3899   3.667   3.519  13.423
   30SAPE   H3Y 3900   3.821   3.429  13.405
   30SAPE   C34 3901   3.848   3.641  13.429
   30SAPE   H4X 3902   3.956   3.617  13.422
   30SAPE   H4Y 3903   3.837   3.713  13.512
   30SAPE   C35 3904   3.801   3.705  13.296
   30SAPE   H5X 3905   3.717   3.774  13.314
   30SAPE   H5Y 3906   3.760   3.622  13.235
   30SAPE   C36 3907   3.908   3.772  13.208
   30SAPE   H6X 3908   4.002   3.712  13.211
   30SAPE   H6Y 3909   3.931   3.874  13.245
   30SAPE   C37 3910   3.859   3.777  13.062
   30SAPE   H7X 3911   3.759   3.826  13.059
   30SAPE   H7Y 3912   3.844   3.672  13.028
   30SAPE   C38 3913   3.951   3.845  12.960
   30SAPE   H8X 3914   4.055   3.808  12.973
   30SAPE   H8Y 3915   3.951   3.955  12.977
   30SAPE   C39 3916   3.904   3.813  12.817
   30SAPE   H9X 3917   3.792   3.811  12.818
   30SAPE   H9Y 3918   3.937   3.710  12.792
   30SAPE  C310 3919   3.947   3.910  12.706
   30SAPE  H10X 3920   4.056   3.903  12.688
   30SAPE  H10Y 3921   3.925   4.014  12.741
   30SAPE  C311 3922   3.868   3.888  12.576
   30SAPE  H11X 3923   3.875   3.978  12.512
   30SAPE  H11Y 3924   3.761   3.872  12.599
   30SAPE  C312 3925   3.908   3.765  12.492
   30SAPE  H12X 3926   3.827   3.689  12.496
   30SAPE  H12Y 3927   4.001   3.724  12.536
   30SAPE  C313 3928   3.943   3.800  12.348
   30SAPE  H13X 3929   4.049   3.831  12.355
   30SAPE  H13Y 3930   3.883   3.884  12.309
   30SAPE  C314 3931   3.946   3.686  12.246
   30SAPE  H14X 3932   3.848   3.681  12.194
   30SAPE  H14Y 3933   3.964   3.589  12.297
   30SAPE  C315 3934   4.058   3.714  12.144
   30SAPE  H15X 3935   4.153   3.734  12.200
   30SAPE  H15Y 3936   4.032   3.807  12.089
   30SAPE  C316 3937   4.088   3.606  12.042
   30SAPE  H16X 3938   4.154   3.530  12.088
   30SAPE  H16Y 3939   4.143   3.649  11.956
   30SAPE  C317 3940   3.966   3.530  11.993
   30SAPE  H17X 3941   3.902   3.498  12.078
   30SAPE  H17Y 3942   4.007   3.438  11.947
   30SAPE  C318 3943   3.884   3.606  11.892
   30SAPE  H18X 3944   3.812   3.537  11.845
   30SAPE  H18Y 3945   3.948   3.649  11.812
   30SAPE  H18Z 3946   3.826   3.688  11.940
   31SAPE     N 3947   4.592   2.926  13.875
   31SAPE   HN1 3948   4.588   2.862  13.793
   31SAPE   HN2 3949   4.648   3.012  13.856
   31SAPE   HN3 3950   4.643   2.874  13.952
   31SAPE   C12 3951   4.455   2.958  13.932
   31SAPE  H12A 3952   4.396   3.009  13.853
   31SAPE  H12B 3953   4.469   3.028  14.017
   31SAPE   C11 3954   4.382   2.832  13.984
   31SAPE  H11A 3955   4.369   2.756  13.903
   31SAPE  H11B 3956   4.279   2.864  14.012
   31SAPE     P 3957   4.572   2.687  14.099
   31SAPE   O13 3958   4.687   2.776  14.073
   31SAPE   O14 3959   4.574   2.597  14.217
   31SAPE   O12 3960   4.443   2.776  14.102
   31SAPE   O11 3961   4.541   2.608  13.969
   31SAPE    C1 3962   4.626   2.501  13.934
   31SAPE    HA 3963   4.677   2.456  14.022
   31SAPE    HB 3964   4.561   2.424  13.889
   31SAPE    C2 3965   4.735   2.542  13.832
   31SAPE    HS 3966   4.815   2.595  13.888
   31SAPE   O21 3967   4.677   2.631  13.734
   31SAPE   C21 3968   4.770   2.680  13.653
   31SAPE   O22 3969   4.890   2.668  13.671
   31SAPE   C22 3970   4.701   2.758  13.541
   31SAPE   H2R 3971   4.687   2.683  13.460
   31SAPE   H2S 3972   4.601   2.791  13.578
   31SAPE    C3 3973   4.794   2.413  13.767
   31SAPE    HX 3974   4.873   2.377  13.836
   31SAPE    HY 3975   4.846   2.434  13.673
   31SAPE   O31 3976   4.695   2.309  13.756
   31SAPE   C31 3977   4.622   2.284  13.648
   31SAPE   O32 3978   4.639   2.327  13.536
   31SAPE   C32 3979   4.514   2.185  13.687
   31SAPE   H2X 3980   4.509   2.173  13.797
   31SAPE   H2Y 3981   4.542   2.088  13.640
   31SAPE   C23 3982   4.770   2.880  13.476
   31SAPE   H3R 3983   4.872   2.849  13.444
   31SAPE   H3S 3984   4.777   2.965  13.547
   31SAPE   C24 3985   4.692   2.919  13.347
   31SAPE   H4R 3986   4.588   2.885  13.361
   31SAPE   H4S 3987   4.731   2.855  13.266
   31SAPE   C25 3988   4.691   3.064  13.306
   31SAPE   H5R 3989   4.654   3.133  13.383
   31SAPE   C26 3990   4.714   3.111  13.182
   31SAPE   H6R 3991   4.706   3.219  13.164
   31SAPE   C27 3992   4.746   3.028  13.059
   31SAPE   H7R 3993   4.700   3.077  12.971
   31SAPE   H7S 3994   4.696   2.929  13.067
   31SAPE   C28 3995   4.894   3.012  13.034
   31SAPE   H8R 3996   4.953   3.105  13.038
   31SAPE   C29 3997   4.958   2.895  13.008
   31SAPE   H9R 3998   5.067   2.896  12.993
   31SAPE  C210 3999   4.896   2.758  12.999
   31SAPE  H10R 4000   4.960   2.694  12.935
   31SAPE  H10S 4001   4.797   2.763  12.947
   31SAPE  C211 4002   4.882   2.695  13.135
   31SAPE  H11R 4003   4.954   2.727  13.211
   31SAPE  C212 4004   4.787   2.606  13.169
   31SAPE  H12R 4005   4.777   2.577  13.274
   31SAPE  C213 4006   4.680   2.554  13.078
   31SAPE  H13R 4007   4.709   2.568  12.972
   31SAPE  H13S 4008   4.591   2.620  13.090
   31SAPE  C214 4009   4.640   2.410  13.106
   31SAPE  H14R 4010   4.599   2.389  13.207
   31SAPE  C215 4011   4.654   2.309  13.019
   31SAPE  H15R 4012   4.620   2.208  13.047
   31SAPE  C216 4013   4.711   2.325  12.881
   31SAPE  H16R 4014   4.744   2.228  12.840
   31SAPE  H16S 4015   4.803   2.388  12.888
   31SAPE  C217 4016   4.621   2.393  12.777
   31SAPE  H17R 4017   4.551   2.465  12.824
   31SAPE  H17S 4018   4.560   2.314  12.726
   31SAPE  C218 4019   4.705   2.469  12.674
   31SAPE  H18R 4020   4.776   2.397  12.630
   31SAPE  H18S 4021   4.765   2.547  12.728
   31SAPE  C219 4022   4.623   2.540  12.566
   31SAPE  H19R 4023   4.684   2.551  12.474
   31SAPE  H19S 4024   4.610   2.644  12.599
   31SAPE  C220 4025   4.487   2.477  12.531
   31SAPE  H20R 4026   4.500   2.376  12.489
   31SAPE  H20S 4027   4.434   2.539  12.455
   31SAPE  H20T 4028   4.422   2.469  12.620
   31SAPE   C33 4029   4.378   2.231  13.634
   31SAPE   H3X 4030   4.306   2.149  13.659
   31SAPE   H3Y 4031   4.379   2.236  13.524
   31SAPE   C34 4032   4.326   2.362  13.699
   31SAPE   H4X 4033   4.333   2.356  13.809
   31SAPE   H4Y 4034   4.217   2.367  13.674
   31SAPE   C35 4035   4.385   2.493  13.644
   31SAPE   H5X 4036   4.495   2.497  13.656
   31SAPE   H5Y 4037   4.344   2.577  13.705
   31SAPE   C36 4038   4.346   2.513  13.497
   31SAPE   H6X 4039   4.251   2.571  13.499
   31SAPE   H6Y 4040   4.333   2.415  13.447
   31SAPE   C37 4041   4.444   2.585  13.406
   31SAPE   H7X 4042   4.526   2.518  13.373
   31SAPE   H7Y 4043   4.486   2.663  13.472
   31SAPE   C38 4044   4.378   2.662  13.291
   31SAPE   H8X 4045   4.459   2.732  13.258
   31SAPE   H8Y 4046   4.293   2.722  13.331
   31SAPE   C39 4047   4.331   2.590  13.163
   31SAPE   H9X 4048   4.248   2.520  13.179
   31SAPE   H9Y 4049   4.413   2.528  13.123
   31SAPE  C310 4050   4.290   2.697  13.060
   31SAPE  H10X 4051   4.361   2.782  13.074
   31SAPE  H10Y 4052   4.188   2.735  13.079
   31SAPE  C311 4053   4.307   2.657  12.913
   31SAPE  H11X 4054   4.227   2.588  12.880
   31SAPE  H11Y 4055   4.403   2.602  12.905
   31SAPE  C312 4056   4.315   2.780  12.821
   31SAPE  H12X 4057   4.370   2.861  12.875
   31SAPE  H12Y 4058   4.213   2.819  12.798
   31SAPE  C313 4059   4.396   2.750  12.695
   31SAPE  H13X 4060   4.342   2.674  12.635
   31SAPE  H13Y 4061   4.491   2.707  12.733
   31SAPE  C314 4062   4.430   2.873  12.609
   31SAPE  H14X 4063   4.483   2.946  12.673
   31SAPE  H14Y 4064   4.333   2.916  12.578
   31SAPE  C315 4065   4.507   2.855  12.476
   31SAPE  H15X 4066   4.455   2.917  12.399
   31SAPE  H15Y 4067   4.501   2.751  12.441
   31SAPE  C316 4068   4.653   2.904  12.482
   31SAPE  H16X 4069   4.701   2.865  12.574
   31SAPE  H16Y 4070   4.653   3.016  12.488
   31SAPE  C317 4071   4.736   2.860  12.361
   31SAPE  H17X 4072   4.679   2.882  12.268
   31SAPE  H17Y 4073   4.749   2.750  12.366
   31SAPE  C318 4074   4.874   2.927  12.352
   31SAPE  H18X 4075   4.924   2.900  12.257
   31SAPE  H18Y 4076   4.938   2.893  12.436
   31SAPE  H18Z 4077   4.864   3.037  12.357
   32SAPE     N 4078   3.866   0.766  13.888
   32SAPE   HN1 4079   3.877   0.667  13.863
   32SAPE   HN2 4080   3.786   0.806  13.835
   32SAPE   HN3 4081   3.957   0.813  13.865
   32SAPE   C12 4082   3.845   0.773  14.037
   32SAPE  H12A 4083   3.748   0.726  14.062
   32SAPE  H12B 4084   3.842   0.880  14.067
   32SAPE   C11 4085   3.960   0.702  14.109
   32SAPE  H11A 4086   3.960   0.595  14.080
   32SAPE  H11B 4087   3.943   0.709  14.218
   32SAPE     P 4088   4.224   0.701  14.078
   32SAPE   O13 4089   4.307   0.777  14.173
   32SAPE   O14 4090   4.211   0.556  14.106
   32SAPE   O12 4091   4.082   0.767  14.077
   32SAPE   O11 4092   4.266   0.725  13.929
   32SAPE    C1 4093   4.192   0.674  13.818
   32SAPE    HA 4094   4.245   0.582  13.782
   32SAPE    HB 4095   4.090   0.641  13.844
   32SAPE    C2 4096   4.191   0.775  13.700
   32SAPE    HS 4097   4.299   0.808  13.692
   32SAPE   O21 4098   4.102   0.889  13.720
   32SAPE   C21 4099   4.133   0.982  13.626
   32SAPE   O22 4100   4.245   1.004  13.586
   32SAPE   C22 4101   4.002   1.026  13.560
   32SAPE   H2R 4102   3.926   0.948  13.579
   32SAPE   H2S 4103   3.971   1.118  13.611
   32SAPE    C3 4104   4.152   0.705  13.567
   32SAPE    HX 4105   4.206   0.609  13.565
   32SAPE    HY 4106   4.190   0.768  13.482
   32SAPE   O31 4107   4.009   0.679  13.556
   32SAPE   C31 4108   3.985   0.624  13.435
   32SAPE   O32 4109   4.069   0.608  13.350
   32SAPE   C32 4110   3.843   0.569  13.425
   32SAPE   H2X 4111   3.794   0.574  13.524
   32SAPE   H2Y 4112   3.861   0.463  13.398
   32SAPE   C23 4113   4.016   1.051  13.408
   32SAPE   H3R 4114   4.121   1.070  13.377
   32SAPE   H3S 4115   3.963   1.145  13.385
   32SAPE   C24 4116   3.957   0.938  13.321
   32SAPE   H4R 4117   3.900   0.869  13.386
   32SAPE   H4S 4118   4.041   0.879  13.277
   32SAPE   C25 4119   3.859   0.986  13.216
   32SAPE   H5R 4120   3.770   1.035  13.258
   32SAPE   C26 4121   3.869   0.974  13.082
   32SAPE   H6R 4122   3.784   1.008  13.021
   32SAPE   C27 4123   3.979   0.910  13.001
   32SAPE   H7R 4124   3.946   0.903  12.896
   32SAPE   H7S 4125   3.994   0.805  13.034
   32SAPE   C28 4126   4.112   0.978  13.015
   32SAPE   H8R 4127   4.143   0.999  13.118
   32SAPE   C29 4128   4.197   1.009  12.916
   32SAPE   H9R 4129   4.291   1.058  12.944
   32SAPE  C210 4130   4.180   0.985  12.768
   32SAPE  H10R 4131   4.196   1.082  12.719
   32SAPE  H10S 4132   4.075   0.955  12.743
   32SAPE  C211 4133   4.279   0.887  12.710
   32SAPE  H11R 4134   4.384   0.904  12.737
   32SAPE  C212 4135   4.251   0.792  12.620
   32SAPE  H12R 4136   4.334   0.731  12.579
   32SAPE  C213 4137   4.116   0.764  12.559
   32SAPE  H13R 4138   4.036   0.769  12.635
   32SAPE  H13S 4139   4.113   0.660  12.520
   32SAPE  C214 4140   4.088   0.864  12.449
   32SAPE  H14R 4141   4.016   0.943  12.475
   32SAPE  C215 4142   4.141   0.862  12.326
   32SAPE  H15R 4143   4.113   0.940  12.253
   32SAPE  C216 4144   4.239   0.760  12.275
   32SAPE  H16R 4145   4.218   0.729  12.170
   32SAPE  H16S 4146   4.235   0.668  12.337
   32SAPE  C217 4147   4.383   0.811  12.281
   32SAPE  H17R 4148   4.450   0.726  12.256
   32SAPE  H17S 4149   4.405   0.845  12.384
   32SAPE  C218 4150   4.411   0.924  12.182
   32SAPE  H18R 4151   4.363   1.018  12.217
   32SAPE  H18S 4152   4.367   0.893  12.085
   32SAPE  C219 4153   4.560   0.946  12.158
   32SAPE  H19R 4154   4.609   0.848  12.141
   32SAPE  H19S 4155   4.605   0.992  12.249
   32SAPE  C220 4156   4.586   1.035  12.038
   32SAPE  H20R 4157   4.542   0.992  11.945
   32SAPE  H20S 4158   4.696   1.045  12.023
   32SAPE  H20T 4159   4.544   1.137  12.053
   32SAPE   C33 4160   3.752   0.623  13.312
   32SAPE   H3X 4161   3.715   0.724  13.340
   32SAPE   H3Y 4162   3.664   0.555  13.305
   32SAPE   C34 4163   3.814   0.633  13.171
   32SAPE   H4X 4164   3.898   0.706  13.177
   32SAPE   H4Y 4165   3.736   0.676  13.105
   32SAPE   C35 4166   3.869   0.504  13.108
   32SAPE   H5X 4167   3.790   0.426  13.110
   32SAPE   H5Y 4168   3.954   0.469  13.171
   32SAPE   C36 4169   3.923   0.519  12.964
   32SAPE   H6X 4170   3.978   0.425  12.941
   32SAPE   H6Y 4171   3.997   0.602  12.959
   32SAPE   C37 4172   3.815   0.537  12.855
   32SAPE   H7X 4173   3.723   0.484  12.887
   32SAPE   H7Y 4174   3.851   0.489  12.761
   32SAPE   C38 4175   3.784   0.684  12.822
   32SAPE   H8X 4176   3.871   0.727  12.767
   32SAPE   H8Y 4177   3.773   0.742  12.915
   32SAPE   C39 4178   3.657   0.704  12.738
   32SAPE   H9X 4179   3.573   0.645  12.781
   32SAPE   H9Y 4180   3.675   0.666  12.636
   32SAPE  C310 4181   3.619   0.853  12.735
   32SAPE  H10X 4182   3.712   0.913  12.726
   32SAPE  H10Y 4183   3.575   0.878  12.834
   32SAPE  C311 4184   3.520   0.897  12.624
   32SAPE  H11X 4185   3.504   1.007  12.633
   32SAPE  H11Y 4186   3.422   0.847  12.643
   32SAPE  C312 4187   3.562   0.866  12.479
   32SAPE  H12X 4188   3.487   0.911  12.410
   32SAPE  H12Y 4189   3.553   0.756  12.466
   32SAPE  C313 4190   3.701   0.915  12.436
   32SAPE  H13X 4191   3.769   0.922  12.525
   32SAPE  H13Y 4192   3.693   1.017  12.393
   32SAPE  C314 4193   3.770   0.820  12.337
   32SAPE  H14X 4194   3.864   0.868  12.301
   32SAPE  H14Y 4195   3.706   0.805  12.247
   32SAPE  C315 4196   3.801   0.684  12.403
   32SAPE  H15X 4197   3.705   0.632  12.420
   32SAPE  H15Y 4198   3.848   0.702  12.502
   32SAPE  C316 4199   3.889   0.587  12.323
   32SAPE  H16X 4200   3.994   0.623  12.318
   32SAPE  H16Y 4201   3.850   0.583  12.220
   32SAPE  C317 4202   3.884   0.444  12.380
   32SAPE  H17X 4203   3.781   0.425  12.418
   32SAPE  H17Y 4204   3.952   0.439  12.468
   32SAPE  C318 4205   3.919   0.335  12.279
   32SAPE  H18X 4206   3.831   0.310  12.216
   32SAPE  H18Y 4207   3.954   0.243  12.330
   32SAPE  H18Z 4208   4.000   0.370  12.210
   33SAPE     N 4209   4.822   3.370  13.727
   33SAPE   HN1 4210   4.910   3.402  13.682
   33SAPE   HN2 4211   4.804   3.273  13.694
   33SAPE   HN3 4212   4.743   3.430  13.697
   33SAPE   C12 4213   4.841   3.378  13.877
   33SAPE  H12A 4214   4.760   3.321  13.927
   33SAPE  H12B 4215   4.831   3.486  13.904
   33SAPE   C11 4216   4.979   3.325  13.921
   33SAPE  H11A 4217   5.060   3.381  13.870
   33SAPE  H11B 4218   4.989   3.218  13.889
   33SAPE     P 4219   4.980   3.460  14.153
   33SAPE   O13 4220   4.837   3.495  14.169
   33SAPE   O14 4221   5.065   3.456  14.273
   33SAPE   O12 4222   4.995   3.329  14.063
   33SAPE   O11 4223   5.036   3.571  14.059
   33SAPE    C1 4224   5.171   3.577  14.019
   33SAPE    HA 4225   5.236   3.608  14.104
   33SAPE    HB 4226   5.209   3.480  13.980
   33SAPE    C2 4227   5.178   3.683  13.909
   33SAPE    HS 4228   5.151   3.780  13.957
   33SAPE   O21 4229   5.087   3.646  13.803
   33SAPE   C21 4230   5.004   3.741  13.764
   33SAPE   O22 4231   4.978   3.843  13.824
   33SAPE   C22 4232   4.948   3.703  13.627
   33SAPE   H2R 4233   5.032   3.721  13.556
   33SAPE   H2S 4234   4.926   3.595  13.626
   33SAPE    C3 4235   5.321   3.698  13.854
   33SAPE    HX 4236   5.391   3.704  13.939
   33SAPE    HY 4237   5.330   3.796  13.804
   33SAPE   O31 4238   5.358   3.585  13.772
   33SAPE   C31 4239   5.322   3.605  13.646
   33SAPE   O32 4240   5.275   3.708  13.601
   33SAPE   C32 4241   5.349   3.483  13.562
   33SAPE   H2X 4242   5.305   3.394  13.612
   33SAPE   H2Y 4243   5.459   3.468  13.553
   33SAPE   C23 4244   4.825   3.786  13.583
   33SAPE   H3R 4245   4.852   3.895  13.586
   33SAPE   H3S 4246   4.742   3.771  13.656
   33SAPE   C24 4247   4.774   3.753  13.441
   33SAPE   H4R 4248   4.704   3.836  13.412
   33SAPE   H4S 4249   4.712   3.661  13.445
   33SAPE   C25 4250   4.883   3.744  13.337
   33SAPE   H5R 4251   4.949   3.832  13.332
   33SAPE   C26 4252   4.909   3.641  13.254
   33SAPE   H6R 4253   4.992   3.651  13.182
   33SAPE   C27 4254   4.836   3.509  13.243
   33SAPE   H7R 4255   4.770   3.492  13.331
   33SAPE   H7S 4256   4.909   3.426  13.246
   33SAPE   C28 4257   4.752   3.501  13.118
   33SAPE   H8R 4258   4.647   3.528  13.133
   33SAPE   C29 4259   4.792   3.465  12.993
   33SAPE   H9R 4260   4.717   3.469  12.913
   33SAPE  C210 4261   4.930   3.426  12.948
   33SAPE  H10R 4262   4.986   3.380  13.033
   33SAPE  H10S 4263   4.985   3.519  12.923
   33SAPE  C211 4264   4.941   3.332  12.830
   33SAPE  H11R 4265   4.979   3.232  12.854
   33SAPE  C212 4266   4.913   3.359  12.700
   33SAPE  H12R 4267   4.932   3.280  12.625
   33SAPE  C213 4268   4.863   3.489  12.643
   33SAPE  H13R 4269   4.947   3.541  12.593
   33SAPE  H13S 4270   4.828   3.558  12.723
   33SAPE  C214 4271   4.751   3.467  12.543
   33SAPE  H14R 4272   4.711   3.365  12.535
   33SAPE  C215 4273   4.696   3.562  12.465
   33SAPE  H15R 4274   4.616   3.533  12.395
   33SAPE  C216 4275   4.736   3.708  12.462
   33SAPE  H16R 4276   4.755   3.744  12.566
   33SAPE  H16S 4277   4.652   3.769  12.422
   33SAPE  C217 4278   4.862   3.732  12.378
   33SAPE  H17R 4279   4.944   3.665  12.414
   33SAPE  H17S 4280   4.898   3.836  12.393
   33SAPE  C218 4281   4.841   3.706  12.228
   33SAPE  H18R 4282   4.792   3.608  12.212
   33SAPE  H18S 4283   4.941   3.699  12.180
   33SAPE  C219 4284   4.762   3.816  12.154
   33SAPE  H19R 4285   4.664   3.832  12.205
   33SAPE  H19S 4286   4.741   3.779  12.051
   33SAPE  C220 4287   4.836   3.950  12.143
   33SAPE  H20R 4288   4.938   3.935  12.102
   33SAPE  H20S 4289   4.844   4.000  12.242
   33SAPE  H20T 4290   4.782   4.016  12.073
   33SAPE   C33 4291   5.285   3.508  13.424
   33SAPE   H3X 4292   5.321   3.605  13.381
   33SAPE   H3Y 4293   5.175   3.516  13.436
   33SAPE   C34 4294   5.317   3.399  13.324
   33SAPE   H4X 4295   5.306   3.302  13.377
   33SAPE   H4Y 4296   5.423   3.407  13.293
   33SAPE   C35 4297   5.224   3.407  13.203
   33SAPE   H5X 4298   5.119   3.399  13.238
   33SAPE   H5Y 4299   5.243   3.322  13.134
   33SAPE   C36 4300   5.240   3.538  13.124
   33SAPE   H6X 4301   5.215   3.626  13.187
   33SAPE   H6Y 4302   5.166   3.536  13.042
   33SAPE   C37 4303   5.380   3.554  13.065
   33SAPE   H7X 4304   5.429   3.454  13.060
   33SAPE   H7Y 4305   5.442   3.618  13.132
   33SAPE   C38 4306   5.378   3.613  12.923
   33SAPE   H8X 4307   5.482   3.640  12.895
   33SAPE   H8Y 4308   5.318   3.707  12.922
   33SAPE   C39 4309   5.322   3.515  12.820
   33SAPE   H9X 4310   5.211   3.508  12.832
   33SAPE   H9Y 4311   5.363   3.413  12.839
   33SAPE  C310 4312   5.353   3.553  12.675
   33SAPE  H10X 4313   5.463   3.545  12.658
   33SAPE  H10Y 4314   5.323   3.659  12.657
   33SAPE  C311 4315   5.278   3.462  12.578
   33SAPE  H11X 4316   5.169   3.479  12.591
   33SAPE  H11Y 4317   5.299   3.355  12.605
   33SAPE  C312 4318   5.315   3.483  12.431
   33SAPE  H12X 4319   5.418   3.445  12.415
   33SAPE  H12Y 4320   5.314   3.592  12.406
   33SAPE  C313 4321   5.218   3.409  12.339
   33SAPE  H13X 4322   5.124   3.469  12.329
   33SAPE  H13Y 4323   5.190   3.312  12.385
   33SAPE  C314 4324   5.276   3.382  12.200
   33SAPE  H14X 4325   5.374   3.332  12.208
   33SAPE  H14Y 4326   5.298   3.478  12.149
   33SAPE  C315 4327   5.182   3.297  12.114
   33SAPE  H15X 4328   5.085   3.351  12.110
   33SAPE  H15Y 4329   5.164   3.199  12.163
   33SAPE  C316 4330   5.238   3.276  11.973
   33SAPE  H16X 4331   5.325   3.207  11.975
   33SAPE  H16Y 4332   5.278   3.373  11.936
   33SAPE  C317 4333   5.137   3.222  11.871
   33SAPE  H17X 4334   5.124   3.113  11.887
   33SAPE  H17Y 4335   5.180   3.237  11.770
   33SAPE  C318 4336   5.000   3.288  11.872
   33SAPE  H18X 4337   4.951   3.276  11.773
   33SAPE  H18Y 4338   5.008   3.397  11.894
   33SAPE  H18Z 4339   4.936   3.243  11.951
   34SAPE     N 4340   1.116   3.365  10.152
   34SAPE   HN1 4341   1.027   3.402  10.113
   34SAPE   HN2 4342   1.155   3.297  10.082
   34SAPE   HN3 4343   1.103   3.322  10.246
   34SAPE   C12 4344   1.220   3.473  10.150
   34SAPE  H12A 4345   1.311   3.434  10.200
   34SAPE  H12B 4346   1.182   3.563  10.201
   34SAPE   C11 4347   1.249   3.497  10.002
   34SAPE  H11A 4348   1.338   3.565   9.990
   34SAPE  H11B 4349   1.163   3.550   9.955
   34SAPE     P 4350   1.409   3.318   9.892
   34SAPE   O13 4351   1.404   3.172   9.914
   34SAPE   O14 4352   1.439   3.368   9.756
   34SAPE   O12 4353   1.266   3.371   9.937
   34SAPE   O11 4354   1.503   3.386  10.000
   34SAPE    C1 4355   1.625   3.323  10.038
   34SAPE    HA 4356   1.652   3.236   9.974
   34SAPE    HB 4357   1.708   3.396  10.026
   34SAPE    C2 4358   1.622   3.273  10.186
   34SAPE    HS 4359   1.716   3.215  10.204
   34SAPE   O21 4360   1.503   3.195  10.208
   34SAPE   C21 4361   1.519   3.067  10.183
   34SAPE   O22 4362   1.624   3.009  10.158
   34SAPE   C22 4363   1.384   2.996  10.188
   34SAPE   H2R 4364   1.302   3.070  10.193
   34SAPE   H2S 4365   1.376   2.943  10.090
   34SAPE    C3 4366   1.624   3.389  10.289
   34SAPE    HX 4367   1.558   3.470  10.250
   34SAPE    HY 4368   1.726   3.432  10.294
   34SAPE   O31 4369   1.578   3.352  10.422
   34SAPE   C31 4370   1.660   3.269  10.488
   34SAPE   O32 4371   1.753   3.207  10.443
   34SAPE   C32 4372   1.627   3.275  10.636
   34SAPE   H2X 4373   1.653   3.177  10.681
   34SAPE   H2Y 4374   1.518   3.292  10.647
   34SAPE   C23 4375   1.380   2.895  10.304
   34SAPE   H3R 4376   1.476   2.838  10.308
   34SAPE   H3S 4377   1.301   2.820  10.285
   34SAPE   C24 4378   1.354   2.965  10.438
   34SAPE   H4R 4379   1.265   3.031  10.427
   34SAPE   H4S 4380   1.441   3.032  10.460
   34SAPE   C25 4381   1.332   2.869  10.552
   34SAPE   H5R 4382   1.301   2.767  10.522
   34SAPE   C26 4383   1.349   2.895  10.683
   34SAPE   H6R 4384   1.331   2.813  10.754
   34SAPE   C27 4385   1.394   3.027  10.743
   34SAPE   H7R 4386   1.350   3.113  10.688
   34SAPE   H7S 4387   1.504   3.033  10.730
   34SAPE   C28 4388   1.364   3.038  10.891
   34SAPE   H8R 4389   1.354   2.941  10.943
   34SAPE   C29 4390   1.353   3.149  10.966
   34SAPE   H9R 4391   1.333   3.137  11.074
   34SAPE  C210 4392   1.369   3.294  10.924
   34SAPE  H10R 4393   1.412   3.301  10.823
   34SAPE  H10S 4394   1.445   3.340  10.992
   34SAPE  C211 4395   1.242   3.376  10.928
   34SAPE  H11R 4396   1.187   3.382  10.833
   34SAPE  C212 4397   1.191   3.441  11.035
   34SAPE  H12R 4398   1.098   3.498  11.023
   34SAPE  C213 4399   1.248   3.446  11.175
   34SAPE  H13R 4400   1.282   3.343  11.202
   34SAPE  H13S 4401   1.167   3.469  11.247
   34SAPE  C214 4402   1.358   3.547  11.196
   34SAPE  H14R 4403   1.350   3.639  11.136
   34SAPE  C215 4404   1.457   3.535  11.286
   34SAPE  H15R 4405   1.531   3.616  11.296
   34SAPE  C216 4406   1.476   3.419  11.381
   34SAPE  H16R 4407   1.564   3.360  11.347
   34SAPE  H16S 4408   1.389   3.350  11.379
   34SAPE  C217 4409   1.497   3.459  11.528
   34SAPE  H17R 4410   1.411   3.519  11.564
   34SAPE  H17S 4411   1.587   3.522  11.537
   34SAPE  C218 4412   1.504   3.337  11.621
   34SAPE  H18R 4413   1.566   3.258  11.573
   34SAPE  H18S 4414   1.400   3.297  11.626
   34SAPE  C219 4415   1.558   3.357  11.764
   34SAPE  H19R 4416   1.669   3.364  11.762
   34SAPE  H19S 4417   1.533   3.263  11.817
   34SAPE  C220 4418   1.501   3.473  11.846
   34SAPE  H20R 4419   1.559   3.566  11.828
   34SAPE  H20S 4420   1.509   3.450  11.955
   34SAPE  H20T 4421   1.394   3.491  11.823
   34SAPE   C33 4422   1.707   3.389  10.704
   34SAPE   H3X 4423   1.665   3.406  10.806
   34SAPE   H3Y 4424   1.691   3.483  10.647
   34SAPE   C34 4425   1.858   3.362  10.716
   34SAPE   H4X 4426   1.905   3.446  10.772
   34SAPE   H4Y 4427   1.905   3.361  10.615
   34SAPE   C35 4428   1.899   3.233  10.789
   34SAPE   H5X 4429   2.008   3.241  10.811
   34SAPE   H5Y 4430   1.886   3.146  10.721
   34SAPE   C36 4431   1.824   3.209  10.921
   34SAPE   H6X 4432   1.735   3.146  10.900
   34SAPE   H6Y 4433   1.789   3.305  10.964
   34SAPE   C37 4434   1.913   3.139  11.024
   34SAPE   H7X 4435   1.984   3.213  11.068
   34SAPE   H7Y 4436   1.973   3.061  10.971
   34SAPE   C38 4437   1.834   3.071  11.137
   34SAPE   H8X 4438   1.902   3.003  11.192
   34SAPE   H8Y 4439   1.753   3.010  11.093
   34SAPE   C39 4440   1.771   3.170  11.235
   34SAPE   H9X 4441   1.700   3.235  11.181
   34SAPE   H9Y 4442   1.854   3.233  11.274
   34SAPE  C310 4443   1.701   3.103  11.354
   34SAPE  H10X 4444   1.692   3.179  11.434
   34SAPE  H10Y 4445   1.765   3.021  11.394
   34SAPE  C311 4446   1.560   3.050  11.321
   34SAPE  H11X 4447   1.570   2.958  11.260
   34SAPE  H11Y 4448   1.508   3.127  11.258
   34SAPE  C312 4449   1.468   3.022  11.442
   34SAPE  H12X 4450   1.381   2.960  11.409
   34SAPE  H12Y 4451   1.425   3.118  11.477
   34SAPE  C313 4452   1.537   2.953  11.560
   34SAPE  H13X 4453   1.631   3.007  11.585
   34SAPE  H13Y 4454   1.563   2.849  11.532
   34SAPE  C314 4455   1.453   2.952  11.690
   34SAPE  H14X 4456   1.362   2.891  11.675
   34SAPE  H14Y 4457   1.421   3.056  11.713
   34SAPE  C315 4458   1.535   2.897  11.807
   34SAPE  H15X 4459   1.633   2.950  11.813
   34SAPE  H15Y 4460   1.559   2.791  11.784
   34SAPE  C316 4461   1.464   2.901  11.944
   34SAPE  H16X 4462   1.510   2.822  12.007
   34SAPE  H16Y 4463   1.357   2.874  11.931
   34SAPE  C317 4464   1.474   3.034  12.023
   34SAPE  H17X 4465   1.437   3.015  12.126
   34SAPE  H17Y 4466   1.403   3.107  11.977
   34SAPE  C318 4467   1.611   3.101  12.032
   34SAPE  H18X 4468   1.650   3.129  11.932
   34SAPE  H18Y 4469   1.684   3.033  12.080
   34SAPE  H18Z 4470   1.606   3.193  12.094
   35SAPE     N 4471   2.589   1.425  10.091
   35SAPE   HN1 4472   2.687   1.399  10.068
   35SAPE   HN2 4473   2.583   1.518  10.137
   35SAPE   HN3 4474   2.553   1.347  10.150
   35SAPE   C12 4475   2.517   1.424   9.959
   35SAPE  H12A 4476   2.556   1.507   9.897
   35SAPE  H12B 4477   2.410   1.439   9.977
   35SAPE   C11 4478   2.550   1.291   9.891
   35SAPE  H11A 4479   2.505   1.291   9.789
   35SAPE  H11B 4480   2.499   1.208   9.946
   35SAPE     P 4481   2.771   1.162   9.957
   35SAPE   O13 4482   2.686   1.044   9.982
   35SAPE   O14 4483   2.900   1.142   9.885
   35SAPE   O12 4484   2.692   1.275   9.882
   35SAPE   O11 4485   2.804   1.233  10.097
   35SAPE    C1 4486   2.942   1.217  10.142
   35SAPE    HA 4487   3.000   1.135  10.091
   35SAPE    HB 4488   2.996   1.313  10.122
   35SAPE    C2 4489   2.958   1.182  10.292
   35SAPE    HS 4490   2.928   1.075  10.306
   35SAPE   O21 4491   2.881   1.274  10.370
   35SAPE   C21 4492   2.773   1.224  10.422
   35SAPE   O22 4493   2.736   1.108  10.418
   35SAPE   C22 4494   2.697   1.339  10.484
   35SAPE   H2R 4495   2.762   1.384  10.562
   35SAPE   H2S 4496   2.680   1.415  10.405
   35SAPE    C3 4497   3.106   1.193  10.338
   35SAPE    HX 4498   3.148   1.282  10.286
   35SAPE    HY 4499   3.162   1.104  10.303
   35SAPE   O31 4500   3.114   1.202  10.483
   35SAPE   C31 4501   3.174   1.310  10.530
   35SAPE   O32 4502   3.236   1.391  10.465
   35SAPE   C32 4503   3.143   1.325  10.678
   35SAPE   H2X 4504   3.138   1.225  10.726
   35SAPE   H2Y 4505   3.043   1.373  10.685
   35SAPE   C23 4506   2.562   1.294  10.541
   35SAPE   H3R 4507   2.576   1.234  10.635
   35SAPE   H3S 4508   2.512   1.225  10.469
   35SAPE   C24 4509   2.469   1.413  10.565
   35SAPE   H4R 4510   2.366   1.372  10.578
   35SAPE   H4S 4511   2.465   1.470  10.469
   35SAPE   C25 4512   2.498   1.508  10.679
   35SAPE   H5R 4513   2.440   1.601  10.669
   35SAPE   C26 4514   2.576   1.499  10.789
   35SAPE   H6R 4515   2.571   1.584  10.858
   35SAPE   C27 4516   2.666   1.389  10.840
   35SAPE   H7R 4517   2.718   1.337  10.757
   35SAPE   H7S 4518   2.604   1.310  10.888
   35SAPE   C28 4519   2.772   1.436  10.937
   35SAPE   H8R 4520   2.874   1.439  10.895
   35SAPE   C29 4521   2.753   1.473  11.065
   35SAPE   H9R 4522   2.840   1.504  11.126
   35SAPE  C210 4523   2.623   1.476  11.142
   35SAPE  H10R 4524   2.536   1.466  11.073
   35SAPE  H10S 4525   2.613   1.575  11.191
   35SAPE  C211 4526   2.616   1.366  11.244
   35SAPE  H11R 4527   2.672   1.274  11.220
   35SAPE  C212 4528   2.543   1.367  11.357
   35SAPE  H12R 4529   2.551   1.281  11.425
   35SAPE  C213 4530   2.453   1.479  11.406
   35SAPE  H13R 4531   2.348   1.452  11.381
   35SAPE  H13S 4532   2.473   1.574  11.352
   35SAPE  C214 4533   2.459   1.507  11.555
   35SAPE  H14R 4534   2.362   1.504  11.606
   35SAPE  C215 4535   2.569   1.533  11.628
   35SAPE  H15R 4536   2.560   1.552  11.736
   35SAPE  C216 4537   2.710   1.537  11.573
   35SAPE  H16R 4538   2.726   1.629  11.513
   35SAPE  H16S 4539   2.730   1.451  11.507
   35SAPE  C217 4540   2.815   1.530  11.684
   35SAPE  H17R 4541   2.913   1.509  11.634
   35SAPE  H17S 4542   2.797   1.444  11.752
   35SAPE  C218 4543   2.827   1.661  11.762
   35SAPE  H18R 4544   2.741   1.675  11.830
   35SAPE  H18S 4545   2.823   1.742  11.687
   35SAPE  C219 4546   2.958   1.669  11.840
   35SAPE  H19R 4547   3.025   1.587  11.807
   35SAPE  H19S 4548   2.929   1.655  11.946
   35SAPE  C220 4549   3.039   1.798  11.831
   35SAPE  H20R 4550   3.058   1.825  11.726
   35SAPE  H20S 4551   3.138   1.788  11.882
   35SAPE  H20T 4552   2.984   1.878  11.883
   35SAPE   C33 4553   3.248   1.414  10.749
   35SAPE   H3X 4554   3.274   1.502  10.686
   35SAPE   H3Y 4555   3.340   1.354  10.767
   35SAPE   C34 4556   3.199   1.466  10.884
   35SAPE   H4X 4557   3.110   1.531  10.870
   35SAPE   H4Y 4558   3.280   1.529  10.928
   35SAPE   C35 4559   3.166   1.353  10.980
   35SAPE   H5X 4560   3.256   1.287  10.992
   35SAPE   H5Y 4561   3.084   1.291  10.938
   35SAPE   C36 4562   3.125   1.408  11.115
   35SAPE   H6X 4563   3.039   1.476  11.101
   35SAPE   H6Y 4564   3.210   1.468  11.155
   35SAPE   C37 4565   3.091   1.302  11.220
   35SAPE   H7X 4566   3.056   1.357  11.311
   35SAPE   H7Y 4567   3.184   1.247  11.247
   35SAPE   C38 4568   2.983   1.202  11.177
   35SAPE   H8X 4569   3.014   1.151  11.083
   35SAPE   H8Y 4570   2.889   1.257  11.155
   35SAPE   C39 4571   2.955   1.091  11.279
   35SAPE   H9X 4572   3.039   1.018  11.276
   35SAPE   H9Y 4573   2.862   1.036  11.250
   35SAPE  C310 4574   2.945   1.138  11.424
   35SAPE  H10X 4575   2.854   1.200  11.438
   35SAPE  H10Y 4576   3.033   1.200  11.451
   35SAPE  C311 4577   2.945   1.019  11.519
   35SAPE  H11X 4578   3.037   0.958  11.503
   35SAPE  H11Y 4579   2.857   0.955  11.500
   35SAPE  C312 4580   2.943   1.068  11.663
   35SAPE  H12X 4581   2.864   1.145  11.674
   35SAPE  H12Y 4582   3.041   1.116  11.688
   35SAPE  C313 4583   2.920   0.952  11.759
   35SAPE  H13X 4584   3.002   0.879  11.743
   35SAPE  H13Y 4585   2.824   0.900  11.734
   35SAPE  C314 4586   2.921   0.995  11.905
   35SAPE  H14X 4587   3.017   1.048  11.925
   35SAPE  H14Y 4588   2.918   0.905  11.969
   35SAPE  C315 4589   2.802   1.085  11.941
   35SAPE  H15X 4590   2.792   1.171  11.872
   35SAPE  H15Y 4591   2.821   1.128  12.041
   35SAPE  C316 4592   2.673   1.006  11.951
   35SAPE  H16X 4593   2.691   0.921  12.022
   35SAPE  H16Y 4594   2.646   0.962  11.852
   35SAPE  C317 4595   2.557   1.089  12.003
   35SAPE  H17X 4596   2.507   1.141  11.919
   35SAPE  H17Y 4597   2.595   1.168  12.071
   35SAPE  C318 4598   2.458   1.002  12.080
   35SAPE  H18X 4599   2.506   0.960  12.171
   35SAPE  H18Y 4600   2.427   0.918  12.015
   35SAPE  H18Z 4601   2.368   1.060  12.110
   36SAPE     N 4602   3.264   3.663   9.759
   36SAPE   HN1 4603   3.337   3.622   9.698
   36SAPE   HN2 4604   3.223   3.593   9.827
   36SAPE   HN3 4605   3.182   3.686   9.697
   36SAPE   C12 4606   3.292   3.793   9.827
   36SAPE  H12A 4607   3.297   3.873   9.749
   36SAPE  H12B 4608   3.390   3.787   9.878
   36SAPE   C11 4609   3.179   3.824   9.926
   36SAPE  H11A 4610   3.191   3.761  10.017
   36SAPE  H11B 4611   3.079   3.802   9.881
   36SAPE     P 4612   3.087   4.028  10.059
   36SAPE   O13 4613   3.096   3.953  10.187
   36SAPE   O14 4614   3.113   4.172  10.062
   36SAPE   O12 4615   3.188   3.962   9.956
   36SAPE   O11 4616   2.948   4.000   9.989
   36SAPE    C1 4617   2.838   3.937  10.055
   36SAPE    HA 4618   2.781   3.879   9.978
   36SAPE    HB 4619   2.871   3.864  10.133
   36SAPE    C2 4620   2.740   4.040  10.119
   36SAPE    HS 4621   2.718   4.116  10.040
   36SAPE   O21 4622   2.802   4.097  10.233
   36SAPE   C21 4623   2.799   4.227  10.250
   36SAPE   O22 4624   2.749   4.309  10.174
   36SAPE   C22 4625   2.852   4.252  10.389
   36SAPE   H2R 4626   2.782   4.201  10.458
   36SAPE   H2S 4627   2.952   4.203  10.394
   36SAPE    C3 4628   2.607   3.973  10.164
   36SAPE    HX 4629   2.568   3.908  10.083
   36SAPE    HY 4630   2.529   4.051  10.180
   36SAPE   O31 4631   2.628   3.889  10.279
   36SAPE   C31 4632   2.606   3.950  10.395
   36SAPE   O32 4633   2.549   4.056  10.412
   36SAPE   C32 4634   2.671   3.869  10.506
   36SAPE   H2X 4635   2.748   3.802  10.462
   36SAPE   H2Y 4636   2.593   3.806  10.553
   36SAPE   C23 4637   2.861   4.400  10.434
   36SAPE   H3R 4638   2.770   4.456  10.406
   36SAPE   H3S 4639   2.945   4.451  10.382
   36SAPE   C24 4640   2.877   4.406  10.587
   36SAPE   H4R 4641   2.788   4.359  10.635
   36SAPE   H4S 4642   2.880   4.512  10.618
   36SAPE   C25 4643   3.005   4.334  10.619
   36SAPE   H5R 4644   3.082   4.350  10.543
   36SAPE   C26 4645   3.032   4.249  10.718
   36SAPE   H6R 4646   3.129   4.196  10.717
   36SAPE   C27 4647   2.940   4.203  10.827
   36SAPE   H7R 4648   2.941   4.093  10.828
   36SAPE   H7S 4649   2.836   4.232  10.802
   36SAPE   C28 4650   2.984   4.248  10.964
   36SAPE   H8R 4651   3.091   4.261  10.980
   36SAPE   C29 4652   2.901   4.273  11.065
   36SAPE   H9R 4653   2.942   4.307  11.162
   36SAPE  C210 4654   2.751   4.261  11.056
   36SAPE  H10R 4655   2.718   4.276  10.952
   36SAPE  H10S 4656   2.704   4.344  11.113
   36SAPE  C211 4657   2.699   4.128  11.103
   36SAPE  H11R 4658   2.675   4.054  11.026
   36SAPE  C212 4659   2.681   4.098  11.233
   36SAPE  H12R 4660   2.641   4.000  11.262
   36SAPE  C213 4661   2.713   4.197  11.341
   36SAPE  H13R 4662   2.652   4.290  11.329
   36SAPE  H13S 4663   2.818   4.231  11.332
   36SAPE  C214 4664   2.687   4.143  11.479
   36SAPE  H14R 4665   2.581   4.133  11.505
   36SAPE  C215 4666   2.781   4.103  11.566
   36SAPE  H15R 4667   2.750   4.068  11.666
   36SAPE  C216 4668   2.929   4.106  11.540
   36SAPE  H16R 4669   2.951   4.078  11.434
   36SAPE  H16S 4670   2.979   4.031  11.605
   36SAPE  C217 4671   2.993   4.241  11.566
   36SAPE  H17R 4672   2.969   4.273  11.669
   36SAPE  H17S 4673   2.951   4.318  11.496
   36SAPE  C218 4674   3.145   4.236  11.550
   36SAPE  H18R 4675   3.181   4.341  11.546
   36SAPE  H18S 4676   3.172   4.186  11.455
   36SAPE  C219 4677   3.215   4.168  11.669
   36SAPE  H19R 4678   3.264   4.073  11.636
   36SAPE  H19S 4679   3.139   4.141  11.745
   36SAPE  C220 4680   3.318   4.259  11.735
   36SAPE  H20R 4681   3.272   4.357  11.760
   36SAPE  H20S 4682   3.402   4.277  11.665
   36SAPE  H20T 4683   3.357   4.214  11.829
   36SAPE   C33 4684   2.736   3.963  10.609
   36SAPE   H3X 4685   2.658   4.031  10.651
   36SAPE   H3Y 4686   2.813   4.026  10.559
   36SAPE   C34 4687   2.805   3.887  10.722
   36SAPE   H4X 4688   2.755   3.788  10.735
   36SAPE   H4Y 4689   2.791   3.943  10.817
   36SAPE   C35 4690   2.955   3.864  10.697
   36SAPE   H5X 4691   3.008   3.961  10.680
   36SAPE   H5Y 4692   2.965   3.807  10.601
   36SAPE   C36 4693   3.023   3.783  10.807
   36SAPE   H6X 4694   3.123   3.750  10.772
   36SAPE   H6Y 4695   2.960   3.693  10.821
   36SAPE   C37 4696   3.042   3.850  10.945
   36SAPE   H7X 4697   2.971   3.934  10.960
   36SAPE   H7Y 4698   3.145   3.889  10.954
   36SAPE   C38 4699   3.016   3.746  11.056
   36SAPE   H8X 4700   3.066   3.652  11.024
   36SAPE   H8Y 4701   2.907   3.726  11.063
   36SAPE   C39 4702   3.072   3.781  11.194
   36SAPE   H9X 4703   3.150   3.860  11.189
   36SAPE   H9Y 4704   3.120   3.688  11.232
   36SAPE  C310 4705   2.967   3.818  11.299
   36SAPE  H10X 4706   2.880   3.750  11.286
   36SAPE  H10Y 4707   2.929   3.921  11.283
   36SAPE  C311 4708   3.024   3.798  11.440
   36SAPE  H11X 4709   3.077   3.890  11.474
   36SAPE  H11Y 4710   3.100   3.717  11.437
   36SAPE  C312 4711   2.916   3.758  11.540
   36SAPE  H12X 4712   2.849   3.683  11.493
   36SAPE  H12Y 4713   2.850   3.845  11.558
   36SAPE  C313 4714   2.964   3.703  11.676
   36SAPE  H13X 4715   2.918   3.603  11.694
   36SAPE  H13Y 4716   2.919   3.772  11.749
   36SAPE  C314 4717   3.115   3.697  11.703
   36SAPE  H14X 4718   3.157   3.800  11.694
   36SAPE  H14Y 4719   3.166   3.634  11.625
   36SAPE  C315 4720   3.151   3.637  11.841
   36SAPE  H15X 4721   3.168   3.528  11.825
   36SAPE  H15Y 4722   3.066   3.640  11.912
   36SAPE  C316 4723   3.276   3.699  11.907
   36SAPE  H16X 4724   3.330   3.761  11.833
   36SAPE  H16Y 4725   3.341   3.615  11.939
   36SAPE  C317 4726   3.254   3.784  12.032
   36SAPE  H17X 4727   3.181   3.734  12.099
   36SAPE  H17Y 4728   3.209   3.881  12.002
   36SAPE  C318 4729   3.383   3.813  12.110
   36SAPE  H18X 4730   3.359   3.865  12.205
   36SAPE  H18Y 4731   3.450   3.879  12.050
   36SAPE  H18Z 4732   3.438   3.719  12.132
   37SAPE     N 4733   4.372   2.713   9.906
   37SAPE   HN1 4734   4.271   2.701   9.931
   37SAPE   HN2 4735   4.386   2.687   9.806
   37SAPE   HN3 4736   4.434   2.650   9.963
   37SAPE   C12 4737   4.423   2.851   9.938
   37SAPE  H12A 4738   4.533   2.847   9.947
   37SAPE  H12B 4739   4.382   2.880  10.037
   37SAPE   C11 4740   4.384   2.953   9.828
   37SAPE  H11A 4741   4.441   2.931   9.735
   37SAPE  H11B 4742   4.420   3.053   9.861
   37SAPE     P 4743   4.135   2.973   9.912
   37SAPE   O13 4744   4.019   3.051   9.860
   37SAPE   O14 4745   4.104   2.838   9.961
   37SAPE   O12 4746   4.244   2.955   9.797
   37SAPE   O11 4747   4.213   3.058  10.021
   37SAPE    C1 4748   4.229   3.197   9.991
   37SAPE    HA 4749   4.294   3.212   9.902
   37SAPE    HB 4750   4.131   3.246   9.971
   37SAPE    C2 4751   4.296   3.275  10.107
   37SAPE    HS 4752   4.357   3.357  10.062
   37SAPE   O21 4753   4.377   3.192  10.192
   37SAPE   C21 4754   4.500   3.162  10.150
   37SAPE   O22 4755   4.536   3.179  10.035
   37SAPE   C22 4756   4.582   3.102  10.275
   37SAPE   H2R 4757   4.504   3.056  10.335
   37SAPE   H2S 4758   4.635   3.017  10.226
   37SAPE    C3 4759   4.186   3.343  10.193
   37SAPE    HX 4760   4.126   3.411  10.129
   37SAPE    HY 4761   4.238   3.406  10.269
   37SAPE   O31 4762   4.099   3.243  10.250
   37SAPE   C31 4763   4.069   3.258  10.379
   37SAPE   O32 4764   4.090   3.359  10.443
   37SAPE   C32 4765   4.027   3.119  10.431
   37SAPE   H2X 4766   4.114   3.051  10.420
   37SAPE   H2Y 4767   3.947   3.084  10.363
   37SAPE   C23 4768   4.699   3.177  10.363
   37SAPE   H3R 4769   4.734   3.265  10.312
   37SAPE   H3S 4770   4.781   3.102  10.354
   37SAPE   C24 4771   4.723   3.217  10.520
   37SAPE   H4R 4772   4.835   3.223  10.512
   37SAPE   H4S 4773   4.711   3.129  10.576
   37SAPE   C25 4774   4.702   3.338  10.614
   37SAPE   H5R 4775   4.737   3.428  10.563
   37SAPE   C26 4776   4.651   3.360  10.741
   37SAPE   H6R 4777   4.662   3.463  10.776
   37SAPE   C27 4778   4.591   3.277  10.857
   37SAPE   H7R 4779   4.626   3.174  10.858
   37SAPE   H7S 4780   4.482   3.265  10.838
   37SAPE   C28 4781   4.605   3.320  11.001
   37SAPE   H8R 4782   4.706   3.302  11.040
   37SAPE   C29 4783   4.511   3.363  11.089
   37SAPE   H9R 4784   4.547   3.387  11.190
   37SAPE  C210 4785   4.361   3.385  11.079
   37SAPE  H10R 4786   4.338   3.490  11.054
   37SAPE  H10S 4787   4.322   3.379  11.183
   37SAPE  C211 4788   4.272   3.302  10.991
   37SAPE  H11R 4789   4.265   3.332  10.885
   37SAPE  C212 4790   4.202   3.196  11.034
   37SAPE  H12R 4791   4.131   3.149  10.964
   37SAPE  C213 4792   4.203   3.146  11.176
   37SAPE  H13R 4793   4.174   3.229  11.244
   37SAPE  H13S 4794   4.309   3.121  11.201
   37SAPE  C214 4795   4.114   3.028  11.206
   37SAPE  H14R 4796   4.037   3.003  11.131
   37SAPE  C215 4797   4.125   2.952  11.317
   37SAPE  H15R 4798   4.056   2.867  11.329
   37SAPE  C216 4799   4.226   2.971  11.427
   37SAPE  H16R 4800   4.314   3.029  11.393
   37SAPE  H16S 4801   4.265   2.871  11.456
   37SAPE  C217 4802   4.176   3.039  11.556
   37SAPE  H17R 4803   4.218   2.982  11.642
   37SAPE  H17S 4804   4.065   3.030  11.565
   37SAPE  C218 4805   4.226   3.184  11.572
   37SAPE  H18R 4806   4.164   3.251  11.508
   37SAPE  H18S 4807   4.331   3.193  11.536
   37SAPE  C219 4808   4.220   3.232  11.718
   37SAPE  H19R 4809   4.289   3.173  11.783
   37SAPE  H19S 4810   4.119   3.210  11.757
   37SAPE  C220 4811   4.246   3.381  11.738
   37SAPE  H20R 4812   4.152   3.439  11.738
   37SAPE  H20S 4813   4.312   3.422  11.658
   37SAPE  H20T 4814   4.292   3.399  11.837
   37SAPE   C33 4815   3.968   3.113  10.575
   37SAPE   H3X 4816   3.890   3.034  10.577
   37SAPE   H3Y 4817   3.915   3.209  10.594
   37SAPE   C34 4818   4.065   3.088  10.691
   37SAPE   H4X 4819   4.007   3.110  10.784
   37SAPE   H4Y 4820   4.147   3.163  10.687
   37SAPE   C35 4821   4.121   2.945  10.708
   37SAPE   H5X 4822   4.187   2.921  10.623
   37SAPE   H5Y 4823   4.036   2.872  10.708
   37SAPE   C36 4824   4.197   2.935  10.842
   37SAPE   H6X 4825   4.123   2.948  10.924
   37SAPE   H6Y 4826   4.268   3.021  10.844
   37SAPE   C37 4827   4.280   2.811  10.874
   37SAPE   H7X 4828   4.351   2.790  10.791
   37SAPE   H7Y 4829   4.214   2.722  10.883
   37SAPE   C38 4830   4.360   2.826  11.007
   37SAPE   H8X 4831   4.407   2.728  11.025
   37SAPE   H8Y 4832   4.294   2.851  11.092
   37SAPE   C39 4833   4.478   2.924  10.998
   37SAPE   H9X 4834   4.445   3.028  10.977
   37SAPE   H9Y 4835   4.530   2.880  10.912
   37SAPE  C310 4836   4.595   2.920  11.097
   37SAPE  H10X 4837   4.676   2.985  11.057
   37SAPE  H10Y 4838   4.634   2.816  11.099
   37SAPE  C311 4839   4.566   2.964  11.240
   37SAPE  H11X 4840   4.478   2.907  11.275
   37SAPE  H11Y 4841   4.540   3.072  11.246
   37SAPE  C312 4842   4.688   2.932  11.327
   37SAPE  H12X 4843   4.759   3.018  11.332
   37SAPE  H12Y 4844   4.743   2.846  11.283
   37SAPE  C313 4845   4.644   2.888  11.466
   37SAPE  H13X 4846   4.727   2.836  11.518
   37SAPE  H13Y 4847   4.561   2.817  11.451
   37SAPE  C314 4848   4.592   3.002  11.553
   37SAPE  H14X 4849   4.505   3.052  11.506
   37SAPE  H14Y 4850   4.673   3.077  11.562
   37SAPE  C315 4851   4.553   2.947  11.691
   37SAPE  H15X 4852   4.627   2.868  11.718
   37SAPE  H15Y 4853   4.453   2.899  11.685
   37SAPE  C316 4854   4.554   3.053  11.800
   37SAPE  H16X 4855   4.522   3.008  11.897
   37SAPE  H16Y 4856   4.479   3.129  11.772
   37SAPE  C317 4857   4.689   3.124  11.819
   37SAPE  H17X 4858   4.768   3.076  11.757
   37SAPE  H17Y 4859   4.721   3.110  11.924
   37SAPE  C318 4860   4.681   3.274  11.787
   37SAPE  H18X 4861   4.729   3.297  11.690
   37SAPE  H18Y 4862   4.731   3.333  11.867
   37SAPE  H18Z 4863   4.576   3.308  11.783
   38SAPE     N 4864   0.479   2.482   9.762
   38SAPE   HN1 4865   0.459   2.491   9.660
   38SAPE   HN2 4866   0.578   2.455   9.780
   38SAPE   HN3 4867   0.418   2.412   9.809
   38SAPE   C12 4868   0.440   2.604   9.839
   38SAPE  H12A 4869   0.346   2.643   9.795
   38SAPE  H12B 4870   0.520   2.680   9.832
   38SAPE   C11 4871   0.416   2.558   9.984
   38SAPE  H11A 4872   0.360   2.634  10.043
   38SAPE  H11B 4873   0.514   2.545  10.033
   38SAPE     P 4874   0.191   2.424   9.988
   38SAPE   O13 4875   0.140   2.548   9.924
   38SAPE   O14 4876   0.151   2.297   9.923
   38SAPE   O12 4877   0.348   2.432   9.981
   38SAPE   O11 4878   0.175   2.420  10.146
   38SAPE    C1 4879   0.206   2.303  10.223
   38SAPE    HA 4880   0.120   2.232  10.216
   38SAPE    HB 4881   0.295   2.247  10.186
   38SAPE    C2 4882   0.228   2.337  10.373
   38SAPE    HS 4883   0.338   2.341  10.391
   38SAPE   O21 4884   0.160   2.240  10.459
   38SAPE   C21 4885   0.239   2.150  10.520
   38SAPE   O22 4886   0.360   2.143  10.507
   38SAPE   C22 4887   0.161   2.061  10.618
   38SAPE   H2R 4888   0.053   2.075  10.605
   38SAPE   H2S 4889   0.183   1.956  10.589
   38SAPE    C3 4890   0.177   2.483  10.402
   38SAPE    HX 4891   0.082   2.500  10.347
   38SAPE    HY 4892   0.252   2.553  10.358
   38SAPE   O31 4893   0.152   2.509  10.541
   38SAPE   C31 4894   0.201   2.619  10.597
   38SAPE   O32 4895   0.271   2.703  10.546
   38SAPE   C32 4896   0.151   2.617  10.743
   38SAPE   H2X 4897   0.164   2.512  10.778
   38SAPE   H2Y 4898   0.042   2.638  10.737
   38SAPE   C23 4899   0.198   2.084  10.766
   38SAPE   H3R 4900   0.194   2.193  10.790
   38SAPE   H3S 4901   0.304   2.052  10.782
   38SAPE   C24 4902   0.105   2.006  10.862
   38SAPE   H4R 4903   0.156   1.992  10.959
   38SAPE   H4S 4904   0.089   1.905  10.819
   38SAPE   C25 4905  -0.025   2.081  10.877
   38SAPE   H5R 4906  -0.048   2.138  10.786
   38SAPE   C26 4907  -0.110   2.095  10.981
   38SAPE   H6R 4908  -0.199   2.158  10.966
   38SAPE   C27 4909  -0.102   2.036  11.120
   38SAPE   H7R 4910  -0.029   1.952  11.121
   38SAPE   H7S 4911  -0.201   1.994  11.144
   38SAPE   C28 4912  -0.076   2.129  11.234
   38SAPE   H8R 4913  -0.166   2.166  11.285
   38SAPE   C29 4914   0.043   2.171  11.278
   38SAPE   H9R 4915   0.046   2.243  11.361
   38SAPE  C210 4916   0.177   2.133  11.222
   38SAPE  H10R 4917   0.170   2.054  11.145
   38SAPE  H10S 4918   0.244   2.092  11.301
   38SAPE  C211 4919   0.229   2.261  11.163
   38SAPE  H11R 4920   0.189   2.286  11.063
   38SAPE  C212 4921   0.311   2.348  11.224
   38SAPE  H12R 4922   0.333   2.441  11.170
   38SAPE  C213 4923   0.368   2.335  11.363
   38SAPE  H13R 4924   0.477   2.355  11.363
   38SAPE  H13S 4925   0.362   2.230  11.401
   38SAPE  C214 4926   0.301   2.432  11.456
   38SAPE  H14R 4927   0.320   2.538  11.435
   38SAPE  C215 4928   0.223   2.399  11.560
   38SAPE  H15R 4929   0.182   2.479  11.624
   38SAPE  C216 4930   0.188   2.259  11.603
   38SAPE  H16R 4931   0.178   2.189  11.517
   38SAPE  H16S 4932   0.089   2.260  11.654
   38SAPE  C217 4933   0.293   2.197  11.696
   38SAPE  H17R 4934   0.370   2.143  11.636
   38SAPE  H17S 4935   0.237   2.123  11.757
   38SAPE  C218 4936   0.365   2.291  11.793
   38SAPE  H18R 4937   0.423   2.369  11.739
   38SAPE  H18S 4938   0.441   2.231  11.849
   38SAPE  C219 4939   0.270   2.354  11.893
   38SAPE  H19R 4940   0.201   2.277  11.934
   38SAPE  H19S 4941   0.208   2.431  11.842
   38SAPE  C220 4942   0.345   2.419  12.008
   38SAPE  H20R 4943   0.448   2.448  11.978
   38SAPE  H20S 4944   0.353   2.351  12.095
   38SAPE  H20T 4945   0.291   2.511  12.039
   38SAPE   C33 4946   0.216   2.712  10.848
   38SAPE   H3X 4947   0.193   2.817  10.821
   38SAPE   H3Y 4948   0.326   2.699  10.848
   38SAPE   C34 4949   0.160   2.678  10.987
   38SAPE   H4X 4950   0.182   2.570  11.008
   38SAPE   H4Y 4951   0.049   2.688  10.979
   38SAPE   C35 4952   0.199   2.758  11.113
   38SAPE   H5X 4953   0.179   2.866  11.099
   38SAPE   H5Y 4954   0.307   2.746  11.137
   38SAPE   C36 4955   0.114   2.706  11.231
   38SAPE   H6X 4956   0.144   2.600  11.250
   38SAPE   H6Y 4957   0.008   2.707  11.198
   38SAPE   C37 4958   0.120   2.783  11.363
   38SAPE   H7X 4959   0.063   2.878  11.352
   38SAPE   H7Y 4960   0.225   2.809  11.385
   38SAPE   C38 4961   0.063   2.703  11.482
   38SAPE   H8X 4962   0.142   2.707  11.560
   38SAPE   H8Y 4963   0.052   2.596  11.456
   38SAPE   C39 4964  -0.071   2.754  11.540
   38SAPE   H9X 4965  -0.155   2.722  11.475
   38SAPE   H9Y 4966  -0.073   2.865  11.538
   38SAPE  C310 4967  -0.097   2.712  11.686
   38SAPE  H10X 4968  -0.117   2.602  11.693
   38SAPE  H10Y 4969  -0.189   2.764  11.722
   38SAPE  C311 4970   0.021   2.746  11.778
   38SAPE  H11X 4971   0.085   2.819  11.725
   38SAPE  H11Y 4972   0.083   2.656  11.794
   38SAPE  C312 4973  -0.013   2.816  11.911
   38SAPE  H12X 4974  -0.083   2.900  11.890
   38SAPE  H12Y 4975   0.081   2.860  11.951
   38SAPE  C313 4976  -0.072   2.726  12.019
   38SAPE  H13X 4977  -0.165   2.681  11.980
   38SAPE  H13Y 4978  -0.099   2.788  12.108
   38SAPE  C314 4979   0.020   2.612  12.065
   38SAPE  H14X 4980   0.098   2.650  12.135
   38SAPE  H14Y 4981   0.073   2.568  11.978
   38SAPE  C315 4982  -0.062   2.501  12.129
   38SAPE  H15X 4983  -0.003   2.407  12.133
   38SAPE  H15Y 4984  -0.148   2.478  12.061
   38SAPE  C316 4985  -0.119   2.540  12.267
   38SAPE  H16X 4986  -0.201   2.471  12.294
   38SAPE  H16Y 4987  -0.161   2.643  12.263
   38SAPE  C317 4988  -0.018   2.530  12.381
   38SAPE  H17X 4989  -0.071   2.547  12.477
   38SAPE  H17Y 4990   0.055   2.611  12.368
   38SAPE  C318 4991   0.051   2.394  12.385
   38SAPE  H18X 4992   0.110   2.380  12.477
   38SAPE  H18Y 4993   0.121   2.381  12.299
   38SAPE  H18Z 4994  -0.025   2.314  12.379
   39SAPE     N 4995   4.011   4.442  10.061
   39SAPE   HN1 4996   4.087   4.375  10.088
   39SAPE   HN2 4997   3.922   4.388  10.073
   39SAPE   HN3 4998   4.027   4.465   9.961
   39SAPE   C12 4999   4.019   4.569  10.143
   39SAPE  H12A 5000   4.041   4.541  10.248
   39SAPE  H12B 5001   3.919   4.618  10.139
   39SAPE   C11 5002   4.128   4.667  10.093
   39SAPE  H11A 5003   4.227   4.618  10.109
   39SAPE  H11B 5004   4.128   4.758  10.157
   39SAPE     P 5005   4.225   4.730   9.852
   39SAPE   O13 5006   4.178   4.668   9.726
   39SAPE   O14 5007   4.250   4.874   9.849
   39SAPE   O12 5008   4.108   4.706   9.957
   39SAPE   O11 5009   4.345   4.646   9.910
   39SAPE    C1 5010   4.480   4.688   9.903
   39SAPE    HA 5011   4.539   4.611   9.848
   39SAPE    HB 5012   4.492   4.784   9.848
   39SAPE    C2 5013   4.540   4.709  10.044
   39SAPE    HS 5014   4.647   4.738  10.032
   39SAPE   O21 5015   4.536   4.595  10.130
   39SAPE   C21 5016   4.519   4.473  10.090
   39SAPE   O22 5017   4.558   4.420   9.988
   39SAPE   C22 5018   4.444   4.405  10.201
   39SAPE   H2R 5019   4.508   4.326  10.242
   39SAPE   H2S 5020   4.423   4.478  10.283
   39SAPE    C3 5021   4.468   4.825  10.119
   39SAPE    HX 5022   4.367   4.790  10.152
   39SAPE    HY 5023   4.449   4.907  10.048
   39SAPE   O31 5024   4.552   4.872  10.227
   39SAPE   C31 5025   4.521   4.823  10.347
   39SAPE   O32 5026   4.416   4.770  10.377
   39SAPE   C32 5027   4.652   4.810  10.427
   39SAPE   H2X 5028   4.737   4.842  10.365
   39SAPE   H2Y 5029   4.661   4.700  10.436
   39SAPE   C23 5030   4.311   4.343  10.156
   39SAPE   H3R 5031   4.331   4.249  10.102
   39SAPE   H3S 5032   4.263   4.414  10.086
   39SAPE   C24 5033   4.220   4.319  10.277
   39SAPE   H4R 5034   4.118   4.294  10.242
   39SAPE   H4S 5035   4.215   4.413  10.337
   39SAPE   C25 5036   4.268   4.202  10.358
   39SAPE   H5R 5037   4.254   4.104  10.308
   39SAPE   C26 5038   4.317   4.206  10.483
   39SAPE   H6R 5039   4.345   4.111  10.530
   39SAPE   C27 5040   4.337   4.326  10.572
   39SAPE   H7R 5041   4.387   4.410  10.517
   39SAPE   H7S 5042   4.406   4.297  10.654
   39SAPE   C28 5043   4.212   4.377  10.638
   39SAPE   H8R 5044   4.122   4.314  10.631
   39SAPE   C29 5045   4.205   4.487  10.715
   39SAPE   H9R 5046   4.108   4.514  10.760
   39SAPE  C210 5047   4.319   4.578  10.749
   39SAPE  H10R 5048   4.320   4.662  10.676
   39SAPE  H10S 5049   4.418   4.527  10.739
   39SAPE  C211 5050   4.302   4.632  10.889
   39SAPE  H11R 5051   4.269   4.736  10.893
   39SAPE  C212 5052   4.329   4.568  11.005
   39SAPE  H12R 5053   4.315   4.622  11.099
   39SAPE  C213 5054   4.382   4.427  11.019
   39SAPE  H13R 5055   4.410   4.386  10.920
   39SAPE  H13S 5056   4.304   4.358  11.055
   39SAPE  C214 5057   4.501   4.414  11.112
   39SAPE  H14R 5058   4.596   4.414  11.057
   39SAPE  C215 5059   4.506   4.413  11.246
   39SAPE  H15R 5060   4.604   4.396  11.293
   39SAPE  C216 5061   4.395   4.424  11.346
   39SAPE  H16R 5062   4.296   4.410  11.297
   39SAPE  H16S 5063   4.396   4.527  11.388
   39SAPE  C217 5064   4.407   4.323  11.461
   39SAPE  H17R 5065   4.512   4.315  11.497
   39SAPE  H17S 5066   4.379   4.222  11.423
   39SAPE  C218 5067   4.318   4.356  11.583
   39SAPE  H18R 5068   4.339   4.281  11.662
   39SAPE  H18S 5069   4.213   4.344  11.552
   39SAPE  C219 5070   4.335   4.497  11.644
   39SAPE  H19R 5071   4.263   4.567  11.595
   39SAPE  H19S 5072   4.436   4.536  11.620
   39SAPE  C220 5073   4.318   4.504  11.797
   39SAPE  H20R 5074   4.355   4.602  11.835
   39SAPE  H20S 5075   4.376   4.423  11.846
   39SAPE  H20T 5076   4.212   4.494  11.827
   39SAPE   C33 5077   4.660   4.876  10.569
   39SAPE   H3X 5078   4.689   4.982  10.562
   39SAPE   H3Y 5079   4.744   4.830  10.624
   39SAPE   C34 5080   4.534   4.863  10.656
   39SAPE   H4X 5081   4.499   4.758  10.647
   39SAPE   H4Y 5082   4.454   4.927  10.612
   39SAPE   C35 5083   4.550   4.892  10.807
   39SAPE   H5X 5084   4.446   4.892  10.849
   39SAPE   H5Y 5085   4.593   4.992  10.827
   39SAPE   C36 5086   4.629   4.784  10.885
   39SAPE   H6X 5087   4.738   4.800  10.877
   39SAPE   H6Y 5088   4.605   4.686  10.837
   39SAPE   C37 5089   4.590   4.764  11.032
   39SAPE   H7X 5090   4.615   4.659  11.061
   39SAPE   H7Y 5091   4.480   4.777  11.042
   39SAPE   C38 5092   4.658   4.857  11.131
   39SAPE   H8X 5093   4.626   4.959  11.106
   39SAPE   H8Y 5094   4.768   4.851  11.117
   39SAPE   C39 5095   4.626   4.823  11.278
   39SAPE   H9X 5096   4.674   4.897  11.344
   39SAPE   H9Y 5097   4.673   4.725  11.301
   39SAPE  C310 5098   4.476   4.810  11.316
   39SAPE  H10X 5099   4.469   4.791  11.426
   39SAPE  H10Y 5100   4.434   4.721  11.265
   39SAPE  C311 5101   4.390   4.933  11.282
   39SAPE  H11X 5102   4.397   4.950  11.172
   39SAPE  H11Y 5103   4.431   5.024  11.331
   39SAPE  C312 5104   4.241   4.915  11.319
   39SAPE  H12X 5105   4.208   4.815  11.283
   39SAPE  H12Y 5106   4.183   4.991  11.263
   39SAPE  C313 5107   4.206   4.930  11.468
   39SAPE  H13X 5108   4.260   4.854  11.529
   39SAPE  H13Y 5109   4.097   4.909  11.479
   39SAPE  C314 5110   4.232   5.071  11.523
   39SAPE  H14X 5111   4.153   5.100  11.596
   39SAPE  H14Y 5112   4.227   5.142  11.438
   39SAPE  C315 5113   4.369   5.088  11.592
   39SAPE  H15X 5114   4.403   5.192  11.568
   39SAPE  H15Y 5115   4.443   5.018  11.549
   39SAPE  C316 5116   4.367   5.075  11.745
   39SAPE  H16X 5117   4.299   5.152  11.786
   39SAPE  H16Y 5118   4.469   5.096  11.784
   39SAPE  C317 5119   4.324   4.936  11.795
   39SAPE  H17X 5120   4.389   4.860  11.746
   39SAPE  H17Y 5121   4.219   4.917  11.763
   39SAPE  C318 5122   4.336   4.921  11.946
   39SAPE  H18X 5123   4.439   4.944  11.981
   39SAPE  H18Y 5124   4.311   4.817  11.976
   39SAPE  H18Z 5125   4.266   4.990  11.998
   40SAPE     N 5126   0.555   4.910   9.822
   40SAPE   HN1 5127   0.535   4.813   9.785
   40SAPE   HN2 5128   0.547   4.980   9.746
   40SAPE   HN3 5129   0.652   4.910   9.858
   40SAPE   C12 5130   0.462   4.938   9.937
   40SAPE  H12A 5131   0.377   4.997   9.898
   40SAPE  H12B 5132   0.517   4.999  10.012
   40SAPE   C11 5133   0.414   4.809  10.004
   40SAPE  H11A 5134   0.350   4.750   9.934
   40SAPE  H11B 5135   0.350   4.836  10.091
   40SAPE     P 5136   0.578   4.611   9.965
   40SAPE   O13 5137   0.520   4.488  10.019
   40SAPE   O14 5138   0.553   4.641   9.822
   40SAPE   O12 5139   0.528   4.736  10.051
   40SAPE   O11 5140   0.735   4.608   9.987
   40SAPE    C1 5141   0.798   4.478   9.984
   40SAPE    HA 5142   0.737   4.398  10.032
   40SAPE    HB 5143   0.814   4.449   9.878
   40SAPE    C2 5144   0.935   4.474  10.058
   40SAPE    HS 5145   1.003   4.405  10.003
   40SAPE   O21 5146   0.913   4.421  10.189
   40SAPE   C21 5147   1.013   4.418  10.276
   40SAPE   O22 5148   1.128   4.453  10.257
   40SAPE   C22 5149   0.955   4.374  10.410
   40SAPE   H2R 5150   0.873   4.303  10.387
   40SAPE   H2S 5151   1.035   4.319  10.463
   40SAPE    C3 5152   0.999   4.616  10.062
   40SAPE    HX 5153   0.981   4.660   9.961
   40SAPE    HY 5154   1.108   4.603  10.077
   40SAPE   O31 5155   0.945   4.696  10.170
   40SAPE   C31 5156   0.934   4.824  10.144
   40SAPE   O32 5157   0.978   4.879  10.044
   40SAPE   C32 5158   0.875   4.898  10.263
   40SAPE   H2X 5159   0.903   5.005  10.254
   40SAPE   H2Y 5160   0.923   4.857  10.355
   40SAPE   C23 5161   0.898   4.494  10.490
   40SAPE   H3R 5162   0.817   4.457  10.556
   40SAPE   H3S 5163   0.850   4.567  10.421
   40SAPE   C24 5164   1.005   4.564  10.576
   40SAPE   H4R 5165   0.963   4.657  10.620
   40SAPE   H4S 5166   1.089   4.594  10.508
   40SAPE   C25 5167   1.052   4.471  10.684
   40SAPE   H5R 5168   0.979   4.396  10.718
   40SAPE   C26 5169   1.171   4.473  10.745
   40SAPE   H6R 5170   1.193   4.398  10.822
   40SAPE   C27 5171   1.283   4.571  10.718
   40SAPE   H7R 5172   1.293   4.588  10.608
   40SAPE   H7S 5173   1.380   4.525  10.749
   40SAPE   C28 5174   1.270   4.705  10.786
   40SAPE   H8R 5175   1.290   4.790  10.719
   40SAPE   C29 5176   1.241   4.731  10.915
   40SAPE   H9R 5177   1.238   4.836  10.949
   40SAPE  C210 5178   1.212   4.631  11.025
   40SAPE  H10R 5179   1.291   4.638  11.103
   40SAPE  H10S 5180   1.217   4.526  10.990
   40SAPE  C211 5181   1.075   4.657  11.079
   40SAPE  H11R 5182   0.992   4.640  11.009
   40SAPE  C212 5183   1.046   4.699  11.203
   40SAPE  H12R 5184   0.941   4.696  11.232
   40SAPE  C213 5185   1.142   4.730  11.316
   40SAPE  H13R 5186   1.242   4.688  11.296
   40SAPE  H13S 5187   1.105   4.673  11.403
   40SAPE  C214 5188   1.164   4.870  11.362
   40SAPE  H14R 5189   1.204   4.938  11.286
   40SAPE  C215 5190   1.138   4.914  11.486
   40SAPE  H15R 5191   1.164   5.017  11.513
   40SAPE  C216 5192   1.084   4.831  11.600
   40SAPE  H16R 5193   1.123   4.727  11.598
   40SAPE  H16S 5194   0.974   4.824  11.591
   40SAPE  C217 5195   1.115   4.890  11.738
   40SAPE  H17R 5196   1.118   5.001  11.734
   40SAPE  H17S 5197   1.216   4.855  11.769
   40SAPE  C218 5198   1.011   4.850  11.843
   40SAPE  H18R 5199   0.995   4.740  11.842
   40SAPE  H18S 5200   0.914   4.898  11.817
   40SAPE  C219 5201   1.053   4.893  11.985
   40SAPE  H19R 5202   0.963   4.887  12.051
   40SAPE  H19S 5203   1.086   4.999  11.984
   40SAPE  C220 5204   1.164   4.806  12.043
   40SAPE  H20R 5205   1.165   4.811  12.154
   40SAPE  H20S 5206   1.263   4.841  12.006
   40SAPE  H20T 5207   1.152   4.700  12.013
   40SAPE   C33 5208   0.722   4.883  10.274
   40SAPE   H3X 5209   0.694   4.775  10.281
   40SAPE   H3Y 5210   0.673   4.924  10.184
   40SAPE   C34 5211   0.671   4.957  10.398
   40SAPE   H4X 5212   0.708   5.062  10.395
   40SAPE   H4Y 5213   0.715   4.908  10.488
   40SAPE   C35 5214   0.518   4.960  10.410
   40SAPE   H5X 5215   0.479   4.856  10.408
   40SAPE   H5Y 5216   0.476   5.014  10.321
   40SAPE   C36 5217   0.465   5.033  10.536
   40SAPE   H6X 5218   0.354   5.027  10.535
   40SAPE   H6Y 5219   0.491   5.141  10.528
   40SAPE   C37 5220   0.518   4.978  10.669
   40SAPE   H7X 5221   0.474   5.038  10.752
   40SAPE   H7Y 5222   0.628   4.994  10.674
   40SAPE   C38 5223   0.488   4.829  10.693
   40SAPE   H8X 5224   0.548   4.770  10.620
   40SAPE   H8Y 5225   0.381   4.808  10.673
   40SAPE   C39 5226   0.524   4.784  10.835
   40SAPE   H9X 5227   0.623   4.825  10.863
   40SAPE   H9Y 5228   0.533   4.673  10.835
   40SAPE  C310 5229   0.418   4.825  10.939
   40SAPE  H10X 5230   0.322   4.774  10.916
   40SAPE  H10Y 5231   0.400   4.934  10.933
   40SAPE  C311 5232   0.460   4.790  11.083
   40SAPE  H11X 5233   0.392   4.843  11.154
   40SAPE  H11Y 5234   0.563   4.827  11.101
   40SAPE  C312 5235   0.450   4.640  11.110
   40SAPE  H12X 5236   0.500   4.584  11.029
   40SAPE  H12Y 5237   0.342   4.611  11.109
   40SAPE  C313 5238   0.512   4.599  11.244
   40SAPE  H13X 5239   0.517   4.686  11.312
   40SAPE  H13Y 5240   0.616   4.566  11.224
   40SAPE  C314 5241   0.434   4.486  11.315
   40SAPE  H14X 5242   0.412   4.405  11.243
   40SAPE  H14Y 5243   0.339   4.527  11.352
   40SAPE  C315 5244   0.516   4.431  11.431
   40SAPE  H15X 5245   0.526   4.512  11.506
   40SAPE  H15Y 5246   0.616   4.406  11.391
   40SAPE  C316 5247   0.464   4.303  11.499
   40SAPE  H16X 5248   0.551   4.249  11.543
   40SAPE  H16Y 5249   0.420   4.236  11.422
   40SAPE  C317 5250   0.363   4.326  11.613
   40SAPE  H17X 5251   0.328   4.225  11.645
   40SAPE  H17Y 5252   0.276   4.383  11.574
   40SAPE  C318 5253   0.417   4.397  11.739
   40SAPE  H18X 5254   0.338   4.399  11.817
   40SAPE  H18Y 5255   0.446   4.501  11.716
   40SAPE  H18Z 5256   0.506   4.343  11.779
   41CHL1    C3 5257   2.406   3.317  13.721
   41CHL1    H3 5258   2.503   3.264  13.706
   41CHL1    O3 5259   2.388   3.345  13.858
   41CHL1   H3' 5260   2.311   3.402  13.864
   41CHL1    C4 5261   2.406   3.449  13.641
   41CHL1   H4A 5262   2.312   3.505  13.661
   41CHL1   H4B 5263   2.489   3.512  13.680
   41CHL1    C5 5264   2.420   3.417  13.493
   41CHL1    C6 5265   2.526   3.459  13.423
   41CHL1    H6 5266   2.602   3.521  13.473
   41CHL1    C7 5267   2.548   3.429  13.279
   41CHL1   H7A 5268   2.591   3.516  13.225
   41CHL1   H7B 5269   2.620   3.345  13.268
   41CHL1    C8 5270   2.416   3.389  13.210
   41CHL1    H8 5271   2.353   3.481  13.206
   41CHL1   C14 5272   2.442   3.339  13.069
   41CHL1   H14 5273   2.496   3.242  13.079
   41CHL1   C15 5274   2.531   3.425  12.979
   41CHL1  H15A 5275   2.497   3.531  12.987
   41CHL1  H15B 5276   2.638   3.419  13.005
   41CHL1   C16 5277   2.503   3.372  12.838
   41CHL1  H16A 5278   2.488   3.458  12.770
   41CHL1  H16B 5279   2.587   3.310  12.800
   41CHL1   C17 5280   2.374   3.284  12.847
   41CHL1   H17 5281   2.407   3.178  12.847
   41CHL1   C13 5282   2.316   3.311  12.988
   41CHL1   C18 5283   2.226   3.436  12.981
   41CHL1  H18A 5284   2.136   3.419  12.919
   41CHL1  H18B 5285   2.190   3.464  13.082
   41CHL1  H18C 5286   2.281   3.523  12.939
   41CHL1   C12 5287   2.247   3.194  13.061
   41CHL1  H12A 5288   2.156   3.159  13.010
   41CHL1  H12B 5289   2.321   3.112  13.059
   41CHL1   C11 5290   2.216   3.227  13.208
   41CHL1  H11A 5291   2.134   3.301  13.206
   41CHL1  H11B 5292   2.177   3.137  13.259
   41CHL1    C9 5293   2.340   3.281  13.288
   41CHL1    H9 5294   2.411   3.195  13.294
   41CHL1   C10 5295   2.311   3.323  13.435
   41CHL1   C19 5296   2.171   3.388  13.440
   41CHL1  H19A 5297   2.093   3.309  13.426
   41CHL1  H19B 5298   2.150   3.437  13.536
   41CHL1  H19C 5299   2.159   3.462  13.359
   41CHL1    C1 5300   2.309   3.197  13.524
   41CHL1   H1A 5301   2.228   3.129  13.489
   41CHL1   H1B 5302   2.406   3.144  13.512
   41CHL1    C2 5303   2.292   3.227  13.674
   41CHL1   H2A 5304   2.292   3.133  13.732
   41CHL1   H2B 5305   2.194   3.277  13.691
   41CHL1   C20 5306   2.283   3.304  12.725
   41CHL1   H20 5307   2.248   3.410  12.722
   41CHL1   C21 5308   2.160   3.213  12.734
   41CHL1  H21A 5309   2.100   3.232  12.825
   41CHL1  H21B 5310   2.191   3.106  12.734
   41CHL1  H21C 5311   2.091   3.231  12.649
   41CHL1   C22 5312   2.360   3.280  12.592
   41CHL1  H22A 5313   2.438   3.357  12.579
   41CHL1  H22B 5314   2.411   3.181  12.597
   41CHL1   C23 5315   2.269   3.282  12.467
   41CHL1  H23A 5316   2.208   3.189  12.471
   41CHL1  H23B 5317   2.199   3.368  12.473
   41CHL1   C24 5318   2.347   3.288  12.335
   41CHL1  H24A 5319   2.387   3.391  12.324
   41CHL1  H24B 5320   2.434   3.221  12.338
   41CHL1   C25 5321   2.262   3.256  12.209
   41CHL1   H25 5322   2.181   3.332  12.206
   41CHL1   C26 5323   2.348   3.272  12.082
   41CHL1  H26A 5324   2.444   3.319  12.108
   41CHL1  H26B 5325   2.372   3.173  12.038
   41CHL1  H26C 5326   2.295   3.332  12.006
   41CHL1   C27 5327   2.197   3.116  12.208
   41CHL1  H27A 5328   2.263   3.041  12.160
   41CHL1  H27B 5329   2.175   3.079  12.310
   41CHL1  H27C 5330   2.102   3.119  12.151
   42CHL1    C3 5331   3.305   3.443  13.724
   42CHL1    H3 5332   3.411   3.411  13.733
   42CHL1    O3 5333   3.251   3.462  13.853
   42CHL1   H3' 5334   3.327   3.483  13.909
   42CHL1    C4 5335   3.297   3.574  13.645
   42CHL1   H4A 5336   3.196   3.618  13.660
   42CHL1   H4B 5337   3.369   3.646  13.692
   42CHL1    C5 5338   3.323   3.555  13.497
   42CHL1    C6 5339   3.415   3.626  13.431
   42CHL1    H6 5340   3.475   3.697  13.489
   42CHL1    C7 5341   3.439   3.618  13.283
   42CHL1   H7A 5342   3.445   3.720  13.239
   42CHL1   H7B 5343   3.537   3.570  13.265
   42CHL1    C8 5344   3.331   3.540  13.206
   42CHL1    H8 5345   3.246   3.609  13.189
   42CHL1   C14 5346   3.384   3.489  13.072
   42CHL1   H14 5347   3.458   3.408  13.098
   42CHL1   C15 5348   3.463   3.586  12.982
   42CHL1  H15A 5349   3.407   3.681  12.973
   42CHL1  H15B 5350   3.564   3.607  13.021
   42CHL1   C16 5351   3.466   3.513  12.847
   42CHL1  H16A 5352   3.432   3.582  12.768
   42CHL1  H16B 5353   3.569   3.479  12.822
   42CHL1   C17 5354   3.370   3.390  12.860
   42CHL1   H17 5355   3.434   3.304  12.892
   42CHL1   C13 5356   3.281   3.421  12.982
   42CHL1   C18 5357   3.173   3.522  12.937
   42CHL1  H18A 5358   3.216   3.606  12.880
   42CHL1  H18B 5359   3.098   3.472  12.873
   42CHL1  H18C 5360   3.119   3.563  13.024
   42CHL1   C12 5361   3.216   3.305  13.060
   42CHL1  H12A 5362   3.133   3.258  13.004
   42CHL1  H12B 5363   3.292   3.227  13.077
   42CHL1   C11 5364   3.167   3.348  13.199
   42CHL1  H11A 5365   3.082   3.418  13.183
   42CHL1  H11B 5366   3.129   3.260  13.255
   42CHL1    C9 5367   3.279   3.417  13.282
   42CHL1    H9 5368   3.364   3.345  13.287
   42CHL1   C10 5369   3.240   3.445  13.430
   42CHL1   C19 5370   3.093   3.488  13.432
   42CHL1  H19A 5371   3.082   3.566  13.356
   42CHL1  H19B 5372   3.024   3.405  13.408
   42CHL1  H19C 5373   3.060   3.530  13.530
   42CHL1    C1 5374   3.260   3.315  13.512
   42CHL1   H1A 5375   3.197   3.235  13.468
   42CHL1   H1B 5376   3.366   3.282  13.506
   42CHL1    C2 5377   3.222   3.333  13.659
   42CHL1   H2A 5378   3.236   3.238  13.716
   42CHL1   H2B 5379   3.115   3.362  13.667
   42CHL1   C20 5380   3.305   3.352  12.726
   42CHL1   H20 5381   3.242   3.438  12.694
   42CHL1   C21 5382   3.213   3.229  12.744
   42CHL1  H21A 5383   3.265   3.149  12.801
   42CHL1  H21B 5384   3.181   3.188  12.647
   42CHL1  H21C 5385   3.120   3.258  12.798
   42CHL1   C22 5386   3.410   3.328  12.614
   42CHL1  H22A 5387   3.474   3.418  12.603
   42CHL1  H22B 5388   3.476   3.244  12.644
   42CHL1   C23 5389   3.352   3.298  12.474
   42CHL1  H23A 5390   3.438   3.285  12.404
   42CHL1  H23B 5391   3.297   3.202  12.474
   42CHL1   C24 5392   3.262   3.411  12.420
   42CHL1  H24A 5393   3.182   3.433  12.494
   42CHL1  H24B 5394   3.323   3.503  12.407
   42CHL1   C25 5395   3.190   3.379  12.287
   42CHL1   H25 5396   3.123   3.291  12.303
   42CHL1   C26 5397   3.103   3.500  12.249
   42CHL1  H26A 5398   3.165   3.592  12.249
   42CHL1  H26B 5399   3.059   3.490  12.148
   42CHL1  H26C 5400   3.020   3.514  12.322
   42CHL1   C27 5401   3.287   3.344  12.173
   42CHL1  H27A 5402   3.346   3.434  12.145
   42CHL1  H27B 5403   3.356   3.263  12.203
   42CHL1  H27C 5404   3.233   3.310  12.083
   43CHL1    C3 5405   3.505   2.813  13.743
   43CHL1    H3 5406   3.530   2.922  13.746
   43CHL1    O3 5407   3.476   2.770  13.875
   43CHL1   H3' 5408   3.557   2.789  13.925
   43CHL1    C4 5409   3.386   2.790  13.649
   43CHL1   H4A 5410   3.358   2.683  13.654
   43CHL1   H4B 5411   3.299   2.847  13.689
   43CHL1    C5 5412   3.425   2.832  13.508
   43CHL1    C6 5413   3.366   2.937  13.449
   43CHL1    H6 5414   3.286   2.991  13.501
   43CHL1    C7 5415   3.405   2.983  13.312
   43CHL1   H7A 5416   3.316   3.018  13.256
   43CHL1   H7B 5417   3.475   3.069  13.320
   43CHL1    C8 5418   3.476   2.872  13.229
   43CHL1    H8 5419   3.403   2.791  13.207
   43CHL1   C14 5420   3.532   2.931  13.102
   43CHL1   H14 5421   3.615   2.995  13.138
   43CHL1   C15 5422   3.442   3.025  13.022
   43CHL1  H15A 5423   3.336   2.995  13.026
   43CHL1  H15B 5424   3.457   3.126  13.064
   43CHL1   C16 5425   3.496   3.020  12.880
   43CHL1  H16A 5426   3.422   2.969  12.815
   43CHL1  H16B 5427   3.517   3.121  12.839
   43CHL1   C17 5428   3.627   2.937  12.886
   43CHL1   H17 5429   3.705   3.009  12.921
   43CHL1   C13 5430   3.602   2.839  13.004
   43CHL1   C18 5431   3.507   2.726  12.957
   43CHL1  H18A 5432   3.462   2.673  13.043
   43CHL1  H18B 5433   3.426   2.765  12.893
   43CHL1  H18C 5434   3.564   2.652  12.898
   43CHL1   C12 5435   3.724   2.784  13.081
   43CHL1  H12A 5436   3.775   2.710  13.018
   43CHL1  H12B 5437   3.795   2.867  13.101
   43CHL1   C11 5438   3.682   2.721  13.217
   43CHL1  H11A 5439   3.629   2.626  13.194
   43CHL1  H11B 5440   3.774   2.696  13.273
   43CHL1    C9 5441   3.592   2.813  13.308
   43CHL1    H9 5442   3.658   2.899  13.333
   43CHL1   C10 5443   3.544   2.756  13.445
   43CHL1   C19 5444   3.508   2.607  13.425
   43CHL1  H19A 5445   3.469   2.560  13.517
   43CHL1  H19B 5446   3.432   2.596  13.344
   43CHL1  H19C 5447   3.598   2.549  13.396
   43CHL1    C1 5448   3.659   2.772  13.547
   43CHL1   H1A 5449   3.745   2.712  13.510
   43CHL1   H1B 5450   3.691   2.879  13.549
   43CHL1    C2 5451   3.623   2.733  13.692
   43CHL1   H2A 5452   3.710   2.747  13.759
   43CHL1   H2B 5453   3.594   2.626  13.692
   43CHL1   C20 5454   3.670   2.886  12.749
   43CHL1   H20 5455   3.623   2.786  12.730
   43CHL1   C21 5456   3.823   2.872  12.754
   43CHL1  H21A 5457   3.869   2.971  12.770
   43CHL1  H21B 5458   3.861   2.831  12.659
   43CHL1  H21C 5459   3.854   2.805  12.837
   43CHL1   C22 5460   3.634   2.977  12.628
   43CHL1  H22A 5461   3.537   3.030  12.640
   43CHL1  H22B 5462   3.712   3.055  12.616
   43CHL1   C23 5463   3.617   2.900  12.496
   43CHL1  H23A 5464   3.705   2.834  12.481
   43CHL1  H23B 5465   3.525   2.838  12.507
   43CHL1   C24 5466   3.603   2.990  12.373
   43CHL1  H24A 5467   3.528   3.069  12.395
   43CHL1  H24B 5468   3.701   3.039  12.357
   43CHL1   C25 5469   3.561   2.921  12.240
   43CHL1   H25 5470   3.556   3.002  12.162
   43CHL1   C26 5471   3.666   2.821  12.190
   43CHL1  H26A 5472   3.694   2.749  12.270
   43CHL1  H26B 5473   3.628   2.763  12.104
   43CHL1  H26C 5474   3.758   2.874  12.159
   43CHL1   C27 5475   3.421   2.859  12.246
   43CHL1  H27A 5476   3.416   2.779  12.323
   43CHL1  H27B 5477   3.345   2.936  12.270
   43CHL1  H27C 5478   3.395   2.813  12.148
   44CHL1    C3 5479   1.497   3.394  13.745
   44CHL1    H3 5480   1.576   3.474  13.741
   44CHL1    O3 5481   1.507   3.323  13.867
   44CHL1   H3' 5482   1.604   3.334  13.880
   44CHL1    C4 5483   1.361   3.464  13.735
   44CHL1   H4A 5484   1.281   3.393  13.764
   44CHL1   H4B 5485   1.359   3.546  13.811
   44CHL1    C5 5486   1.337   3.518  13.595
   44CHL1    C6 5487   1.311   3.647  13.570
   44CHL1    H6 5488   1.311   3.720  13.652
   44CHL1    C7 5489   1.277   3.698  13.433
   44CHL1   H7A 5490   1.199   3.777  13.438
   44CHL1   H7B 5491   1.367   3.744  13.386
   44CHL1    C8 5492   1.228   3.582  13.342
   44CHL1    H8 5493   1.133   3.542  13.385
   44CHL1   C14 5494   1.201   3.632  13.201
   44CHL1   H14 5495   1.298   3.671  13.163
   44CHL1   C15 5496   1.101   3.747  13.188
   44CHL1  H15A 5497   1.015   3.731  13.256
   44CHL1  H15B 5498   1.148   3.844  13.212
   44CHL1   C16 5499   1.055   3.737  13.042
   44CHL1  H16A 5500   0.945   3.724  13.040
   44CHL1  H16B 5501   1.085   3.826  12.982
   44CHL1   C17 5502   1.125   3.613  12.980
   44CHL1   H17 5503   1.223   3.650  12.943
   44CHL1   C13 5504   1.155   3.525  13.102
   44CHL1   C18 5505   1.022   3.463  13.153
   44CHL1  H18A 5506   1.039   3.401  13.243
   44CHL1  H18B 5507   0.946   3.539  13.181
   44CHL1  H18C 5508   0.974   3.399  13.077
   44CHL1   C12 5509   1.271   3.425  13.090
   44CHL1  H12A 5510   1.244   3.341  13.023
   44CHL1  H12B 5511   1.359   3.477  13.046
   44CHL1   C11 5512   1.310   3.366  13.227
   44CHL1  H11A 5513   1.227   3.299  13.253
   44CHL1  H11B 5514   1.401   3.303  13.216
   44CHL1    C9 5515   1.332   3.471  13.340
   44CHL1    H9 5516   1.428   3.522  13.314
   44CHL1   C10 5517   1.351   3.413  13.483
   44CHL1   C19 5518   1.247   3.301  13.505
   44CHL1  H19A 5519   1.145   3.334  13.476
   44CHL1  H19B 5520   1.275   3.214  13.443
   44CHL1  H19C 5521   1.243   3.263  13.609
   44CHL1    C1 5522   1.494   3.354  13.494
   44CHL1   H1A 5523   1.506   3.275  13.416
   44CHL1   H1B 5524   1.567   3.434  13.472
   44CHL1    C2 5525   1.524   3.294  13.632
   44CHL1   H2A 5526   1.632   3.264  13.635
   44CHL1   H2B 5527   1.462   3.203  13.646
   44CHL1   C20 5528   1.051   3.556  12.857
   44CHL1   H20 5529   0.967   3.490  12.889
   44CHL1   C21 5530   1.153   3.475  12.773
   44CHL1  H21A 5531   1.199   3.394  12.832
   44CHL1  H21B 5532   1.235   3.542  12.739
   44CHL1  H21C 5533   1.106   3.430  12.684
   44CHL1   C22 5534   0.991   3.667  12.766
   44CHL1  H22A 5535   0.937   3.744  12.824
   44CHL1  H22B 5536   1.079   3.716  12.718
   44CHL1   C23 5537   0.891   3.624  12.657
   44CHL1  H23A 5538   0.930   3.534  12.605
   44CHL1  H23B 5539   0.795   3.600  12.707
   44CHL1   C24 5540   0.866   3.734  12.552
   44CHL1  H24A 5541   0.846   3.830  12.603
   44CHL1  H24B 5542   0.960   3.744  12.494
   44CHL1   C25 5543   0.750   3.721  12.451
   44CHL1   H25 5544   0.753   3.618  12.409
   44CHL1   C26 5545   0.614   3.750  12.516
   44CHL1  H26A 5546   0.531   3.726  12.446
   44CHL1  H26B 5547   0.601   3.692  12.608
   44CHL1  H26C 5548   0.607   3.858  12.543
   44CHL1   C27 5549   0.771   3.821  12.336
   44CHL1  H27A 5550   0.758   3.925  12.374
   44CHL1  H27B 5551   0.874   3.813  12.295
   44CHL1  H27C 5552   0.698   3.804  12.255
   45CHL1    C3 5553   1.866   1.401  13.755
   45CHL1    H3 5554   1.801   1.492  13.758
   45CHL1    O3 5555   1.870   1.341  13.884
   45CHL1   H3' 5556   1.913   1.408  13.941
   45CHL1    C4 5557   1.807   1.302  13.654
   45CHL1   H4A 5558   1.862   1.206  13.664
   45CHL1   H4B 5559   1.703   1.280  13.685
   45CHL1    C5 5560   1.816   1.353  13.511
   45CHL1    C6 5561   1.708   1.362  13.431
   45CHL1    H6 5562   1.610   1.331  13.469
   45CHL1    C7 5563   1.717   1.397  13.285
   45CHL1   H7A 5564   1.649   1.332  13.226
   45CHL1   H7B 5565   1.687   1.503  13.268
   45CHL1    C8 5566   1.863   1.377  13.233
   45CHL1    H8 5567   1.884   1.268  13.240
   45CHL1   C14 5568   1.876   1.414  13.087
   45CHL1   H14 5569   1.844   1.521  13.078
   45CHL1   C15 5570   1.790   1.336  12.987
   45CHL1  H15A 5571   1.811   1.227  12.998
   45CHL1  H15B 5572   1.682   1.353  13.000
   45CHL1   C16 5573   1.843   1.386  12.854
   45CHL1  H16A 5574   1.833   1.308  12.776
   45CHL1  H16B 5575   1.785   1.476  12.822
   45CHL1   C17 5576   1.992   1.430  12.877
   45CHL1   H17 5577   1.996   1.541  12.862
   45CHL1   C13 5578   2.019   1.408  13.030
   45CHL1   C18 5579   2.079   1.267  13.052
   45CHL1  H18A 5580   2.035   1.195  12.982
   45CHL1  H18B 5581   2.189   1.267  13.038
   45CHL1  H18C 5582   2.064   1.230  13.155
   45CHL1   C12 5583   2.101   1.513  13.106
   45CHL1  H12A 5584   2.205   1.517  13.068
   45CHL1  H12B 5585   2.055   1.613  13.090
   45CHL1   C11 5586   2.101   1.481  13.258
   45CHL1  H11A 5587   2.166   1.392  13.270
   45CHL1  H11B 5588   2.151   1.563  13.313
   45CHL1    C9 5589   1.959   1.456  13.322
   45CHL1    H9 5590   1.915   1.559  13.330
   45CHL1   C10 5591   1.958   1.397  13.467
   45CHL1   C19 5592   2.047   1.272  13.467
   45CHL1  H19A 5593   2.010   1.205  13.387
   45CHL1  H19B 5594   2.153   1.297  13.447
   45CHL1  H19C 5595   2.045   1.217  13.563
   45CHL1    C1 5596   2.014   1.496  13.571
   45CHL1   H1A 5597   2.120   1.512  13.545
   45CHL1   H1B 5598   1.960   1.593  13.565
   45CHL1    C2 5599   2.008   1.443  13.716
   45CHL1   H2A 5600   2.042   1.523  13.784
   45CHL1   H2B 5601   2.077   1.357  13.728
   45CHL1   C20 5602   2.081   1.367  12.769
   45CHL1   H20 5603   2.065   1.256  12.771
   45CHL1   C21 5604   2.230   1.395  12.791
   45CHL1  H21A 5605   2.249   1.502  12.809
   45CHL1  H21B 5606   2.289   1.363  12.702
   45CHL1  H21C 5607   2.269   1.336  12.876
   45CHL1   C22 5608   2.044   1.416  12.627
   45CHL1  H22A 5609   1.935   1.431  12.615
   45CHL1  H22B 5610   2.093   1.515  12.611
   45CHL1   C23 5611   2.088   1.321  12.514
   45CHL1  H23A 5612   2.195   1.293  12.527
   45CHL1  H23B 5613   2.028   1.227  12.518
   45CHL1   C24 5614   2.069   1.387  12.377
   45CHL1  H24A 5615   1.961   1.407  12.361
   45CHL1  H24B 5616   2.121   1.486  12.379
   45CHL1   C25 5617   2.123   1.308  12.257
   45CHL1   H25 5618   2.071   1.210  12.252
   45CHL1   C26 5619   2.094   1.386  12.129
   45CHL1  H26A 5620   2.129   1.330  12.040
   45CHL1  H26B 5621   1.985   1.403  12.120
   45CHL1  H26C 5622   2.144   1.485  12.131
   45CHL1   C27 5623   2.274   1.282  12.269
   45CHL1  H27A 5624   2.295   1.198  12.338
   45CHL1  H27B 5625   2.318   1.259  12.170
   45CHL1  H27C 5626   2.325   1.372  12.308
   46CHL1    C3 5627   1.146   2.701  13.697
   46CHL1    H3 5628   1.183   2.789  13.640
   46CHL1    O3 5629   1.162   2.726  13.836
   46CHL1   H3' 5630   1.128   2.648  13.883
   46CHL1    C4 5631   0.998   2.676  13.663
   46CHL1   H4A 5632   0.963   2.591  13.725
   46CHL1   H4B 5633   0.941   2.765  13.698
   46CHL1    C5 5634   0.973   2.647  13.515
   46CHL1    C6 5635   0.883   2.719  13.447
   46CHL1    H6 5636   0.825   2.796  13.501
   46CHL1    C7 5637   0.853   2.708  13.301
   46CHL1   H7A 5638   0.746   2.681  13.287
   46CHL1   H7B 5639   0.864   2.808  13.256
   46CHL1    C8 5640   0.938   2.604  13.224
   46CHL1    H8 5641   0.874   2.513  13.216
   46CHL1   C14 5642   0.978   2.653  13.084
   46CHL1   H14 5643   1.063   2.725  13.100
   46CHL1   C15 5644   0.879   2.735  13.002
   46CHL1  H15A 5645   0.781   2.683  13.004
   46CHL1  H15B 5646   0.865   2.838  13.039
   46CHL1   C16 5647   0.943   2.733  12.863
   46CHL1  H16A 5648   0.868   2.696  12.790
   46CHL1  H16B 5649   0.979   2.833  12.832
   46CHL1   C17 5650   1.061   2.632  12.864
   46CHL1   H17 5651   1.154   2.691  12.882
   46CHL1   C13 5652   1.035   2.547  12.990
   46CHL1   C18 5653   0.927   2.440  12.959
   46CHL1  H18A 5654   0.965   2.365  12.887
   46CHL1  H18B 5655   0.896   2.386  13.050
   46CHL1  H18C 5656   0.836   2.486  12.915
   46CHL1   C12 5657   1.159   2.486  13.060
   46CHL1  H12A 5658   1.194   2.396  13.005
   46CHL1  H12B 5659   1.241   2.562  13.057
   46CHL1   C11 5660   1.134   2.449  13.208
   46CHL1  H11A 5661   1.064   2.362  13.209
   46CHL1  H11B 5662   1.229   2.419  13.254
   46CHL1    C9 5663   1.070   2.565  13.291
   46CHL1    H9 5664   1.137   2.653  13.279
   46CHL1   C10 5665   1.064   2.544  13.445
   46CHL1   C19 5666   1.004   2.405  13.470
   46CHL1  H19A 5667   0.997   2.387  13.579
   46CHL1  H19B 5668   0.902   2.396  13.426
   46CHL1  H19C 5669   1.067   2.325  13.427
   46CHL1    C1 5670   1.209   2.553  13.503
   46CHL1   H1A 5671   1.265   2.462  13.475
   46CHL1   H1B 5672   1.260   2.639  13.454
   46CHL1    C2 5673   1.223   2.575  13.655
   46CHL1   H2A 5674   1.330   2.584  13.683
   46CHL1   H2B 5675   1.179   2.489  13.710
   46CHL1   C20 5676   1.073   2.567  12.725
   46CHL1   H20 5677   0.976   2.519  12.704
   46CHL1   C21 5678   1.185   2.462  12.723
   46CHL1  H21A 5679   1.194   2.416  12.622
   46CHL1  H21B 5680   1.164   2.380  12.794
   46CHL1  H21C 5681   1.282   2.509  12.749
   46CHL1   C22 5682   1.096   2.672  12.611
   46CHL1  H22A 5683   1.034   2.762  12.627
   46CHL1  H22B 5684   1.202   2.705  12.618
   46CHL1   C23 5685   1.067   2.626  12.466
   46CHL1  H23A 5686   1.119   2.696  12.397
   46CHL1  H23B 5687   1.108   2.524  12.448
   46CHL1   C24 5688   0.917   2.631  12.430
   46CHL1  H24A 5689   0.860   2.564  12.497
   46CHL1  H24B 5690   0.879   2.733  12.449
   46CHL1   C25 5691   0.885   2.594  12.283
   46CHL1   H25 5692   0.972   2.540  12.239
   46CHL1   C26 5693   0.764   2.499  12.276
   46CHL1  H26A 5694   0.682   2.539  12.337
   46CHL1  H26B 5695   0.730   2.487  12.171
   46CHL1  H26C 5696   0.790   2.398  12.315
   46CHL1   C27 5697   0.857   2.721  12.200
   46CHL1  H27A 5698   0.832   2.694  12.095
   46CHL1  H27B 5699   0.772   2.778  12.243
   46CHL1  H27C 5700   0.946   2.787  12.199
   47CHL1    C3 5701   2.379   0.819  13.732
   47CHL1    H3 5702   2.423   0.916  13.702
   47CHL1    O3 5703   2.413   0.795  13.868
   47CHL1   H3' 5704   2.395   0.876  13.917
   47CHL1    C4 5705   2.227   0.824  13.710
   47CHL1   H4A 5706   2.185   0.727  13.745
   47CHL1   H4B 5707   2.183   0.902  13.776
   47CHL1    C5 5708   2.188   0.845  13.564
   47CHL1    C6 5709   2.092   0.929  13.524
   47CHL1    H6 5710   2.036   0.986  13.599
   47CHL1    C7 5711   2.053   0.947  13.379
   47CHL1   H7A 5712   1.943   0.954  13.364
   47CHL1   H7B 5713   2.098   1.043  13.347
   47CHL1    C8 5714   2.116   0.849  13.276
   47CHL1    H8 5715   2.059   0.755  13.274
   47CHL1   C14 5716   2.111   0.910  13.136
   47CHL1   H14 5717   2.161   1.010  13.146
   47CHL1   C15 5718   1.972   0.938  13.074
   47CHL1  H15A 5719   1.904   0.854  13.097
   47CHL1  H15B 5720   1.928   1.031  13.115
   47CHL1   C16 5721   2.000   0.946  12.923
   47CHL1  H16A 5722   1.946   0.863  12.875
   47CHL1  H16B 5723   1.964   1.039  12.876
   47CHL1   C17 5724   2.155   0.928  12.906
   47CHL1   H17 5725   2.199   1.029  12.925
   47CHL1   C13 5726   2.191   0.839  13.027
   47CHL1   C18 5727   2.135   0.697  13.004
   47CHL1  H18A 5728   2.028   0.695  12.974
   47CHL1  H18B 5729   2.193   0.643  12.927
   47CHL1  H18C 5730   2.142   0.639  13.097
   47CHL1   C12 5731   2.338   0.830  13.071
   47CHL1  H12A 5732   2.395   0.770  12.997
   47CHL1  H12B 5733   2.380   0.932  13.075
   47CHL1   C11 5734   2.351   0.762  13.210
   47CHL1  H11A 5735   2.327   0.655  13.201
   47CHL1  H11B 5736   2.458   0.770  13.238
   47CHL1    C9 5737   2.261   0.827  13.319
   47CHL1    H9 5738   2.298   0.931  13.329
   47CHL1   C10 5739   2.273   0.768  13.462
   47CHL1   C19 5740   2.207   0.632  13.467
   47CHL1  H19A 5741   2.105   0.631  13.425
   47CHL1  H19B 5742   2.272   0.564  13.409
   47CHL1  H19C 5743   2.200   0.590  13.570
   47CHL1    C1 5744   2.422   0.746  13.501
   47CHL1   H1A 5745   2.467   0.667  13.436
   47CHL1   H1B 5746   2.480   0.838  13.486
   47CHL1    C2 5747   2.444   0.710  13.648
   47CHL1   H2A 5748   2.552   0.703  13.670
   47CHL1   H2B 5749   2.398   0.611  13.672
   47CHL1   C20 5750   2.205   0.886  12.766
   47CHL1   H20 5751   2.199   0.775  12.760
   47CHL1   C21 5752   2.352   0.929  12.748
   47CHL1  H21A 5753   2.388   0.900  12.648
   47CHL1  H21B 5754   2.418   0.883  12.823
   47CHL1  H21C 5755   2.360   1.040  12.757
   47CHL1   C22 5756   2.122   0.945  12.649
   47CHL1  H22A 5757   2.014   0.934  12.670
   47CHL1  H22B 5758   2.143   1.054  12.642
   47CHL1   C23 5759   2.143   0.880  12.510
   47CHL1  H23A 5760   2.059   0.912  12.444
   47CHL1  H23B 5761   2.236   0.920  12.464
   47CHL1   C24 5762   2.151   0.727  12.514
   47CHL1  H24A 5763   2.258   0.699  12.529
   47CHL1  H24B 5764   2.095   0.687  12.600
   47CHL1   C25 5765   2.099   0.652  12.390
   47CHL1   H25 5766   2.134   0.547  12.404
   47CHL1   C26 5767   1.946   0.643  12.381
   47CHL1  H26A 5768   1.903   0.599  12.473
   47CHL1  H26B 5769   1.901   0.744  12.364
   47CHL1  H26C 5770   1.916   0.578  12.296
   47CHL1   C27 5771   2.158   0.705  12.260
   47CHL1  H27A 5772   2.269   0.698  12.262
   47CHL1  H27B 5773   2.119   0.646  12.173
   47CHL1  H27C 5774   2.129   0.811  12.245
   48CHL1    C3 5775   1.098   1.494  13.713
   48CHL1    H3 5776   1.051   1.593  13.691
   48CHL1    O3 5777   1.082   1.467  13.852
   48CHL1   H3' 5778   1.170   1.451  13.888
   48CHL1    C4 5779   1.028   1.385  13.631
   48CHL1   H4A 5780   1.068   1.287  13.665
   48CHL1   H4B 5781   0.920   1.386  13.658
   48CHL1    C5 5782   1.049   1.402  13.482
   48CHL1    C6 5783   0.945   1.414  13.398
   48CHL1    H6 5784   0.843   1.410  13.438
   48CHL1    C7 5785   0.958   1.423  13.249
   48CHL1   H7A 5786   0.880   1.362  13.200
   48CHL1   H7B 5787   0.944   1.528  13.216
   48CHL1    C8 5788   1.098   1.374  13.201
   48CHL1    H8 5789   1.104   1.264  13.218
   48CHL1   C14 5790   1.113   1.401  13.052
   48CHL1   H14 5791   1.108   1.512  13.042
   48CHL1   C15 5792   1.005   1.346  12.957
   48CHL1  H15A 5793   0.986   1.239  12.981
   48CHL1  H15B 5794   0.910   1.402  12.964
   48CHL1   C16 5795   1.070   1.358  12.819
   48CHL1  H16A 5796   1.067   1.259  12.768
   48CHL1  H16B 5797   1.018   1.433  12.756
   48CHL1   C17 5798   1.218   1.400  12.843
   48CHL1   H17 5799   1.218   1.512  12.845
   48CHL1   C13 5800   1.247   1.360  12.990
   48CHL1   C18 5801   1.269   1.207  12.998
   48CHL1  H18A 5802   1.192   1.151  12.941
   48CHL1  H18B 5803   1.368   1.180  12.955
   48CHL1  H18C 5804   1.267   1.171  13.103
   48CHL1   C12 5805   1.356   1.437  13.067
   48CHL1  H12A 5806   1.457   1.410  13.030
   48CHL1  H12B 5807   1.340   1.545  13.046
   48CHL1   C11 5808   1.349   1.414  13.219
   48CHL1  H11A 5809   1.379   1.309  13.235
   48CHL1  H11B 5810   1.425   1.479  13.269
   48CHL1    C9 5811   1.209   1.441  13.283
   48CHL1    H9 5812   1.191   1.551  13.272
   48CHL1   C10 5813   1.197   1.409  13.435
   48CHL1   C19 5814   1.268   1.273  13.461
   48CHL1  H19A 5815   1.250   1.235  13.563
   48CHL1  H19B 5816   1.233   1.197  13.389
   48CHL1  H19C 5817   1.378   1.284  13.450
   48CHL1    C1 5818   1.265   1.519  13.523
   48CHL1   H1A 5819   1.374   1.521  13.500
   48CHL1   H1B 5820   1.224   1.618  13.495
   48CHL1    C2 5821   1.247   1.500  13.676
   48CHL1   H2A 5822   1.296   1.583  13.730
   48CHL1   H2B 5823   1.295   1.404  13.706
   48CHL1   C20 5824   1.310   1.362  12.726
   48CHL1   H20 5825   1.300   1.253  12.705
   48CHL1   C21 5826   1.458   1.390  12.759
   48CHL1  H21A 5827   1.522   1.379  12.669
   48CHL1  H21B 5828   1.495   1.318  12.835
   48CHL1  H21C 5829   1.469   1.492  12.799
   48CHL1   C22 5830   1.264   1.440  12.599
   48CHL1  H22A 5831   1.158   1.414  12.577
   48CHL1  H22B 5832   1.268   1.549  12.622
   48CHL1   C23 5833   1.341   1.417  12.467
   48CHL1  H23A 5834   1.445   1.457  12.476
   48CHL1  H23B 5835   1.347   1.309  12.447
   48CHL1   C24 5836   1.270   1.488  12.350
   48CHL1  H24A 5837   1.174   1.435  12.328
   48CHL1  H24B 5838   1.244   1.591  12.384
   48CHL1   C25 5839   1.351   1.501  12.220
   48CHL1   H25 5840   1.450   1.547  12.245
   48CHL1   C26 5841   1.377   1.365  12.154
   48CHL1  H26A 5842   1.427   1.378  12.055
   48CHL1  H26B 5843   1.443   1.303  12.217
   48CHL1  H26C 5844   1.281   1.311  12.138
   48CHL1   C27 5845   1.280   1.595  12.121
   48CHL1  H27A 5846   1.181   1.553  12.094
   48CHL1  H27B 5847   1.266   1.695  12.166
   48CHL1  H27C 5848   1.340   1.606  12.028
   49CHL1    C3 5849   4.406   4.062  13.734
   49CHL1    H3 5850   4.296   4.046  13.731
   49CHL1    O3 5851   4.448   4.054  13.869
   49CHL1   H3' 5852   4.417   4.135  13.913
   49CHL1    C4 5853   4.478   3.952  13.652
   49CHL1   H4A 5854   4.587   3.961  13.674
   49CHL1   H4B 5855   4.446   3.854  13.694
   49CHL1    C5 5856   4.456   3.958  13.501
   49CHL1    C6 5857   4.418   3.851  13.428
   49CHL1    H6 5858   4.404   3.753  13.478
   49CHL1    C7 5859   4.404   3.851  13.278
   49CHL1   H7A 5860   4.455   3.763  13.234
   49CHL1   H7B 5861   4.296   3.845  13.250
   49CHL1    C8 5862   4.464   3.979  13.214
   49CHL1    H8 5863   4.574   3.970  13.220
   49CHL1   C14 5864   4.428   3.990  13.066
   49CHL1   H14 5865   4.316   3.992  13.059
   49CHL1   C15 5866   4.474   3.876  12.973
   49CHL1  H15A 5867   4.574   3.840  13.005
   49CHL1  H15B 5868   4.403   3.791  12.976
   49CHL1   C16 5869   4.483   3.939  12.833
   49CHL1  H16A 5870   4.587   3.927  12.796
   49CHL1  H16B 5871   4.414   3.891  12.761
   49CHL1   C17 5872   4.448   4.090  12.849
   49CHL1   H17 5873   4.338   4.098  12.836
   49CHL1   C13 5874   4.476   4.119  12.999
   49CHL1   C18 5875   4.629   4.133  13.015
   49CHL1  H18A 5876   4.662   4.225  12.963
   49CHL1  H18B 5877   4.660   4.142  13.121
   49CHL1  H18C 5878   4.683   4.047  12.971
   49CHL1   C12 5879   4.400   4.234  13.070
   49CHL1  H12A 5880   4.427   4.333  13.030
   49CHL1  H12B 5881   4.291   4.219  13.055
   49CHL1   C11 5882   4.432   4.238  13.221
   49CHL1  H11A 5883   4.536   4.276  13.231
   49CHL1  H11B 5884   4.366   4.314  13.268
   49CHL1    C9 5885   4.416   4.102  13.294
   49CHL1    H9 5886   4.305   4.088  13.303
   49CHL1   C10 5887   4.472   4.099  13.439
   49CHL1   C19 5888   4.623   4.135  13.438
   49CHL1  H19A 5889   4.638   4.242  13.411
   49CHL1  H19B 5890   4.669   4.121  13.538
   49CHL1  H19C 5891   4.680   4.072  13.367
   49CHL1    C1 5892   4.397   4.204  13.527
   49CHL1   H1A 5893   4.419   4.306  13.488
   49CHL1   H1B 5894   4.288   4.186  13.518
   49CHL1    C2 5895   4.436   4.200  13.676
   49CHL1   H2A 5896   4.378   4.277  13.732
   49CHL1   H2B 5897   4.544   4.224  13.689
   49CHL1   C20 5898   4.513   4.180  12.741
   49CHL1   H20 5899   4.622   4.191  12.762
   49CHL1   C21 5900   4.448   4.320  12.749
   49CHL1  H21A 5901   4.471   4.369  12.845
   49CHL1  H21B 5902   4.338   4.313  12.737
   49CHL1  H21C 5903   4.487   4.389  12.673
   49CHL1   C22 5904   4.503   4.121  12.597
   49CHL1  H22A 5905   4.559   4.025  12.592
   49CHL1  H22B 5906   4.396   4.098  12.578
   49CHL1   C23 5907   4.556   4.212  12.483
   49CHL1  H23A 5908   4.510   4.311  12.496
   49CHL1  H23B 5909   4.666   4.224  12.490
   49CHL1   C24 5910   4.516   4.161  12.343
   49CHL1  H24A 5911   4.574   4.070  12.316
   49CHL1  H24B 5912   4.411   4.131  12.350
   49CHL1   C25 5913   4.519   4.263  12.226
   49CHL1   H25 5914   4.435   4.236  12.157
   49CHL1   C26 5915   4.493   4.408  12.267
   49CHL1  H26A 5916   4.405   4.414  12.334
   49CHL1  H26B 5917   4.581   4.450  12.321
   49CHL1  H26C 5918   4.472   4.470  12.178
   49CHL1   C27 5919   4.644   4.248  12.139
   49CHL1  H27A 5920   4.657   4.335  12.072
   49CHL1  H27B 5921   4.733   4.237  12.204
   49CHL1  H27C 5922   4.635   4.157  12.077
   50CHL1    C3 5923   0.191   4.037  13.718
   50CHL1    H3 5924   0.237   3.940  13.688
   50CHL1    O3 5925   0.193   4.048  13.860
   50CHL1   H3' 5926   0.116   4.104  13.881
   50CHL1    C4 5927   0.272   4.151  13.656
   50CHL1   H4A 5928   0.225   4.247  13.686
   50CHL1   H4B 5929   0.375   4.150  13.699
   50CHL1    C5 5930   0.273   4.136  13.505
   50CHL1    C6 5931   0.386   4.130  13.434
   50CHL1    H6 5932   0.482   4.138  13.486
   50CHL1    C7 5933   0.390   4.119  13.284
   50CHL1   H7A 5934   0.461   4.193  13.241
   50CHL1   H7B 5935   0.427   4.018  13.256
   50CHL1    C8 5936   0.253   4.135  13.214
   50CHL1    H8 5937   0.232   4.244  13.207
   50CHL1   C14 5938   0.257   4.073  13.076
   50CHL1   H14 5939   0.272   3.963  13.091
   50CHL1   C15 5940   0.370   4.117  12.981
   50CHL1  H15A 5941   0.385   4.227  12.990
   50CHL1  H15B 5942   0.465   4.065  13.005
   50CHL1   C16 5943   0.317   4.082  12.842
   50CHL1  H16A 5944   0.321   4.174  12.779
   50CHL1  H16B 5945   0.377   4.002  12.794
   50CHL1   C17 5946   0.168   4.035  12.858
   50CHL1   H17 5947   0.171   3.924  12.864
   50CHL1   C13 5948   0.126   4.086  12.998
   50CHL1   C18 5949   0.090   4.236  12.984
   50CHL1  H18A 5950  -0.001   4.247  12.922
   50CHL1  H18B 5951   0.067   4.282  13.082
   50CHL1  H18C 5952   0.171   4.294  12.937
   50CHL1   C12 5953   0.020   4.006  13.075
   50CHL1  H12A 5954  -0.080   4.013  13.027
   50CHL1  H12B 5955   0.049   3.899  13.078
   50CHL1   C11 5956   0.007   4.058  13.220
   50CHL1  H11A 5957  -0.043   4.157  13.216
   50CHL1  H11B 5958  -0.062   3.989  13.274
   50CHL1    C9 5959   0.143   4.067  13.295
   50CHL1    H9 5960   0.177   3.960  13.306
   50CHL1   C10 5961   0.135   4.122  13.440
   50CHL1   C19 5962   0.086   4.268  13.438
   50CHL1  H19A 5963   0.160   4.339  13.396
   50CHL1  H19B 5964  -0.004   4.275  13.375
   50CHL1  H19C 5965   0.059   4.302  13.540
   50CHL1    C1 5966   0.036   4.032  13.519
   50CHL1   H1A 5967  -0.068   4.055  13.488
   50CHL1   H1B 5968   0.057   3.926  13.492
   50CHL1    C2 5969   0.046   4.043  13.671
   50CHL1   H2A 5970  -0.012   3.961  13.718
   50CHL1   H2B 5971  -0.000   4.140  13.703
   50CHL1   C20 5972   0.082   4.073  12.736
   50CHL1   H20 5973   0.070   4.184  12.735
   50CHL1   C21 5974  -0.059   4.010  12.745
   50CHL1  H21A 5975  -0.114   4.048  12.833
   50CHL1  H21B 5976  -0.053   3.899  12.749
   50CHL1  H21C 5977  -0.119   4.038  12.656
   50CHL1   C22 5978   0.147   4.037  12.601
   50CHL1  H22A 5979   0.255   4.064  12.600
   50CHL1  H22B 5980   0.140   3.928  12.583
   50CHL1   C23 5981   0.083   4.115  12.485
   50CHL1  H23A 5982  -0.021   4.080  12.470
   50CHL1  H23B 5983   0.079   4.223  12.513
   50CHL1   C24 5984   0.162   4.103  12.355
   50CHL1  H24A 5985   0.269   4.129  12.374
   50CHL1  H24B 5986   0.159   3.998  12.320
   50CHL1   C25 5987   0.110   4.197  12.244
   50CHL1   H25 5988   0.129   4.302  12.277
   50CHL1   C26 5989   0.188   4.176  12.113
   50CHL1  H26A 5990   0.150   4.244  12.034
   50CHL1  H26B 5991   0.296   4.197  12.128
   50CHL1  H26C 5992   0.178   4.072  12.077
   50CHL1   C27 5993  -0.042   4.182  12.222
   50CHL1  H27A 5994  -0.071   4.076  12.209
   50CHL1  H27B 5995  -0.098   4.220  12.310
   50CHL1  H27C 5996  -0.074   4.238  12.132
   51CHL1    C3 5997   3.716   5.266  13.756
   51CHL1    H3 5998   3.825   5.247  13.750
   51CHL1    O3 5999   3.687   5.312  13.887
   51CHL1   H3' 6000   3.716   5.403  13.882
   51CHL1    C4 6001   3.673   5.375  13.657
   51CHL1   H4A 6002   3.562   5.382  13.656
   51CHL1   H4B 6003   3.712   5.474  13.690
   51CHL1    C5 6004   3.725   5.336  13.521
   51CHL1    C6 6005   3.816   5.413  13.462
   51CHL1    H6 6006   3.849   5.503  13.515
   51CHL1    C7 6007   3.877   5.387  13.326
   51CHL1   H7A 6008   3.871   5.477  13.263
   51CHL1   H7B 6009   3.984   5.361  13.338
   51CHL1    C8 6010   3.805   5.271  13.252
   51CHL1    H8 6011   3.707   5.311  13.217
   51CHL1   C14 6012   3.884   5.227  13.129
   51CHL1   H14 6013   3.985   5.195  13.166
   51CHL1   C15 6014   3.912   5.332  13.020
   51CHL1  H15A 6015   3.821   5.394  13.004
   51CHL1  H15B 6016   3.995   5.400  13.048
   51CHL1   C16 6017   3.944   5.250  12.895
   51CHL1  H16A 6018   3.882   5.287  12.810
   51CHL1  H16B 6019   4.051   5.260  12.866
   51CHL1   C17 6020   3.911   5.100  12.927
   51CHL1   H17 6021   4.008   5.052  12.955
   51CHL1   C13 6022   3.825   5.107  13.056
   51CHL1   C18 6023   3.680   5.139  13.012
   51CHL1  H18A 6024   3.677   5.223  12.940
   51CHL1  H18B 6025   3.633   5.050  12.964
   51CHL1  H18C 6026   3.617   5.166  13.098
   51CHL1   C12 6027   3.834   4.989  13.156
   51CHL1  H12A 6028   3.792   4.896  13.113
   51CHL1  H12B 6029   3.942   4.971  13.176
   51CHL1   C11 6030   3.763   5.016  13.291
   51CHL1  H11A 6031   3.655   4.997  13.281
   51CHL1  H11B 6032   3.800   4.941  13.364
   51CHL1    C9 6033   3.782   5.157  13.353
   51CHL1    H9 6034   3.882   5.147  13.402
   51CHL1   C10 6035   3.681   5.198  13.466
   51CHL1   C19 6036   3.536   5.210  13.415
   51CHL1  H19A 6037   3.468   5.248  13.495
   51CHL1  H19B 6038   3.527   5.278  13.328
   51CHL1  H19C 6039   3.497   5.110  13.387
   51CHL1    C1 6040   3.680   5.091  13.579
   51CHL1   H1A 6041   3.615   5.006  13.549
   51CHL1   H1B 6042   3.783   5.052  13.585
   51CHL1    C2 6043   3.641   5.138  13.721
   51CHL1   H2A 6044   3.664   5.060  13.796
   51CHL1   H2B 6045   3.531   5.155  13.726
   51CHL1   C20 6046   3.854   5.026  12.805
   51CHL1   H20 6047   3.758   5.075  12.776
   51CHL1   C21 6048   3.825   4.878  12.838
   51CHL1  H21A 6049   3.783   4.825  12.750
   51CHL1  H21B 6050   3.749   4.868  12.918
   51CHL1  H21C 6051   3.918   4.826  12.867
   51CHL1   C22 6052   3.943   5.031  12.678
   51CHL1  H22A 6053   3.990   5.131  12.665
   51CHL1  H22B 6054   4.025   4.957  12.688
   51CHL1   C23 6055   3.862   5.000  12.552
   51CHL1  H23A 6056   3.795   4.912  12.569
   51CHL1  H23B 6057   3.795   5.087  12.532
   51CHL1   C24 6058   3.946   4.967  12.429
   51CHL1  H24A 6059   4.022   5.047  12.411
   51CHL1  H24B 6060   4.001   4.872  12.446
   51CHL1   C25 6061   3.857   4.952  12.305
   51CHL1   H25 6062   3.769   4.889  12.332
   51CHL1   C26 6063   3.806   5.090  12.261
   51CHL1  H26A 6064   3.805   5.098  12.151
   51CHL1  H26B 6065   3.703   5.109  12.300
   51CHL1  H26C 6066   3.871   5.170  12.302
   51CHL1   C27 6067   3.930   4.881  12.191
   51CHL1  H27A 6068   3.946   4.774  12.216
   51CHL1  H27B 6069   3.870   4.886  12.097
   51CHL1  H27C 6070   4.029   4.927  12.172
   52CHL1    C3 6071   0.986   0.279  13.717
   52CHL1    H3 6072   0.983   0.389  13.705
   52CHL1    O3 6073   1.012   0.246  13.853
   52CHL1   H3' 6074   1.108   0.253  13.862
   52CHL1    C4 6075   0.851   0.216  13.678
   52CHL1   H4A 6076   0.858   0.109  13.703
   52CHL1   H4B 6077   0.773   0.259  13.745
   52CHL1    C5 6078   0.814   0.233  13.531
   52CHL1    C6 6079   0.694   0.285  13.499
   52CHL1    H6 6080   0.623   0.312  13.579
   52CHL1    C7 6081   0.649   0.312  13.359
   52CHL1   H7A 6082   0.546   0.275  13.344
   52CHL1   H7B 6083   0.648   0.422  13.343
   52CHL1    C8 6084   0.740   0.248  13.251
   52CHL1    H8 6085   0.715   0.140  13.244
   52CHL1   C14 6086   0.710   0.315  13.117
   52CHL1   H14 6087   0.737   0.423  13.131
   52CHL1   C15 6088   0.564   0.317  13.070
   52CHL1  H15A 6089   0.523   0.214  13.080
   52CHL1  H15B 6090   0.501   0.387  13.128
   52CHL1   C16 6091   0.574   0.356  12.922
   52CHL1  H16A 6092   0.516   0.282  12.864
   52CHL1  H16B 6093   0.533   0.457  12.904
   52CHL1   C17 6094   0.726   0.351  12.884
   52CHL1   H17 6095   0.764   0.455  12.894
   52CHL1   C13 6096   0.793   0.268  12.998
   52CHL1   C18 6097   0.769   0.118  12.969
   52CHL1  H18A 6098   0.838   0.084  12.890
   52CHL1  H18B 6099   0.786   0.056  13.059
   52CHL1  H18C 6100   0.665   0.101  12.934
   52CHL1   C12 6101   0.941   0.292  13.033
   52CHL1  H12A 6102   1.008   0.251  12.955
   52CHL1  H12B 6103   0.958   0.401  13.041
   52CHL1   C11 6104   0.980   0.224  13.167
   52CHL1  H11A 6105   0.977   0.114  13.151
   52CHL1  H11B 6106   1.085   0.251  13.192
   52CHL1    C9 6107   0.888   0.263  13.287
   52CHL1    H9 6108   0.905   0.373  13.297
   52CHL1   C10 6109   0.925   0.203  13.426
   52CHL1   C19 6110   0.939   0.050  13.408
   52CHL1  H19A 6111   1.017   0.025  13.333
   52CHL1  H19B 6112   0.971   0.002  13.502
   52CHL1  H19C 6113   0.842   0.005  13.376
   52CHL1    C1 6114   1.062   0.258  13.478
   52CHL1   H1A 6115   1.143   0.218  13.413
   52CHL1   H1B 6116   1.062   0.368  13.467
   52CHL1    C2 6117   1.096   0.225  13.625
   52CHL1   H2A 6118   1.194   0.269  13.652
   52CHL1   H2B 6119   1.104   0.115  13.640
   52CHL1   C20 6120   0.746   0.307  12.738
   52CHL1   H20 6121   0.723   0.199  12.730
   52CHL1   C21 6122   0.892   0.330  12.695
   52CHL1  H21A 6123   0.899   0.423  12.635
   52CHL1  H21B 6124   0.927   0.246  12.631
   52CHL1  H21C 6125   0.962   0.340  12.780
   52CHL1   C22 6126   0.651   0.380  12.638
   52CHL1  H22A 6127   0.545   0.360  12.663
   52CHL1  H22B 6128   0.667   0.490  12.649
   52CHL1   C23 6129   0.672   0.343  12.490
   52CHL1  H23A 6130   0.676   0.437  12.430
   52CHL1  H23B 6131   0.769   0.290  12.476
   52CHL1   C24 6132   0.560   0.255  12.433
   52CHL1  H24A 6133   0.523   0.184  12.511
   52CHL1  H24B 6134   0.477   0.320  12.402
   52CHL1   C25 6135   0.603   0.175  12.308
   52CHL1   H25 6136   0.696   0.120  12.334
   52CHL1   C26 6137   0.495   0.072  12.269
   52CHL1  H26A 6138   0.477   0.002  12.353
   52CHL1  H26B 6139   0.400   0.123  12.244
   52CHL1  H26C 6140   0.529   0.014  12.181
   52CHL1   C27 6141   0.631   0.267  12.189
   52CHL1  H27A 6142   0.537   0.315  12.154
   52CHL1  H27B 6143   0.703   0.347  12.216
   52CHL1  H27C 6144   0.674   0.208  12.105
   53CHL1    C3 6145   4.922   4.652  13.782
   53CHL1    H3 6146   4.908   4.755  13.740
   53CHL1    O3 6147   4.916   4.661  13.924
   53CHL1   H3' 6148   5.009   4.664  13.951
   53CHL1    C4 6149   4.810   4.559  13.732
   53CHL1   H4A 6150   4.828   4.457  13.772
   53CHL1   H4B 6151   4.714   4.594  13.775
   53CHL1    C5 6152   4.808   4.557  13.580
   53CHL1    C6 6153   4.698   4.592  13.512
   53CHL1    H6 6154   4.607   4.620  13.566
   53CHL1    C7 6155   4.690   4.589  13.362
   53CHL1   H7A 6156   4.595   4.542  13.329
   53CHL1   H7B 6157   4.692   4.694  13.325
   53CHL1    C8 6158   4.808   4.516  13.293
   53CHL1    H8 6159   4.793   4.406  13.305
   53CHL1   C14 6160   4.810   4.550  13.144
   53CHL1   H14 6161   4.823   4.661  13.138
   53CHL1   C15 6162   4.682   4.519  13.065
   53CHL1  H15A 6163   4.645   4.419  13.094
   53CHL1  H15B 6164   4.603   4.594  13.084
   53CHL1   C16 6165   4.728   4.519  12.919
   53CHL1  H16A 6166   4.699   4.421  12.873
   53CHL1  H16B 6167   4.681   4.600  12.861
   53CHL1   C17 6168   4.884   4.532  12.919
   53CHL1   H17 6169   4.906   4.641  12.911
   53CHL1   C13 6170   4.927   4.491  13.063
   53CHL1   C18 6171   4.928   4.337  13.071
   53CHL1  H18A 6172   4.937   4.301  13.175
   53CHL1  H18B 6173   4.836   4.295  13.029
   53CHL1  H18C 6174   5.013   4.296  13.013
   53CHL1   C12 6175   5.055   4.553  13.124
   53CHL1  H12A 6176   5.145   4.513  13.074
   53CHL1  H12B 6177   5.053   4.663  13.110
   53CHL1   C11 6178   5.065   4.520  13.275
   53CHL1  H11A 6179   5.083   4.412  13.281
   53CHL1  H11B 6180   5.155   4.571  13.316
   53CHL1    C9 6181   4.939   4.558  13.359
   53CHL1    H9 6182   4.938   4.670  13.357
   53CHL1   C10 6183   4.942   4.519  13.511
   53CHL1   C19 6184   4.952   4.365  13.529
   53CHL1  H19A 6185   4.994   4.338  13.628
   53CHL1  H19B 6186   4.853   4.314  13.519
   53CHL1  H19C 6187   5.016   4.320  13.452
   53CHL1    C1 6188   5.063   4.589  13.580
   53CHL1   H1A 6189   5.156   4.535  13.549
   53CHL1   H1B 6190   5.071   4.693  13.540
   53CHL1    C2 6191   5.058   4.599  13.734
   53CHL1   H2A 6192   5.139   4.666  13.769
   53CHL1   H2B 6193   5.074   4.497  13.777
   53CHL1   C20 6194   4.944   4.465  12.793
   53CHL1   H20 6195   4.923   4.356  12.796
   53CHL1   C21 6196   5.097   4.485  12.788
   53CHL1  H21A 6197   5.142   4.421  12.709
   53CHL1  H21B 6198   5.144   4.455  12.883
   53CHL1  H21C 6199   5.121   4.591  12.767
   53CHL1   C22 6200   4.880   4.523  12.662
   53CHL1  H22A 6201   4.771   4.505  12.661
   53CHL1  H22B 6202   4.895   4.633  12.666
   53CHL1   C23 6203   4.936   4.474  12.526
   53CHL1  H23A 6204   5.045   4.454  12.533
   53CHL1  H23B 6205   4.886   4.379  12.498
   53CHL1   C24 6206   4.915   4.581  12.417
   53CHL1  H24A 6207   4.805   4.595  12.405
   53CHL1  H24B 6208   4.954   4.677  12.454
   53CHL1   C25 6209   4.974   4.551  12.276
   53CHL1   H25 6210   4.966   4.646  12.217
   53CHL1   C26 6211   5.121   4.507  12.269
   53CHL1  H26A 6212   5.141   4.461  12.170
   53CHL1  H26B 6213   5.192   4.591  12.279
   53CHL1  H26C 6214   5.144   4.432  12.348
   53CHL1   C27 6215   4.889   4.447  12.205
   53CHL1  H27A 6216   4.782   4.476  12.210
   53CHL1  H27B 6217   4.919   4.437  12.099
   53CHL1  H27C 6218   4.903   4.349  12.255
   54CHL1    C3 6219   0.238   0.131  13.708
   54CHL1    H3 6220   0.339   0.090  13.682
   54CHL1    O3 6221   0.241   0.177  13.842
   54CHL1   H3' 6222   0.206   0.106  13.898
   54CHL1    C4 6223   0.212   0.251  13.618
   54CHL1   H4A 6224   0.122   0.305  13.653
   54CHL1   H4B 6225   0.297   0.321  13.631
   54CHL1    C5 6226   0.195   0.207  13.474
   54CHL1    C6 6227   0.274   0.258  13.380
   54CHL1    H6 6228   0.349   0.332  13.409
   54CHL1    C7 6229   0.258   0.232  13.234
   54CHL1   H7A 6230   0.266   0.326  13.176
   54CHL1   H7B 6231   0.340   0.165  13.200
   54CHL1    C8 6232   0.123   0.165  13.201
   54CHL1    H8 6233   0.042   0.242  13.207
   54CHL1   C14 6234   0.131   0.112  13.060
   54CHL1   H14 6235   0.209   0.031  13.062
   54CHL1   C15 6236   0.180   0.210  12.953
   54CHL1  H15A 6237   0.131   0.308  12.971
   54CHL1  H15B 6238   0.290   0.223  12.955
   54CHL1   C16 6239   0.134   0.146  12.822
   54CHL1  H16A 6240   0.064   0.216  12.770
   54CHL1  H16B 6241   0.220   0.123  12.756
   54CHL1   C17 6242   0.057   0.017  12.861
   54CHL1   H17 6243   0.133  -0.064  12.872
   54CHL1   C13 6244   0.006   0.043  13.005
   54CHL1   C18 6245  -0.112   0.143  12.995
   54CHL1  H18A 6246  -0.080   0.244  12.961
   54CHL1  H18B 6247  -0.189   0.108  12.924
   54CHL1  H18C 6248  -0.161   0.157  13.093
   54CHL1   C12 6249  -0.019  -0.077  13.100
   54CHL1  H12A 6250  -0.111  -0.132  13.073
   54CHL1  H12B 6251   0.067  -0.146  13.093
   54CHL1   C11 6252  -0.030  -0.033  13.249
   54CHL1  H11A 6253  -0.123   0.025  13.260
   54CHL1  H11B 6254  -0.038  -0.123  13.314
   54CHL1    C9 6255   0.091   0.052  13.298
   54CHL1    H9 6256   0.178  -0.016  13.293
   54CHL1   C10 6257   0.089   0.099  13.447
   54CHL1   C19 6258  -0.049   0.159  13.480
   54CHL1  H19A 6259  -0.053   0.206  13.580
   54CHL1  H19B 6260  -0.077   0.237  13.406
   54CHL1  H19C 6261  -0.127   0.079  13.480
   54CHL1    C1 6262   0.120  -0.020  13.543
   54CHL1   H1A 6263   0.042  -0.098  13.532
   54CHL1   H1B 6264   0.217  -0.067  13.512
   54CHL1    C2 6265   0.132   0.022  13.691
   54CHL1   H2A 6266   0.154  -0.066  13.755
   54CHL1   H2B 6267   0.034   0.062  13.724
   54CHL1   C20 6268  -0.037  -0.028  12.749
   54CHL1   H20 6269  -0.114   0.050  12.729
   54CHL1   C21 6270  -0.110  -0.158  12.789
   54CHL1  H21A 6271  -0.167  -0.197  12.702
   54CHL1  H21B 6272  -0.181  -0.141  12.871
   54CHL1  H21C 6273  -0.036  -0.236  12.819
   54CHL1   C22 6274   0.039  -0.053  12.615
   54CHL1  H22A 6275   0.138  -0.099  12.635
   54CHL1  H22B 6276  -0.022  -0.128  12.562
   54CHL1   C23 6277   0.053   0.068  12.521
   54CHL1  H23A 6278  -0.042   0.124  12.520
   54CHL1  H23B 6279   0.132   0.136  12.558
   54CHL1   C24 6280   0.090   0.029  12.376
   54CHL1  H24A 6281   0.111   0.122  12.318
   54CHL1  H24B 6282   0.184  -0.030  12.378
   54CHL1   C25 6283  -0.018  -0.051  12.300
   54CHL1   H25 6284  -0.037  -0.144  12.357
   54CHL1   C26 6285  -0.154   0.021  12.294
   54CHL1  H26A 6286  -0.225  -0.037  12.231
   54CHL1  H26B 6287  -0.198   0.031  12.395
   54CHL1  H26C 6288  -0.141   0.121  12.250
   54CHL1   C27 6289   0.030  -0.092  12.161
   54CHL1  H27A 6290  -0.052  -0.142  12.105
   54CHL1  H27B 6291   0.063  -0.003  12.104
   54CHL1  H27C 6292   0.116  -0.162  12.167
   55CHL1    C3 6293   1.774   2.591  10.230
   55CHL1    H3 6294   1.680   2.542  10.264
   55CHL1    O3 6295   1.767   2.608  10.089
   55CHL1   H3' 6296   1.844   2.661  10.068
   55CHL1    C4 6297   1.788   2.729  10.297
   55CHL1   H4A 6298   1.882   2.777  10.262
   55CHL1   H4B 6299   1.705   2.793  10.261
   55CHL1    C5 6300   1.788   2.713  10.448
   55CHL1    C6 6301   1.692   2.771  10.521
   55CHL1    H6 6302   1.618   2.835  10.473
   55CHL1    C7 6303   1.683   2.759  10.670
   55CHL1   H7A 6304   1.660   2.859  10.715
   55CHL1   H7B 6305   1.600   2.690  10.697
   55CHL1    C8 6306   1.814   2.708  10.734
   55CHL1    H8 6307   1.886   2.792  10.729
   55CHL1   C14 6308   1.790   2.667  10.878
   55CHL1   H14 6309   1.728   2.574  10.875
   55CHL1   C15 6310   1.709   2.764  10.964
   55CHL1  H15A 6311   1.753   2.865  10.949
   55CHL1  H15B 6312   1.602   2.767  10.938
   55CHL1   C16 6313   1.734   2.713  11.106
   55CHL1  H16A 6314   1.745   2.800  11.173
   55CHL1  H16B 6315   1.647   2.653  11.140
   55CHL1   C17 6316   1.860   2.621  11.102
   55CHL1   H17 6317   1.824   2.517  11.112
   55CHL1   C13 6318   1.916   2.632  10.956
   55CHL1   C18 6319   2.020   2.747  10.951
   55CHL1  H18A 6320   2.110   2.722  11.010
   55CHL1  H18B 6321   2.055   2.766  10.848
   55CHL1  H18C 6322   1.977   2.841  10.990
   55CHL1   C12 6323   1.971   2.504  10.889
   55CHL1  H12A 6324   2.066   2.472  10.936
   55CHL1  H12B 6325   1.897   2.422  10.903
   55CHL1   C11 6326   1.993   2.523  10.736
   55CHL1  H11A 6327   2.083   2.587  10.725
   55CHL1  H11B 6328   2.016   2.425  10.690
   55CHL1    C9 6329   1.873   2.588  10.658
   55CHL1    H9 6330   1.792   2.511  10.660
   55CHL1   C10 6331   1.896   2.620  10.507
   55CHL1   C19 6332   2.032   2.694  10.494
   55CHL1  H19A 6333   2.049   2.730  10.391
   55CHL1  H19B 6334   2.036   2.781  10.562
   55CHL1  H19C 6335   2.116   2.626  10.517
   55CHL1    C1 6336   1.897   2.487  10.426
   55CHL1   H1A 6337   1.988   2.428  10.453
   55CHL1   H1B 6338   1.808   2.427  10.455
   55CHL1    C2 6339   1.893   2.503  10.272
   55CHL1   H2A 6340   1.885   2.403  10.224
   55CHL1   H2B 6341   1.988   2.550  10.237
   55CHL1   C20 6342   1.954   2.650  11.221
   55CHL1   H20 6343   2.002   2.750  11.206
   55CHL1   C21 6344   2.065   2.544  11.229
   55CHL1  H21A 6345   2.123   2.540  11.135
   55CHL1  H21B 6346   2.023   2.444  11.250
   55CHL1  H21C 6347   2.135   2.570  11.311
   55CHL1   C22 6348   1.881   2.661  11.358
   55CHL1  H22A 6349   1.958   2.670  11.438
   55CHL1  H22B 6350   1.822   2.755  11.362
   55CHL1   C23 6351   1.789   2.544  11.393
   55CHL1  H23A 6352   1.713   2.530  11.313
   55CHL1  H23B 6353   1.849   2.451  11.399
   55CHL1   C24 6354   1.712   2.567  11.524
   55CHL1  H24A 6355   1.785   2.574  11.608
   55CHL1  H24B 6356   1.659   2.664  11.517
   55CHL1   C25 6357   1.611   2.456  11.555
   55CHL1   H25 6358   1.544   2.445  11.466
   55CHL1   C26 6359   1.683   2.323  11.577
   55CHL1  H26A 6360   1.757   2.332  11.659
   55CHL1  H26B 6361   1.612   2.243  11.603
   55CHL1  H26C 6362   1.736   2.291  11.485
   55CHL1   C27 6363   1.523   2.494  11.675
   55CHL1  H27A 6364   1.571   2.574  11.735
   55CHL1  H27B 6365   1.424   2.531  11.641
   55CHL1  H27C 6366   1.507   2.407  11.741
   56CHL1    C3 6367   2.217   1.927  10.252
   56CHL1    H3 6368   2.325   1.913  10.271
   56CHL1    O3 6369   2.193   1.904  10.113
   56CHL1   H3' 6370   2.196   1.990  10.067
   56CHL1    C4 6371   2.135   1.824  10.330
   56CHL1   H4A 6372   2.029   1.835  10.299
   56CHL1   H4B 6373   2.168   1.724  10.295
   56CHL1    C5 6374   2.145   1.837  10.480
   56CHL1    C6 6375   2.186   1.733  10.555
   56CHL1    H6 6376   2.208   1.637  10.507
   56CHL1    C7 6377   2.196   1.738  10.704
   56CHL1   H7A 6378   2.157   1.646  10.752
   56CHL1   H7B 6379   2.302   1.742  10.731
   56CHL1    C8 6380   2.126   1.860  10.768
   56CHL1    H8 6381   2.017   1.842  10.770
   56CHL1   C14 6382   2.180   1.876  10.910
   56CHL1   H14 6383   2.289   1.895  10.896
   56CHL1   C15 6384   2.174   1.755  11.004
   56CHL1  H15A 6385   2.070   1.716  11.006
   56CHL1  H15B 6386   2.243   1.674  10.976
   56CHL1   C16 6387   2.208   1.816  11.141
   56CHL1  H16A 6388   2.130   1.787  11.215
   56CHL1  H16B 6389   2.307   1.780  11.177
   56CHL1   C17 6390   2.211   1.971  11.120
   56CHL1   H17 6391   2.317   1.996  11.095
   56CHL1   C13 6392   2.129   1.995  10.990
   56CHL1   C18 6393   1.978   1.982  11.021
   56CHL1  H18A 6394   1.957   1.896  11.088
   56CHL1  H18B 6395   1.942   2.074  11.070
   56CHL1  H18C 6396   1.920   1.968  10.928
   56CHL1   C12 6397   2.158   2.122  10.908
   56CHL1  H12A 6398   2.113   2.211  10.955
   56CHL1  H12B 6399   2.268   2.134  10.905
   56CHL1   C11 6400   2.104   2.113  10.763
   56CHL1  H11A 6401   1.993   2.111  10.768
   56CHL1  H11B 6402   2.134   2.204  10.707
   56CHL1    C9 6403   2.155   1.987  10.687
   56CHL1    H9 6404   2.267   1.997  10.686
   56CHL1   C10 6405   2.114   1.977  10.537
   56CHL1   C19 6406   1.961   2.000  10.526
   56CHL1  H19A 6407   1.934   2.102  10.560
   56CHL1  H19B 6408   1.929   1.993  10.420
   56CHL1  H19C 6409   1.905   1.926  10.585
   56CHL1    C1 6410   2.191   2.083  10.451
   56CHL1   H1A 6411   2.158   2.185  10.480
   56CHL1   H1B 6412   2.300   2.076  10.475
   56CHL1    C2 6413   2.177   2.069  10.297
   56CHL1   H2A 6414   2.242   2.144  10.246
   56CHL1   H2B 6415   2.072   2.088  10.267
   56CHL1   C20 6416   2.175   2.051  11.246
   56CHL1   H20 6417   2.065   2.043  11.264
   56CHL1   C21 6418   2.215   2.198  11.225
   56CHL1  H21A 6419   2.321   2.204  11.193
   56CHL1  H21B 6420   2.205   2.255  11.319
   56CHL1  H21C 6421   2.150   2.248  11.150
   56CHL1   C22 6422   2.245   2.002  11.375
   56CHL1  H22A 6423   2.255   1.891  11.380
   56CHL1  H22B 6424   2.347   2.044  11.378
   56CHL1   C23 6425   2.166   2.046  11.499
   56CHL1  H23A 6426   2.113   2.142  11.477
   56CHL1  H23B 6427   2.087   1.970  11.519
   56CHL1   C24 6428   2.252   2.068  11.624
   56CHL1  H24A 6429   2.296   1.971  11.656
   56CHL1  H24B 6430   2.335   2.137  11.600
   56CHL1   C25 6431   2.171   2.127  11.742
   56CHL1   H25 6432   2.126   2.224  11.709
   56CHL1   C26 6433   2.056   2.034  11.781
   56CHL1  H26A 6434   2.021   2.058  11.884
   56CHL1  H26B 6435   1.971   2.044  11.711
   56CHL1  H26C 6436   2.090   1.929  11.779
   56CHL1   C27 6437   2.261   2.156  11.862
   56CHL1  H27A 6438   2.329   2.240  11.839
   56CHL1  H27B 6439   2.200   2.183  11.951
   56CHL1  H27C 6440   2.322   2.067  11.887
   57CHL1    C3 6441   3.317   2.706  10.239
   57CHL1    H3 6442   3.317   2.815  10.212
   57CHL1    O3 6443   3.314   2.629  10.120
   57CHL1   H3' 6444   3.380   2.673  10.063
   57CHL1    C4 6445   3.447   2.672  10.314
   57CHL1   H4A 6446   3.453   2.562  10.324
   57CHL1   H4B 6447   3.532   2.704  10.250
   57CHL1    C5 6448   3.456   2.735  10.452
   57CHL1    C6 6449   3.563   2.808  10.491
   57CHL1    H6 6450   3.648   2.822  10.422
   57CHL1    C7 6451   3.581   2.865  10.629
   57CHL1   H7A 6452   3.683   2.844  10.666
   57CHL1   H7B 6453   3.568   2.976  10.625
   57CHL1    C8 6454   3.478   2.806  10.729
   57CHL1    H8 6455   3.508   2.701  10.748
   57CHL1   C14 6456   3.478   2.879  10.864
   57CHL1   H14 6457   3.452   2.986  10.842
   57CHL1   C15 6458   3.610   2.885  10.943
   57CHL1  H15A 6459   3.659   2.786  10.941
   57CHL1  H15B 6460   3.680   2.960  10.900
   57CHL1   C16 6461   3.566   2.922  11.085
   57CHL1  H16A 6462   3.620   2.861  11.160
   57CHL1  H16B 6463   3.587   3.029  11.103
   57CHL1   C17 6464   3.411   2.900  11.094
   57CHL1   H17 6465   3.366   3.002  11.086
   57CHL1   C13 6466   3.373   2.828  10.962
   57CHL1   C18 6467   3.390   2.675  10.986
   57CHL1  H18A 6468   3.381   2.618  10.892
   57CHL1  H18B 6469   3.489   2.653  11.030
   57CHL1  H18C 6470   3.311   2.637  11.054
   57CHL1   C12 6471   3.238   2.865  10.898
   57CHL1  H12A 6472   3.149   2.839  10.957
   57CHL1  H12B 6473   3.237   2.975  10.883
   57CHL1   C11 6474   3.221   2.795  10.762
   57CHL1  H11A 6475   3.204   2.689  10.783
   57CHL1  H11B 6476   3.128   2.836  10.715
   57CHL1    C9 6477   3.339   2.811  10.664
   57CHL1    H9 6478   3.329   2.916  10.626
   57CHL1   C10 6479   3.331   2.717  10.540
   57CHL1   C19 6480   3.325   2.568  10.585
   57CHL1  H19A 6481   3.411   2.543  10.651
   57CHL1  H19B 6482   3.231   2.547  10.639
   57CHL1  H19C 6483   3.329   2.499  10.499
   57CHL1    C1 6484   3.203   2.751  10.459
   57CHL1   H1A 6485   3.112   2.727  10.519
   57CHL1   H1B 6486   3.202   2.860  10.438
   57CHL1    C2 6487   3.193   2.677  10.324
   57CHL1   H2A 6488   3.101   2.708  10.270
   57CHL1   H2B 6489   3.186   2.567  10.341
   57CHL1   C20 6490   3.362   2.841  11.229
   57CHL1   H20 6491   3.396   2.736  11.241
   57CHL1   C21 6492   3.210   2.845  11.231
   57CHL1  H21A 6493   3.168   2.792  11.319
   57CHL1  H21B 6494   3.179   2.951  11.234
   57CHL1  H21C 6495   3.165   2.796  11.143
   57CHL1   C22 6496   3.412   2.921  11.353
   57CHL1  H22A 6497   3.516   2.891  11.377
   57CHL1  H22B 6498   3.412   3.027  11.321
   57CHL1   C23 6499   3.326   2.921  11.482
   57CHL1  H23A 6500   3.237   2.986  11.462
   57CHL1  H23B 6501   3.287   2.819  11.504
   57CHL1   C24 6502   3.401   2.974  11.607
   57CHL1  H24A 6503   3.458   2.888  11.649
   57CHL1  H24B 6504   3.475   3.051  11.578
   57CHL1   C25 6505   3.313   3.032  11.720
   57CHL1   H25 6506   3.240   2.953  11.749
   57CHL1   C26 6507   3.399   3.065  11.844
   57CHL1  H26A 6508   3.476   2.987  11.860
   57CHL1  H26B 6509   3.449   3.163  11.829
   57CHL1  H26C 6510   3.335   3.072  11.935
   57CHL1   C27 6511   3.236   3.159  11.680
   57CHL1  H27A 6512   3.176   3.198  11.764
   57CHL1  H27B 6513   3.307   3.240  11.652
   57CHL1  H27C 6514   3.168   3.141  11.594
   58CHL1    C3 6515   3.508   1.353  10.231
   58CHL1    H3 6516   3.407   1.381  10.270
   58CHL1    O3 6517   3.503   1.339  10.090
   58CHL1   H3' 6518   3.411   1.321  10.065
   58CHL1    C4 6519   3.608   1.463  10.265
   58CHL1   H4A 6520   3.707   1.434  10.225
   58CHL1   H4B 6521   3.577   1.556  10.211
   58CHL1    C5 6522   3.615   1.482  10.414
   58CHL1    C6 6523   3.583   1.601  10.468
   58CHL1    H6 6524   3.557   1.685  10.402
   58CHL1    C7 6525   3.585   1.628  10.615
   58CHL1   H7A 6526   3.638   1.724  10.634
   58CHL1   H7B 6527   3.481   1.639  10.650
   58CHL1    C8 6528   3.655   1.516  10.697
   58CHL1    H8 6529   3.765   1.530  10.687
   58CHL1   C14 6530   3.613   1.529  10.842
   58CHL1   H14 6531   3.503   1.507  10.845
   58CHL1   C15 6532   3.626   1.670  10.900
   58CHL1  H15A 6533   3.715   1.715  10.853
   58CHL1  H15B 6534   3.536   1.732  10.877
   58CHL1   C16 6535   3.644   1.649  11.050
   58CHL1  H16A 6536   3.748   1.677  11.078
   58CHL1  H16B 6537   3.576   1.712  11.109
   58CHL1   C17 6538   3.625   1.496  11.075
   58CHL1   H17 6539   3.515   1.477  11.078
   58CHL1   C13 6540   3.677   1.433  10.942
   58CHL1   C18 6541   3.832   1.444  10.940
   58CHL1  H18A 6542   3.875   1.382  11.022
   58CHL1  H18B 6543   3.873   1.406  10.845
   58CHL1  H18C 6544   3.867   1.548  10.953
   58CHL1   C12 6545   3.631   1.292  10.897
   58CHL1  H12A 6546   3.680   1.214  10.959
   58CHL1  H12B 6547   3.522   1.284  10.911
   58CHL1   C11 6548   3.665   1.265  10.747
   58CHL1  H11A 6549   3.775   1.253  10.738
   58CHL1  H11B 6550   3.618   1.169  10.718
   58CHL1    C9 6551   3.618   1.377  10.648
   58CHL1    H9 6552   3.507   1.374  10.652
   58CHL1   C10 6553   3.649   1.355  10.497
   58CHL1   C19 6554   3.801   1.331  10.476
   58CHL1  H19A 6555   3.860   1.420  10.506
   58CHL1  H19B 6556   3.837   1.245  10.536
   58CHL1  H19C 6557   3.823   1.308  10.370
   58CHL1    C1 6558   3.567   1.233  10.445
   58CHL1   H1A 6559   3.611   1.139  10.486
   58CHL1   H1B 6560   3.464   1.241  10.485
   58CHL1    C2 6561   3.555   1.221  10.292
   58CHL1   H2A 6562   3.483   1.140  10.266
   58CHL1   H2B 6563   3.653   1.196  10.249
   58CHL1   C20 6564   3.681   1.458  11.213
   58CHL1   H20 6565   3.789   1.487  11.217
   58CHL1   C21 6566   3.672   1.307  11.236
   58CHL1  H21A 6567   3.729   1.253  11.159
   58CHL1  H21B 6568   3.566   1.273  11.233
   58CHL1  H21C 6569   3.715   1.279  11.335
   58CHL1   C22 6570   3.611   1.534  11.331
   58CHL1  H22A 6571   3.605   1.643  11.309
   58CHL1  H22B 6572   3.507   1.497  11.343
   58CHL1   C23 6573   3.685   1.523  11.466
   58CHL1  H23A 6574   3.676   1.419  11.505
   58CHL1  H23B 6575   3.792   1.541  11.443
   58CHL1   C24 6576   3.639   1.624  11.573
   58CHL1  H24A 6577   3.634   1.725  11.527
   58CHL1  H24B 6578   3.537   1.598  11.608
   58CHL1   C25 6579   3.731   1.638  11.698
   58CHL1   H25 6580   3.815   1.705  11.668
   58CHL1   C26 6581   3.657   1.707  11.812
   58CHL1  H26A 6582   3.579   1.641  11.855
   58CHL1  H26B 6583   3.727   1.736  11.893
   58CHL1  H26C 6584   3.607   1.799  11.774
   58CHL1   C27 6585   3.791   1.505  11.748
   58CHL1  H27A 6586   3.864   1.462  11.676
   58CHL1  H27B 6587   3.845   1.521  11.844
   58CHL1  H27C 6588   3.711   1.430  11.764
   59CHL1    C3 6589   1.692   4.162  10.215
   59CHL1    H3 6590   1.775   4.107  10.264
   59CHL1    O3 6591   1.726   4.184  10.078
   59CHL1   H3' 6592   1.789   4.114  10.053
   59CHL1    C4 6593   1.561   4.082  10.223
   59CHL1   H4A 6594   1.482   4.138  10.169
   59CHL1   H4B 6595   1.576   3.986  10.168
   59CHL1    C5 6596   1.514   4.059  10.365
   59CHL1    C6 6597   1.483   3.936  10.410
   59CHL1    H6 6598   1.489   3.851  10.340
   59CHL1    C7 6599   1.435   3.906  10.549
   59CHL1   H7A 6600   1.337   3.854  10.545
   59CHL1   H7B 6601   1.505   3.835  10.595
   59CHL1    C8 6602   1.418   4.029  10.641
   59CHL1    H8 6603   1.313   4.063  10.631
   59CHL1   C14 6604   1.448   3.994  10.787
   59CHL1   H14 6605   1.558   3.980  10.792
   59CHL1   C15 6606   1.391   3.864  10.849
   59CHL1  H15A 6607   1.283   3.854  10.823
   59CHL1  H15B 6608   1.446   3.775  10.813
   59CHL1   C16 6609   1.409   3.886  11.000
   59CHL1  H16A 6610   1.311   3.875  11.050
   59CHL1  H16B 6611   1.480   3.813  11.044
   59CHL1   C17 6612   1.463   4.032  11.018
   59CHL1   H17 6613   1.574   4.025  11.014
   59CHL1   C13 6614   1.420   4.105  10.889
   59CHL1   C18 6615   1.268   4.135  10.895
   59CHL1  H18A 6616   1.231   4.169  10.796
   59CHL1  H18B 6617   1.210   4.045  10.924
   59CHL1  H18C 6618   1.248   4.215  10.969
   59CHL1   C12 6619   1.504   4.228  10.848
   59CHL1  H12A 6620   1.477   4.317  10.909
   59CHL1  H12B 6621   1.612   4.206  10.865
   59CHL1   C11 6622   1.485   4.265  10.700
   59CHL1  H11A 6623   1.379   4.298  10.686
   59CHL1  H11B 6624   1.550   4.351  10.677
   59CHL1    C9 6625   1.510   4.146  10.605
   59CHL1    H9 6626   1.614   4.111  10.626
   59CHL1   C10 6627   1.511   4.185  10.455
   59CHL1   C19 6628   1.381   4.261  10.421
   59CHL1  H19A 6629   1.373   4.356  10.476
   59CHL1  H19B 6630   1.374   4.284  10.313
   59CHL1  H19C 6631   1.292   4.199  10.446
   59CHL1    C1 6632   1.634   4.278  10.430
   59CHL1   H1A 6633   1.613   4.378  10.474
   59CHL1   H1B 6634   1.722   4.236  10.484
   59CHL1    C2 6635   1.673   4.298  10.283
   59CHL1   H2A 6636   1.766   4.359  10.276
   59CHL1   H2B 6637   1.592   4.354  10.230
   59CHL1   C20 6638   1.428   4.092  11.154
   59CHL1   H20 6639   1.317   4.087  11.167
   59CHL1   C21 6640   1.469   4.240  11.165
   59CHL1  H21A 6641   1.405   4.303  11.100
   59CHL1  H21B 6642   1.575   4.254  11.137
   59CHL1  H21C 6643   1.455   4.277  11.269
   59CHL1   C22 6644   1.491   4.014  11.272
   59CHL1  H22A 6645   1.581   3.957  11.239
   59CHL1  H22B 6646   1.527   4.088  11.347
   59CHL1   C23 6647   1.392   3.923  11.346
   59CHL1  H23A 6648   1.301   3.982  11.370
   59CHL1  H23B 6649   1.360   3.839  11.279
   59CHL1   C24 6650   1.449   3.865  11.476
   59CHL1  H24A 6651   1.520   3.784  11.451
   59CHL1  H24B 6652   1.506   3.944  11.529
   59CHL1   C25 6653   1.344   3.811  11.575
   59CHL1   H25 6654   1.282   3.893  11.613
   59CHL1   C26 6655   1.236   3.719  11.516
   59CHL1  H26A 6656   1.277   3.636  11.456
   59CHL1  H26B 6657   1.174   3.676  11.597
   59CHL1  H26C 6658   1.170   3.779  11.451
   59CHL1   C27 6659   1.418   3.756  11.697
   59CHL1  H27A 6660   1.502   3.690  11.666
   59CHL1  H27B 6661   1.463   3.840  11.755
   59CHL1  H27C 6662   1.350   3.700  11.764
   60CHL1    C3 6663   2.438   4.357  10.261
   60CHL1    H3 6664   2.500   4.264  10.267
   60CHL1    O3 6665   2.425   4.393  10.126
   60CHL1   H3' 6666   2.371   4.473  10.126
   60CHL1    C4 6667   2.298   4.333  10.316
   60CHL1   H4A 6668   2.235   4.422  10.299
   60CHL1   H4B 6669   2.250   4.250  10.259
   60CHL1    C5 6670   2.309   4.303  10.464
   60CHL1    C6 6671   2.270   4.185  10.513
   60CHL1    H6 6672   2.232   4.110  10.443
   60CHL1    C7 6673   2.274   4.149  10.658
   60CHL1   H7A 6674   2.184   4.090  10.686
   60CHL1   H7B 6675   2.363   4.085  10.674
   60CHL1    C8 6676   2.287   4.274  10.747
   60CHL1    H8 6677   2.192   4.331  10.740
   60CHL1   C14 6678   2.312   4.236  10.893
   60CHL1   H14 6679   2.409   4.180  10.893
   60CHL1   C15 6680   2.212   4.142  10.962
   60CHL1  H15A 6681   2.109   4.173  10.936
   60CHL1  H15B 6682   2.226   4.036  10.932
   60CHL1   C16 6683   2.237   4.164  11.113
   60CHL1  H16A 6684   2.141   4.190  11.161
   60CHL1  H16B 6685   2.279   4.073  11.161
   60CHL1   C17 6686   2.338   4.283  11.125
   60CHL1   H17 6687   2.440   4.238  11.130
   60CHL1   C13 6688   2.331   4.354  10.988
   60CHL1   C18 6689   2.206   4.446  10.987
   60CHL1  H18A 6690   2.186   4.486  10.885
   60CHL1  H18B 6691   2.115   4.392  11.020
   60CHL1  H18C 6692   2.221   4.533  11.053
   60CHL1   C12 6693   2.457   4.426  10.939
   60CHL1  H12A 6694   2.486   4.513  11.002
   60CHL1  H12B 6695   2.539   4.353  10.942
   60CHL1   C11 6696   2.443   4.472  10.793
   60CHL1  H11A 6697   2.366   4.551  10.793
   60CHL1  H11B 6698   2.539   4.517  10.760
   60CHL1    C9 6699   2.401   4.361  10.694
   60CHL1    H9 6700   2.489   4.292  10.689
   60CHL1   C10 6701   2.377   4.411  10.549
   60CHL1   C19 6702   2.288   4.538  10.548
   60CHL1  H19A 6703   2.192   4.518  10.599
   60CHL1  H19B 6704   2.339   4.622  10.600
   60CHL1  H19C 6705   2.268   4.574  10.446
   60CHL1    C1 6706   2.515   4.440  10.484
   60CHL1   H1A 6707   2.564   4.525  10.536
   60CHL1   H1B 6708   2.580   4.351  10.496
   60CHL1    C2 6709   2.507   4.471  10.334
   60CHL1   H2A 6710   2.607   4.488  10.290
   60CHL1   H2B 6711   2.450   4.565  10.319
   60CHL1   C20 6712   2.318   4.363  11.256
   60CHL1   H20 6713   2.213   4.401  11.257
   60CHL1   C21 6714   2.410   4.486  11.263
   60CHL1  H21A 6715   2.516   4.456  11.266
   60CHL1  H21B 6716   2.387   4.547  11.353
   60CHL1  H21C 6717   2.394   4.554  11.177
   60CHL1   C22 6718   2.333   4.271  11.382
   60CHL1  H22A 6719   2.235   4.225  11.404
   60CHL1  H22B 6720   2.404   4.188  11.357
   60CHL1   C23 6721   2.387   4.340  11.509
   60CHL1  H23A 6722   2.493   4.370  11.489
   60CHL1  H23B 6723   2.329   4.432  11.530
   60CHL1   C24 6724   2.387   4.253  11.637
   60CHL1  H24A 6725   2.288   4.263  11.686
   60CHL1  H24B 6726   2.399   4.146  11.610
   60CHL1   C25 6727   2.499   4.293  11.736
   60CHL1   H25 6728   2.597   4.274  11.687
   60CHL1   C26 6729   2.495   4.442  11.766
   60CHL1  H26A 6730   2.573   4.468  11.840
   60CHL1  H26B 6731   2.515   4.500  11.674
   60CHL1  H26C 6732   2.396   4.471  11.807
   60CHL1   C27 6733   2.497   4.213  11.867
   60CHL1  H27A 6734   2.403   4.235  11.923
   60CHL1  H27B 6735   2.503   4.105  11.846
   60CHL1  H27C 6736   2.583   4.242  11.931
   61CHL1    C3 6737   1.183   1.108  10.244
   61CHL1    H3 6738   1.150   1.195  10.305
   61CHL1    O3 6739   1.126   1.117  10.115
   61CHL1   H3' 6740   1.129   1.212  10.091
   61CHL1    C4 6741   1.336   1.106  10.233
   61CHL1   H4A 6742   1.364   1.021  10.168
   61CHL1   H4B 6743   1.369   1.198  10.180
   61CHL1    C5 6744   1.404   1.088  10.367
   61CHL1    C6 6745   1.495   1.176  10.412
   61CHL1    H6 6746   1.524   1.260  10.347
   61CHL1    C7 6747   1.567   1.163  10.543
   61CHL1   H7A 6748   1.676   1.182  10.533
   61CHL1   H7B 6749   1.526   1.236  10.615
   61CHL1    C8 6750   1.547   1.026  10.613
   61CHL1    H8 6751   1.616   0.953  10.565
   61CHL1   C14 6752   1.577   1.039  10.762
   61CHL1   H14 6753   1.495   1.103  10.803
   61CHL1   C15 6754   1.706   1.109  10.807
   61CHL1  H15A 6755   1.792   1.076  10.745
   61CHL1  H15B 6756   1.695   1.220  10.799
   61CHL1   C16 6757   1.723   1.065  10.953
   61CHL1  H16A 6758   1.824   1.019  10.966
   61CHL1  H16B 6759   1.712   1.150  11.023
   61CHL1   C17 6760   1.611   0.959  10.981
   61CHL1   H17 6761   1.524   1.015  11.021
   61CHL1   C13 6762   1.568   0.909  10.841
   61CHL1   C18 6763   1.676   0.810  10.791
   61CHL1  H18A 6764   1.670   0.714  10.847
   61CHL1  H18B 6765   1.662   0.787  10.684
   61CHL1  H18C 6766   1.778   0.850  10.804
   61CHL1   C12 6767   1.423   0.858  10.826
   61CHL1  H12A 6768   1.408   0.759  10.873
   61CHL1  H12B 6769   1.355   0.930  10.877
   61CHL1   C11 6770   1.380   0.846  10.678
   61CHL1  H11A 6771   1.441   0.767  10.633
   61CHL1  H11B 6772   1.274   0.815  10.674
   61CHL1    C9 6773   1.403   0.976  10.597
   61CHL1    H9 6774   1.339   1.054  10.645
   61CHL1   C10 6775   1.355   0.968  10.449
   61CHL1   C19 6776   1.412   0.841  10.381
   61CHL1  H19A 6777   1.372   0.749  10.428
   61CHL1  H19B 6778   1.384   0.835  10.274
   61CHL1  H19C 6779   1.523   0.839  10.388
   61CHL1    C1 6780   1.199   0.960  10.449
   61CHL1   H1A 6781   1.167   0.862  10.489
   61CHL1   H1B 6782   1.159   1.039  10.516
   61CHL1    C2 6783   1.134   0.979  10.310
   61CHL1   H2A 6784   1.023   0.981  10.320
   61CHL1   H2B 6785   1.161   0.892  10.246
   61CHL1   C20 6786   1.652   0.857  11.088
   61CHL1   H20 6787   1.744   0.802  11.054
   61CHL1   C21 6788   1.541   0.751  11.107
   61CHL1  H21A 6789   1.444   0.800  11.132
   61CHL1  H21B 6790   1.567   0.678  11.185
   61CHL1  H21C 6791   1.530   0.692  11.014
   61CHL1   C22 6792   1.687   0.925  11.223
   61CHL1  H22A 6793   1.783   0.981  11.211
   61CHL1  H22B 6794   1.608   0.998  11.249
   61CHL1   C23 6795   1.703   0.826  11.339
   61CHL1  H23A 6796   1.603   0.785  11.366
   61CHL1  H23B 6797   1.767   0.741  11.307
   61CHL1   C24 6798   1.764   0.888  11.465
   61CHL1  H24A 6799   1.868   0.919  11.440
   61CHL1  H24B 6800   1.708   0.979  11.496
   61CHL1   C25 6801   1.768   0.787  11.582
   61CHL1   H25 6802   1.797   0.688  11.541
   61CHL1   C26 6803   1.875   0.829  11.682
   61CHL1  H26A 6804   1.884   0.755  11.764
   61CHL1  H26B 6805   1.973   0.839  11.631
   61CHL1  H26C 6806   1.847   0.928  11.726
   61CHL1   C27 6807   1.633   0.775  11.654
   61CHL1  H27A 6808   1.641   0.704  11.739
   61CHL1  H27B 6809   1.602   0.874  11.695
   61CHL1  H27C 6810   1.554   0.739  11.585
   62CHL1    C3 6811   4.036   0.919  10.224
   62CHL1    H3 6812   4.130   0.974  10.251
   62CHL1    O3 6813   4.025   0.915  10.084
   62CHL1   H3' 6814   4.046   1.006  10.057
   62CHL1    C4 6815   4.043   0.777  10.280
   62CHL1   H4A 6816   3.959   0.718  10.237
   62CHL1   H4B 6817   4.137   0.730  10.242
   62CHL1    C5 6818   4.037   0.774  10.431
   62CHL1    C6 6819   4.129   0.712  10.505
   62CHL1    H6 6820   4.211   0.657  10.455
   62CHL1    C7 6821   4.121   0.697  10.654
   62CHL1   H7A 6822   4.141   0.591  10.683
   62CHL1   H7B 6823   4.200   0.759  10.702
   62CHL1    C8 6824   3.983   0.737  10.711
   62CHL1    H8 6825   3.910   0.655  10.693
   62CHL1   C14 6826   3.994   0.764  10.860
   62CHL1   H14 6827   4.068   0.848  10.868
   62CHL1   C15 6828   4.051   0.653  10.950
   62CHL1  H15A 6829   3.999   0.557  10.928
   62CHL1  H15B 6830   4.160   0.638  10.936
   62CHL1   C16 6831   4.014   0.702  11.090
   62CHL1  H16A 6832   3.958   0.623  11.144
   62CHL1  H16B 6833   4.105   0.728  11.149
   62CHL1   C17 6834   3.925   0.829  11.069
   62CHL1   H17 6835   3.995   0.916  11.063
   62CHL1   C13 6836   3.867   0.814  10.929
   62CHL1   C18 6837   3.757   0.705  10.929
   62CHL1  H18A 6838   3.736   0.670  10.826
   62CHL1  H18B 6839   3.784   0.617  10.990
   62CHL1  H18C 6840   3.662   0.747  10.969
   62CHL1   C12 6841   3.821   0.943  10.860
   62CHL1  H12A 6842   3.725   0.979  10.900
   62CHL1  H12B 6843   3.898   1.022  10.875
   62CHL1   C11 6844   3.802   0.919  10.710
   62CHL1  H11A 6845   3.719   0.847  10.699
   62CHL1  H11B 6846   3.772   1.015  10.663
   62CHL1    C9 6847   3.931   0.865  10.643
   62CHL1    H9 6848   4.010   0.942  10.662
   62CHL1   C10 6849   3.919   0.853  10.490
   62CHL1   C19 6850   3.788   0.778  10.458
   62CHL1  H19A 6851   3.780   0.753  10.350
   62CHL1  H19B 6852   3.782   0.685  10.517
   62CHL1  H19C 6853   3.699   0.840  10.483
   62CHL1    C1 6854   3.914   0.995  10.429
   62CHL1   H1A 6855   3.822   1.046  10.463
   62CHL1   H1B 6856   4.001   1.053  10.466
   62CHL1    C2 6857   3.915   0.996  10.276
   62CHL1   H2A 6858   3.918   1.101  10.240
   62CHL1   H2B 6859   3.821   0.950  10.238
   62CHL1   C20 6860   3.835   0.856  11.187
   62CHL1   H20 6861   3.782   0.762  11.217
   62CHL1   C21 6862   3.729   0.965  11.159
   62CHL1  H21A 6863   3.653   0.929  11.087
   62CHL1  H21B 6864   3.778   1.055  11.118
   62CHL1  H21C 6865   3.675   0.994  11.251
   62CHL1   C22 6866   3.922   0.904  11.304
   62CHL1  H22A 6867   4.020   0.853  11.308
   62CHL1  H22B 6868   3.943   1.013  11.289
   62CHL1   C23 6869   3.851   0.880  11.435
   62CHL1  H23A 6870   3.743   0.902  11.424
   62CHL1  H23B 6871   3.864   0.773  11.463
   62CHL1   C24 6872   3.906   0.972  11.541
   62CHL1  H24A 6873   4.016   0.958  11.551
   62CHL1  H24B 6874   3.890   1.079  11.512
   62CHL1   C25 6875   3.842   0.948  11.677
   62CHL1   H25 6876   3.736   0.981  11.675
   62CHL1   C26 6877   3.850   0.802  11.724
   62CHL1  H26A 6878   3.956   0.770  11.731
   62CHL1  H26B 6879   3.805   0.797  11.826
   62CHL1  H26C 6880   3.796   0.730  11.660
   62CHL1   C27 6881   3.922   1.031  11.773
   62CHL1  H27A 6882   3.924   1.138  11.744
   62CHL1  H27B 6883   3.884   1.018  11.877
   62CHL1  H27C 6884   4.026   0.993  11.768
   63CHL1    C3 6885   1.563   0.429  10.246
   63CHL1    H3 6886   1.478   0.501  10.251
   63CHL1    O3 6887   1.634   0.451  10.126
   63CHL1   H3' 6888   1.564   0.467  10.060
   63CHL1    C4 6889   1.658   0.454  10.364
   63CHL1   H4A 6890   1.745   0.386  10.355
   63CHL1   H4B 6891   1.697   0.558  10.356
   63CHL1    C5 6892   1.581   0.430  10.492
   63CHL1    C6 6893   1.557   0.531  10.577
   63CHL1    H6 6894   1.598   0.631  10.556
   63CHL1    C7 6895   1.479   0.515  10.704
   63CHL1   H7A 6896   1.519   0.579  10.785
   63CHL1   H7B 6897   1.373   0.544  10.688
   63CHL1    C8 6898   1.482   0.368  10.752
   63CHL1    H8 6899   1.587   0.344  10.778
   63CHL1   C14 6900   1.392   0.351  10.874
   63CHL1   H14 6901   1.288   0.374  10.841
   63CHL1   C15 6902   1.418   0.441  10.997
   63CHL1  H15A 6903   1.527   0.461  11.008
   63CHL1  H15B 6904   1.364   0.538  10.987
   63CHL1   C16 6905   1.367   0.360  11.117
   63CHL1  H16A 6906   1.452   0.336  11.184
   63CHL1  H16B 6907   1.291   0.415  11.176
   63CHL1   C17 6908   1.310   0.228  11.058
   63CHL1   H17 6909   1.205   0.251  11.028
   63CHL1   C13 6910   1.390   0.208  10.927
   63CHL1   C18 6911   1.535   0.168  10.966
   63CHL1  H18A 6912   1.534   0.072  11.018
   63CHL1  H18B 6913   1.600   0.156  10.877
   63CHL1  H18C 6914   1.584   0.242  11.032
   63CHL1   C12 6915   1.328   0.121  10.815
   63CHL1  H12A 6916   1.324   0.014  10.844
   63CHL1  H12B 6917   1.225   0.156  10.794
   63CHL1   C11 6918   1.412   0.130  10.687
   63CHL1  H11A 6919   1.508   0.079  10.708
   63CHL1  H11B 6920   1.362   0.073  10.606
   63CHL1    C9 6921   1.436   0.276  10.638
   63CHL1    H9 6922   1.335   0.314  10.609
   63CHL1   C10 6923   1.525   0.288  10.510
   63CHL1   C19 6924   1.642   0.186  10.520
   63CHL1  H19A 6925   1.700   0.202  10.613
   63CHL1  H19B 6926   1.604   0.082  10.519
   63CHL1  H19C 6927   1.711   0.194  10.433
   63CHL1    C1 6928   1.439   0.255  10.384
   63CHL1   H1A 6929   1.411   0.147  10.386
   63CHL1   H1B 6930   1.345   0.315  10.387
   63CHL1    C2 6931   1.509   0.285  10.250
   63CHL1   H2A 6932   1.439   0.270  10.165
   63CHL1   H2B 6933   1.595   0.215  10.235
   63CHL1   C20 6934   1.300   0.113  11.159
   63CHL1   H20 6935   1.402   0.078  11.187
   63CHL1   C21 6936   1.222  -0.004  11.096
   63CHL1  H21A 6937   1.131   0.031  11.045
   63CHL1  H21B 6938   1.193  -0.079  11.172
   63CHL1  H21C 6939   1.286  -0.059  11.024
   63CHL1   C22 6940   1.234   0.160  11.292
   63CHL1  H22A 6941   1.302   0.232  11.343
   63CHL1  H22B 6942   1.140   0.214  11.267
   63CHL1   C23 6943   1.200   0.047  11.391
   63CHL1  H23A 6944   1.101   0.005  11.361
   63CHL1  H23B 6945   1.274  -0.034  11.379
   63CHL1   C24 6946   1.191   0.091  11.538
   63CHL1  H24A 6947   1.137   0.188  11.543
   63CHL1  H24B 6948   1.129   0.017  11.594
   63CHL1   C25 6949   1.325   0.105  11.613
   63CHL1   H25 6950   1.382   0.188  11.566
   63CHL1   C26 6951   1.300   0.141  11.760
   63CHL1  H26A 6952   1.236   0.063  11.808
   63CHL1  H26B 6953   1.395   0.147  11.816
   63CHL1  H26C 6954   1.247   0.238  11.768
   63CHL1   C27 6955   1.412  -0.022  11.606
   63CHL1  H27A 6956   1.356  -0.110  11.646
   63CHL1  H27B 6957   1.443  -0.044  11.502
   63CHL1  H27C 6958   1.505  -0.009  11.666
   64CHL1    C3 6959   4.579   3.890  10.244
   64CHL1    H3 6960   4.544   3.996  10.233
   64CHL1    O3 6961   4.605   3.833  10.117
   64CHL1   H3' 6962   4.679   3.883  10.079
   64CHL1    C4 6963   4.707   3.890  10.332
   64CHL1   H4A 6964   4.763   3.797  10.311
   64CHL1   H4B 6965   4.773   3.972  10.295
   64CHL1    C5 6966   4.679   3.906  10.481
   64CHL1    C6 6967   4.730   4.002  10.558
   64CHL1    H6 6968   4.802   4.073  10.518
   64CHL1    C7 6969   4.691   4.019  10.702
   64CHL1   H7A 6970   4.781   4.047  10.761
   64CHL1   H7B 6971   4.615   4.100  10.711
   64CHL1    C8 6972   4.630   3.898  10.772
   64CHL1    H8 6973   4.716   3.832  10.793
   64CHL1   C14 6974   4.547   3.933  10.896
   64CHL1   H14 6975   4.447   3.966  10.859
   64CHL1   C15 6976   4.586   4.051  10.983
   64CHL1  H15A 6977   4.693   4.037  11.005
   64CHL1  H15B 6978   4.568   4.149  10.935
   64CHL1   C16 6979   4.497   4.034  11.107
   64CHL1  H16A 6980   4.548   4.076  11.195
   64CHL1  H16B 6981   4.404   4.094  11.094
   64CHL1   C17 6982   4.458   3.883  11.116
   64CHL1   H17 6983   4.348   3.878  11.102
   64CHL1   C13 6984   4.522   3.816  10.989
   64CHL1   C18 6985   4.657   3.752  11.032
   64CHL1  H18A 6986   4.713   3.711  10.946
   64CHL1  H18B 6987   4.722   3.827  11.083
   64CHL1  H18C 6988   4.642   3.667  11.100
   64CHL1   C12 6989   4.435   3.719  10.907
   64CHL1  H12A 6990   4.435   3.622  10.958
   64CHL1  H12B 6991   4.331   3.756  10.900
   64CHL1   C11 6992   4.489   3.695  10.763
   64CHL1  H11A 6993   4.580   3.635  10.780
   64CHL1  H11B 6994   4.417   3.634  10.705
   64CHL1    C9 6995   4.533   3.823  10.685
   64CHL1    H9 6996   4.441   3.886  10.676
   64CHL1   C10 6997   4.582   3.804  10.540
   64CHL1   C19 6998   4.667   3.676  10.541
   64CHL1  H19A 6999   4.720   3.653  10.447
   64CHL1  H19B 7000   4.745   3.683  10.620
   64CHL1  H19C 7001   4.605   3.589  10.566
   64CHL1    C1 7002   4.454   3.813  10.453
   64CHL1   H1A 7003   4.379   3.738  10.488
   64CHL1   H1B 7004   4.413   3.915  10.472
   64CHL1    C2 7005   4.464   3.807  10.301
   64CHL1   H2A 7006   4.370   3.845  10.256
   64CHL1   H2B 7007   4.470   3.702  10.271
   64CHL1   C20 7008   4.487   3.822  11.255
   64CHL1   H20 7009   4.597   3.811  11.267
   64CHL1   C21 7010   4.421   3.684  11.264
   64CHL1  H21A 7011   4.310   3.693  11.261
   64CHL1  H21B 7012   4.450   3.632  11.358
   64CHL1  H21C 7013   4.453   3.620  11.180
   64CHL1   C22 7014   4.442   3.908  11.377
   64CHL1  H22A 7015   4.492   4.007  11.375
   64CHL1  H22B 7016   4.333   3.926  11.374
   64CHL1   C23 7017   4.481   3.845  11.512
   64CHL1  H23A 7018   4.411   3.763  11.536
   64CHL1  H23B 7019   4.583   3.801  11.502
   64CHL1   C24 7020   4.485   3.946  11.628
   64CHL1  H24A 7021   4.557   4.027  11.602
   64CHL1  H24B 7022   4.385   3.994  11.639
   64CHL1   C25 7023   4.527   3.886  11.763
   64CHL1   H25 7024   4.621   3.828  11.748
   64CHL1   C26 7025   4.557   3.998  11.864
   64CHL1  H26A 7026   4.585   3.955  11.962
   64CHL1  H26B 7027   4.640   4.062  11.827
   64CHL1  H26C 7028   4.467   4.062  11.878
   64CHL1   C27 7029   4.420   3.791  11.820
   64CHL1  H27A 7030   4.406   3.702  11.754
   64CHL1  H27B 7031   4.451   3.755  11.921
   64CHL1  H27C 7032   4.323   3.843  11.830
   65CHL1    C3 7033   0.219   3.978  10.243
   65CHL1    H3 7034   0.322   3.985  10.286
   65CHL1    O3 7035   0.231   3.943  10.106
   65CHL1   H3' 7036   0.178   3.863  10.095
   65CHL1    C4 7037   0.138   3.871  10.318
   65CHL1   H4A 7038   0.033   3.872  10.281
   65CHL1   H4B 7039   0.181   3.772  10.296
   65CHL1    C5 7040   0.140   3.903  10.466
   65CHL1    C6 7041   0.190   3.814  10.553
   65CHL1    H6 7042   0.221   3.716  10.516
   65CHL1    C7 7043   0.205   3.834  10.701
   65CHL1   H7A 7044   0.166   3.746  10.756
   65CHL1   H7B 7045   0.314   3.842  10.725
   65CHL1    C8 7046   0.131   3.961  10.748
   65CHL1    H8 7047   0.024   3.932  10.750
   65CHL1   C14 7048   0.180   4.001  10.886
   65CHL1   H14 7049   0.289   4.026  10.875
   65CHL1   C15 7050   0.173   3.895  10.997
   65CHL1  H15A 7051   0.076   3.840  10.989
   65CHL1  H15B 7052   0.255   3.821  10.989
   65CHL1   C16 7053   0.176   3.975  11.127
   65CHL1  H16A 7054   0.093   3.941  11.193
   65CHL1  H16B 7055   0.272   3.962  11.181
   65CHL1   C17 7056   0.159   4.126  11.089
   65CHL1   H17 7057   0.261   4.170  11.090
   65CHL1   C13 7058   0.112   4.124  10.941
   65CHL1   C18 7059  -0.039   4.099  10.941
   65CHL1  H18A 7060  -0.081   4.071  10.842
   65CHL1  H18B 7061  -0.068   4.021  11.014
   65CHL1  H18C 7062  -0.086   4.196  10.965
   65CHL1   C12 7063   0.142   4.244  10.850
   65CHL1  H12A 7064   0.087   4.336  10.881
   65CHL1  H12B 7065   0.249   4.269  10.853
   65CHL1   C11 7066   0.099   4.215  10.704
   65CHL1  H11A 7067  -0.012   4.219  10.701
   65CHL1  H11B 7068   0.135   4.297  10.639
   65CHL1    C9 7069   0.149   4.078  10.650
   65CHL1    H9 7070   0.260   4.091  10.641
   65CHL1   C10 7071   0.098   4.045  10.507
   65CHL1   C19 7072  -0.058   4.046  10.504
   65CHL1  H19A 7073  -0.101   3.972  10.574
   65CHL1  H19B 7074  -0.097   4.147  10.529
   65CHL1  H19C 7075  -0.095   4.024  10.402
   65CHL1    C1 7076   0.151   4.154  10.409
   65CHL1   H1A 7077   0.092   4.247  10.422
   65CHL1   H1B 7078   0.257   4.178  10.436
   65CHL1    C2 7079   0.150   4.115  10.260
   65CHL1   H2A 7080   0.204   4.192  10.201
   65CHL1   H2B 7081   0.045   4.110  10.223
   65CHL1   C20 7082   0.079   4.206  11.193
   65CHL1   H20 7083  -0.024   4.165  11.192
   65CHL1   C21 7084   0.078   4.356  11.159
   65CHL1  H21A 7085   0.026   4.415  11.237
   65CHL1  H21B 7086   0.023   4.376  11.065
   65CHL1  H21C 7087   0.182   4.394  11.150
   65CHL1   C22 7088   0.122   4.186  11.341
   65CHL1  H22A 7089   0.141   4.079  11.361
   65CHL1  H22B 7090   0.215   4.243  11.359
   65CHL1   C23 7091   0.011   4.230  11.439
   65CHL1  H23A 7092  -0.000   4.341  11.437
   65CHL1  H23B 7093  -0.085   4.186  11.404
   65CHL1   C24 7094   0.032   4.182  11.583
   65CHL1  H24A 7095   0.043   4.072  11.582
   65CHL1  H24B 7096   0.124   4.226  11.624
   65CHL1   C25 7097  -0.084   4.220  11.678
   65CHL1   H25 7098  -0.179   4.210  11.621
   65CHL1   C26 7099  -0.092   4.126  11.798
   65CHL1  H26A 7100  -0.100   4.021  11.764
   65CHL1  H26B 7101  -0.001   4.136  11.861
   65CHL1  H26C 7102  -0.181   4.150  11.860
   65CHL1   C27 7103  -0.069   4.366  11.726
   65CHL1  H27A 7104   0.029   4.380  11.777
   65CHL1  H27B 7105  -0.073   4.435  11.640
   65CHL1  H27C 7106  -0.150   4.393  11.797
   66CHL1    C3 7107   0.375   0.934  10.243
   66CHL1    H3 7108   0.406   0.830  10.269
   66CHL1    O3 7109   0.365   0.948  10.102
   66CHL1   H3' 7110   0.404   1.036  10.085
   66CHL1    C4 7111   0.238   0.965  10.309
   66CHL1   H4A 7112   0.198   1.060  10.266
   66CHL1   H4B 7113   0.167   0.884  10.278
   66CHL1    C5 7114   0.246   0.979  10.461
   66CHL1    C6 7115   0.168   0.910  10.546
   66CHL1    H6 7116   0.091   0.842  10.506
   66CHL1    C7 7117   0.177   0.920  10.696
   66CHL1   H7A 7118   0.075   0.925  10.741
   66CHL1   H7B 7119   0.224   0.827  10.734
   66CHL1    C8 7120   0.259   1.041  10.748
   66CHL1    H8 7121   0.194   1.130  10.744
   66CHL1   C14 7122   0.309   1.017  10.892
   66CHL1   H14 7123   0.380   0.931  10.885
   66CHL1   C15 7124   0.208   0.976  10.999
   66CHL1  H15A 7125   0.121   1.044  10.998
   66CHL1  H15B 7126   0.172   0.873  10.984
   66CHL1   C16 7127   0.285   0.994  11.130
   66CHL1  H16A 7128   0.222   1.049  11.203
   66CHL1  H16B 7129   0.314   0.897  11.175
   66CHL1   C17 7130   0.415   1.074  11.097
   66CHL1   H17 7131   0.497   0.999  11.084
   66CHL1   C13 7132   0.389   1.131  10.955
   66CHL1   C18 7133   0.299   1.256  10.970
   66CHL1  H18A 7134   0.360   1.339  11.012
   66CHL1  H18B 7135   0.258   1.288  10.873
   66CHL1  H18C 7136   0.214   1.239  11.039
   66CHL1   C12 7137   0.511   1.160  10.866
   66CHL1  H12A 7138   0.565   1.250  10.902
   66CHL1  H12B 7139   0.580   1.073  10.870
   66CHL1   C11 7140   0.467   1.183  10.720
   66CHL1  H11A 7141   0.408   1.275  10.715
   66CHL1  H11B 7142   0.558   1.198  10.658
   66CHL1    C9 7143   0.383   1.065  10.662
   66CHL1    H9 7144   0.447   0.974  10.676
   66CHL1   C10 7145   0.358   1.073  10.510
   66CHL1   C19 7146   0.310   1.215  10.471
   66CHL1  H19A 7147   0.386   1.291  10.498
   66CHL1  H19B 7148   0.292   1.225  10.362
   66CHL1  H19C 7149   0.215   1.238  10.524
   66CHL1    C1 7150   0.491   1.038  10.438
   66CHL1   H1A 7151   0.569   1.112  10.465
   66CHL1   H1B 7152   0.527   0.939  10.475
   66CHL1    C2 7153   0.482   1.033  10.286
   66CHL1   H2A 7154   0.581   1.003  10.244
   66CHL1   H2B 7155   0.459   1.135  10.249
   66CHL1   C20 7156   0.455   1.166  11.213
   66CHL1   H20 7157   0.371   1.237  11.231
   66CHL1   C21 7158   0.582   1.249  11.179
   66CHL1  H21A 7159   0.560   1.324  11.101
   66CHL1  H21B 7160   0.663   1.183  11.143
   66CHL1  H21C 7161   0.617   1.302  11.269
   66CHL1   C22 7162   0.479   1.090  11.346
   66CHL1  H22A 7163   0.421   0.995  11.349
   66CHL1  H22B 7164   0.586   1.062  11.353
   66CHL1   C23 7165   0.436   1.172  11.469
   66CHL1  H23A 7166   0.475   1.276  11.457
   66CHL1  H23B 7167   0.325   1.179  11.472
   66CHL1   C24 7168   0.489   1.119  11.604
   66CHL1  H24A 7169   0.600   1.128  11.604
   66CHL1  H24B 7170   0.450   1.185  11.684
   66CHL1   C25 7171   0.452   0.974  11.641
   66CHL1   H25 7172   0.489   0.907  11.559
   66CHL1   C26 7173   0.524   0.935  11.770
   66CHL1  H26A 7174   0.501   0.830  11.799
   66CHL1  H26B 7175   0.634   0.943  11.756
   66CHL1  H26C 7176   0.495   1.003  11.853
   66CHL1   C27 7177   0.301   0.952  11.656
   66CHL1  H27A 7178   0.247   0.974  11.562
   66CHL1  H27B 7179   0.281   0.845  11.683
   66CHL1  H27C 7180   0.260   1.016  11.737
   67CHL1    C3 7181   0.876   0.308  10.227
   67CHL1    H3 7182   0.895   0.198  10.221
   67CHL1    O3 7183   0.863   0.358  10.095
   67CHL1   H3' 7184   0.784   0.313  10.059
   67CHL1    C4 7185   0.745   0.332  10.304
   67CHL1   H4A 7186   0.713   0.438  10.293
   67CHL1   H4B 7187   0.665   0.270  10.258
   67CHL1    C5 7188   0.764   0.297  10.450
   67CHL1    C6 7189   0.691   0.202  10.510
   67CHL1    H6 7190   0.611   0.151  10.453
   67CHL1    C7 7191   0.705   0.168  10.655
   67CHL1   H7A 7192   0.607   0.139  10.697
   67CHL1   H7B 7193   0.772   0.080  10.667
   67CHL1    C8 7194   0.765   0.288  10.733
   67CHL1    H8 7195   0.692   0.372  10.728
   67CHL1   C14 7196   0.789   0.251  10.878
   67CHL1   H14 7197   0.864   0.168  10.877
   67CHL1   C15 7198   0.670   0.197  10.958
   67CHL1  H15A 7199   0.585   0.265  10.938
   67CHL1  H15B 7200   0.642   0.094  10.932
   67CHL1   C16 7201   0.713   0.212  11.104
   67CHL1  H16A 7202   0.634   0.266  11.161
   67CHL1  H16B 7203   0.730   0.115  11.153
   67CHL1   C17 7204   0.845   0.296  11.102
   67CHL1   H17 7205   0.930   0.223  11.103
   67CHL1   C13 7206   0.850   0.362  10.964
   67CHL1   C18 7207   0.759   0.488  10.966
   67CHL1  H18A 7208   0.662   0.467  11.015
   67CHL1  H18B 7209   0.807   0.571  11.021
   67CHL1  H18C 7210   0.738   0.525  10.864
   67CHL1   C12 7211   0.989   0.389  10.904
   67CHL1  H12A 7212   1.045   0.465  10.961
   67CHL1  H12B 7213   1.046   0.294  10.905
   67CHL1   C11 7214   0.978   0.433  10.757
   67CHL1  H11A 7215   0.930   0.533  10.758
   67CHL1  H11B 7216   1.080   0.444  10.714
   67CHL1    C9 7217   0.897   0.332  10.669
   67CHL1    H9 7218   0.959   0.239  10.667
   67CHL1   C10 7219   0.878   0.375  10.521
   67CHL1   C19 7220   0.846   0.527  10.519
   67CHL1  H19A 7221   0.822   0.563  10.417
   67CHL1  H19B 7222   0.759   0.549  10.584
   67CHL1  H19C 7223   0.933   0.586  10.552
   67CHL1    C1 7224   1.008   0.345  10.442
   67CHL1   H1A 7225   1.092   0.403  10.486
   67CHL1   H1B 7226   1.033   0.237  10.454
   67CHL1    C2 7227   0.997   0.377  10.292
   67CHL1   H2A 7228   1.090   0.345  10.241
   67CHL1   H2B 7229   0.987   0.487  10.280
   67CHL1   C20 7230   0.858   0.380  11.230
   67CHL1   H20 7231   0.768   0.446  11.239
   67CHL1   C21 7232   0.982   0.472  11.226
   67CHL1  H21A 7233   1.074   0.413  11.214
   67CHL1  H21B 7234   0.989   0.531  11.320
   67CHL1  H21C 7235   0.975   0.546  11.144
   67CHL1   C22 7236   0.860   0.285  11.352
   67CHL1  H22A 7237   0.763   0.229  11.357
   67CHL1  H22B 7238   0.941   0.210  11.340
   67CHL1   C23 7239   0.878   0.354  11.486
   67CHL1  H23A 7240   0.981   0.397  11.492
   67CHL1  H23B 7241   0.805   0.438  11.493
   67CHL1   C24 7242   0.858   0.257  11.603
   67CHL1  H24A 7243   0.749   0.243  11.622
   67CHL1  H24B 7244   0.901   0.158  11.576
   67CHL1   C25 7245   0.928   0.306  11.731
   67CHL1   H25 7246   1.036   0.315  11.707
   67CHL1   C26 7247   0.879   0.445  11.771
   67CHL1  H26A 7248   0.854   0.510  11.685
   67CHL1  H26B 7249   0.788   0.436  11.835
   67CHL1  H26C 7250   0.959   0.496  11.829
   67CHL1   C27 7251   0.912   0.207  11.847
   67CHL1  H27A 7252   0.960   0.110  11.824
   67CHL1  H27B 7253   0.958   0.249  11.939
   67CHL1  H27C 7254   0.804   0.189  11.868
   68CHL1    C3 7255   4.802   0.921  10.253
   68CHL1    H3 7256   4.756   1.023  10.258
   68CHL1    O3 7257   4.809   0.880  10.118
   68CHL1   H3' 7258   4.894   0.912  10.084
   68CHL1    C4 7259   4.944   0.924  10.312
   68CHL1   H4A 7260   4.989   0.823  10.301
   68CHL1   H4B 7261   5.007   0.992  10.251
   68CHL1    C5 7262   4.940   0.965  10.458
   68CHL1    C6 7263   5.007   1.072  10.502
   68CHL1    H6 7264   5.073   1.127  10.433
   68CHL1    C7 7265   5.008   1.119  10.645
   68CHL1   H7A 7266   5.111   1.148  10.677
   68CHL1   H7B 7267   4.943   1.209  10.656
   68CHL1    C8 7268   4.957   1.009  10.742
   68CHL1    H8 7269   5.039   0.934  10.748
   68CHL1   C14 7270   4.927   1.066  10.880
   68CHL1   H14 7271   4.839   1.134  10.867
   68CHL1   C15 7272   5.035   1.153  10.948
   68CHL1  H15A 7273   5.133   1.106  10.928
   68CHL1  H15B 7274   5.037   1.256  10.909
   68CHL1   C16 7275   5.000   1.147  11.098
   68CHL1  H16A 7276   5.090   1.113  11.154
   68CHL1  H16B 7277   4.969   1.246  11.137
   68CHL1   C17 7278   4.884   1.044  11.114
   68CHL1   H17 7279   4.789   1.101  11.113
   68CHL1   C13 7280   4.885   0.962  10.983
   68CHL1   C18 7281   4.994   0.854  10.999
   68CHL1  H18A 7282   5.087   0.896  11.042
   68CHL1  H18B 7283   4.960   0.771  11.064
   68CHL1  H18C 7284   5.019   0.809  10.902
   68CHL1   C12 7285   4.751   0.905  10.932
   68CHL1  H12A 7286   4.709   0.828  11.000
   68CHL1  H12B 7287   4.677   0.987  10.926
   68CHL1   C11 7288   4.768   0.842  10.793
   68CHL1  H11A 7289   4.832   0.752  10.805
   68CHL1  H11B 7290   4.669   0.807  10.757
   68CHL1    C9 7291   4.830   0.940  10.688
   68CHL1    H9 7292   4.756   1.023  10.677
   68CHL1   C10 7293   4.848   0.879  10.547
   68CHL1   C19 7294   4.915   0.739  10.560
   68CHL1  H19A 7295   5.009   0.747  10.618
   68CHL1  H19B 7296   4.847   0.669  10.612
   68CHL1  H19C 7297   4.937   0.693  10.461
   68CHL1    C1 7298   4.708   0.863  10.480
   68CHL1   H1A 7299   4.651   0.786  10.535
   68CHL1   H1B 7300   4.653   0.959  10.489
   68CHL1    C2 7301   4.714   0.823  10.332
   68CHL1   H2A 7302   4.612   0.821  10.288
   68CHL1   H2B 7303   4.757   0.721  10.322
   68CHL1   C20 7304   4.889   0.967  11.247
   68CHL1   H20 7305   4.985   0.910  11.253
   68CHL1   C21 7306   4.773   0.865  11.256
   68CHL1  H21A 7307   4.675   0.915  11.240
   68CHL1  H21B 7308   4.770   0.812  11.353
   68CHL1  H21C 7309   4.787   0.785  11.181
   68CHL1   C22 7310   4.888   1.059  11.372
   68CHL1  H22A 7311   4.979   1.121  11.372
   68CHL1  H22B 7312   4.800   1.127  11.369
   68CHL1   C23 7313   4.883   0.975  11.501
   68CHL1  H23A 7314   4.778   0.950  11.524
   68CHL1  H23B 7315   4.938   0.880  11.483
   68CHL1   C24 7316   4.949   1.041  11.622
   68CHL1  H24A 7317   5.053   1.068  11.595
   68CHL1  H24B 7318   4.894   1.134  11.645
   68CHL1   C25 7319   4.953   0.946  11.743
   68CHL1   H25 7320   4.989   0.848  11.703
   68CHL1   C26 7321   5.054   0.989  11.851
   68CHL1  H26A 7322   5.026   1.082  11.904
   68CHL1  H26B 7323   5.064   0.910  11.928
   68CHL1  H26C 7324   5.154   1.005  11.805
   68CHL1   C27 7325   4.813   0.920  11.802
   68CHL1  H27A 7326   4.763   1.016  11.824
   68CHL1  H27B 7327   4.749   0.864  11.731
   68CHL1  H27C 7328   4.821   0.861  11.896
   69SLPC     N 7329   1.988   4.204  13.759
   69SLPC   C13 7330   2.022   4.345  13.788
   69SLPC  H13A 7331   2.062   4.395  13.700
   69SLPC  H13B 7332   1.937   4.400  13.827
   69SLPC  H13C 7333   2.101   4.353  13.863
   69SLPC   C14 7334   1.951   4.134  13.886
   69SLPC  H14A 7335   1.928   4.030  13.862
   69SLPC  H14B 7336   2.036   4.133  13.954
   69SLPC  H14C 7337   1.865   4.178  13.934
   69SLPC   C15 7338   2.110   4.136  13.706
   69SLPC  H15A 7339   2.085   4.033  13.675
   69SLPC  H15B 7340   2.155   4.190  13.623
   69SLPC  H15C 7341   2.183   4.124  13.784
   69SLPC   C12 7342   1.873   4.188  13.663
   69SLPC  H12A 7343   1.884   4.260  13.583
   69SLPC  H12B 7344   1.781   4.211  13.716
   69SLPC   C11 7345   1.853   4.048  13.599
   69SLPC  H11A 7346   1.937   4.030  13.528
   69SLPC  H11B 7347   1.760   4.048  13.537
   69SLPC     P 7348   1.929   3.816  13.696
   69SLPC   O13 7349   2.060   3.850  13.758
   69SLPC   O14 7350   1.856   3.700  13.750
   69SLPC   O12 7351   1.840   3.947  13.699
   69SLPC   O11 7352   1.951   3.798  13.542
   69SLPC    C1 7353   2.059   3.720  13.493
   69SLPC    HA 7354   2.111   3.660  13.572
   69SLPC    HB 7355   2.016   3.647  13.422
   69SLPC    C2 7356   2.167   3.806  13.419
   69SLPC    HS 7357   2.245   3.830  13.495
   69SLPC   O21 7358   2.108   3.928  13.369
   69SLPC   C21 7359   2.198   4.019  13.333
   69SLPC   O22 7360   2.318   4.003  13.338
   69SLPC   C22 7361   2.127   4.144  13.282
   69SLPC   H2R 7362   2.019   4.137  13.306
   69SLPC   H2S 7363   2.170   4.231  13.335
   69SLPC    C3 7364   2.231   3.723  13.303
   69SLPC    HX 7365   2.294   3.645  13.352
   69SLPC    HY 7366   2.299   3.784  13.240
   69SLPC   O31 7367   2.128   3.657  13.227
   69SLPC   C31 7368   2.086   3.713  13.116
   69SLPC   O32 7369   2.142   3.803  13.055
   69SLPC   C32 7370   1.960   3.637  13.070
   69SLPC   H2X 7371   1.923   3.576  13.155
   69SLPC   H2Y 7372   1.989   3.566  12.991
   69SLPC   C23 7373   2.148   4.156  13.130
   69SLPC   H3R 7374   2.164   4.055  13.085
   69SLPC   H3S 7375   2.239   4.216  13.108
   69SLPC   C24 7376   2.028   4.216  13.055
   69SLPC   H4R 7377   2.016   4.323  13.083
   69SLPC   H4S 7378   1.935   4.162  13.083
   69SLPC   C25 7379   2.052   4.202  12.905
   69SLPC   H5R 7380   2.058   4.094  12.878
   69SLPC   H5S 7381   2.152   4.247  12.883
   69SLPC   C26 7382   1.948   4.271  12.817
   69SLPC   H6R 7383   1.934   4.374  12.856
   69SLPC   H6S 7384   1.851   4.218  12.822
   69SLPC   C27 7385   1.998   4.281  12.672
   69SLPC   H7R 7386   2.106   4.304  12.678
   69SLPC   H7S 7387   1.949   4.368  12.623
   69SLPC   C28 7388   1.975   4.154  12.588
   69SLPC   H8R 7389   1.876   4.113  12.615
   69SLPC   H8S 7390   2.051   4.078  12.620
   69SLPC   C29 7391   1.987   4.177  12.439
   69SLPC   H9R 7392   2.085   4.215  12.406
   69SLPC  C210 7393   1.893   4.157  12.345
   69SLPC  H10R 7394   1.918   4.179  12.239
   69SLPC  C211 7395   1.753   4.107  12.367
   69SLPC  H11R 7396   1.684   4.186  12.329
   69SLPC  H11S 7397   1.728   4.099  12.475
   69SLPC  C212 7398   1.721   3.976  12.300
   69SLPC  H12R 7399   1.740   3.886  12.360
   69SLPC  C213 7400   1.668   3.963  12.177
   69SLPC  H13R 7401   1.640   3.863  12.140
   69SLPC  C214 7402   1.634   4.078  12.087
   69SLPC  H14R 7403   1.692   4.169  12.112
   69SLPC  H14S 7404   1.528   4.104  12.107
   69SLPC  C215 7405   1.649   4.051  11.936
   69SLPC  H15R 7406   1.595   4.130  11.879
   69SLPC  H15S 7407   1.603   3.953  11.909
   69SLPC  C216 7408   1.794   4.056  11.888
   69SLPC  H16R 7409   1.804   4.011  11.787
   69SLPC  H16S 7410   1.854   3.995  11.960
   69SLPC  C217 7411   1.848   4.200  11.887
   69SLPC  H17R 7412   1.947   4.198  11.939
   69SLPC  H17S 7413   1.782   4.266  11.947
   69SLPC  C218 7414   1.866   4.262  11.748
   69SLPC  H18R 7415   1.960   4.227  11.702
   69SLPC  H18S 7416   1.873   4.373  11.755
   69SLPC  H18T 7417   1.781   4.236  11.682
   69SLPC   C33 7418   1.845   3.727  13.021
   69SLPC   H3X 7419   1.819   3.802  13.100
   69SLPC   H3Y 7420   1.755   3.664  13.004
   69SLPC   C34 7421   1.876   3.802  12.890
   69SLPC   H4X 7422   1.956   3.877  12.909
   69SLPC   H4Y 7423   1.786   3.859  12.859
   69SLPC   C35 7424   1.920   3.712  12.773
   69SLPC   H5X 7425   1.840   3.640  12.748
   69SLPC   H5Y 7426   2.012   3.655  12.801
   69SLPC   C36 7427   1.956   3.799  12.653
   69SLPC   H6X 7428   2.038   3.868  12.685
   69SLPC   H6Y 7429   1.869   3.862  12.624
   69SLPC   C37 7430   2.003   3.719  12.531
   69SLPC   H7X 7431   1.915   3.665  12.488
   69SLPC   H7Y 7432   2.078   3.643  12.561
   69SLPC   C38 7433   2.065   3.811  12.425
   69SLPC   H8X 7434   2.002   3.902  12.415
   69SLPC   H8Y 7435   2.061   3.758  12.327
   69SLPC   C39 7436   2.210   3.849  12.457
   69SLPC   H9X 7437   2.271   3.756  12.448
   69SLPC   H9Y 7438   2.217   3.884  12.562
   69SLPC  C310 7439   2.272   3.958  12.367
   69SLPC  H10X 7440   2.382   3.947  12.368
   69SLPC  H10Y 7441   2.247   4.059  12.406
   69SLPC  C311 7442   2.222   3.944  12.223
   69SLPC  H11X 7443   2.115   3.976  12.218
   69SLPC  H11Y 7444   2.228   3.835  12.201
   69SLPC  C312 7445   2.300   4.017  12.113
   69SLPC  H12X 7446   2.405   3.980  12.114
   69SLPC  H12Y 7447   2.301   4.126  12.133
   69SLPC  C313 7448   2.236   3.990  11.975
   69SLPC  H13X 7449   2.303   4.032  11.897
   69SLPC  H13Y 7450   2.139   4.045  11.968
   69SLPC  C314 7451   2.213   3.841  11.942
   69SLPC  H14X 7452   2.294   3.780  11.988
   69SLPC  H14Y 7453   2.222   3.830  11.831
   69SLPC  C315 7454   2.074   3.787  11.981
   69SLPC  H15X 7455   1.999   3.853  11.933
   69SLPC  H15Y 7456   2.058   3.792  12.091
   69SLPC  C316 7457   2.050   3.642  11.936
   69SLPC  H16X 7458   2.129   3.577  11.980
   69SLPC  H16Y 7459   2.063   3.638  11.826
   69SLPC  C317 7460   1.911   3.585  11.975
   69SLPC  H17X 7461   1.918   3.543  12.078
   69SLPC  H17Y 7462   1.889   3.500  11.906
   69SLPC  C318 7463   1.794   3.684  11.972
   69SLPC  H18X 7464   1.700   3.634  12.004
   69SLPC  H18Y 7465   1.778   3.727  11.871
   69SLPC  H18Z 7466   1.813   3.768  12.042
   70SLPC     N 7467   4.063   3.368  13.959
   70SLPC   C13 7468   3.974   3.273  13.885
   70SLPC  H13A 7469   3.977   3.174  13.928
   70SLPC  H13B 7470   3.873   3.309  13.881
   70SLPC  H13C 7471   4.010   3.267  13.781
   70SLPC   C14 7472   4.192   3.298  13.983
   70SLPC  H14A 7473   4.260   3.357  14.045
   70SLPC  H14B 7474   4.175   3.205  14.036
   70SLPC  H14C 7475   4.241   3.277  13.889
   70SLPC   C15 7476   4.001   3.402  14.091
   70SLPC  H15A 7477   3.977   3.311  14.145
   70SLPC  H15B 7478   4.070   3.460  14.152
   70SLPC  H15C 7479   3.908   3.456  14.077
   70SLPC   C12 7480   4.087   3.491  13.873
   70SLPC  H12A 7481   4.128   3.572  13.932
   70SLPC  H12B 7482   3.990   3.524  13.836
   70SLPC   C11 7483   4.173   3.477  13.745
   70SLPC  H11A 7484   4.271   3.428  13.767
   70SLPC  H11B 7485   4.195   3.579  13.704
   70SLPC     P 7486   4.164   3.361  13.510
   70SLPC   O13 7487   4.085   3.420  13.400
   70SLPC   O14 7488   4.310   3.384  13.510
   70SLPC   O12 7489   4.100   3.403  13.649
   70SLPC   O11 7490   4.136   3.206  13.517
   70SLPC    C1 7491   4.193   3.125  13.621
   70SLPC    HA 7492   4.301   3.148  13.632
   70SLPC    HB 7493   4.143   3.144  13.718
   70SLPC    C2 7494   4.179   2.973  13.586
   70SLPC    HS 7495   4.254   2.915  13.644
   70SLPC   O21 7496   4.199   2.953  13.445
   70SLPC   C21 7497   4.319   2.988  13.404
   70SLPC   O22 7498   4.416   3.001  13.478
   70SLPC   C22 7499   4.319   2.993  13.251
   70SLPC   H2R 7500   4.401   2.925  13.220
   70SLPC   H2S 7501   4.222   2.954  13.212
   70SLPC    C3 7502   4.039   2.916  13.623
   70SLPC    HX 7503   4.037   2.897  13.732
   70SLPC    HY 7504   4.028   2.816  13.573
   70SLPC   O31 7505   3.932   3.007  13.589
   70SLPC   C31 7506   3.905   3.008  13.458
   70SLPC   O32 7507   3.931   2.918  13.381
   70SLPC   C32 7508   3.830   3.136  13.421
   70SLPC   H2X 7509   3.884   3.222  13.465
   70SLPC   H2Y 7510   3.728   3.129  13.464
   70SLPC   C23 7511   4.353   3.130  13.189
   70SLPC   H3R 7512   4.405   3.107  13.093
   70SLPC   H3S 7513   4.424   3.186  13.253
   70SLPC   C24 7514   4.232   3.219  13.156
   70SLPC   H4R 7515   4.169   3.231  13.246
   70SLPC   H4S 7516   4.169   3.171  13.078
   70SLPC   C25 7517   4.277   3.359  13.107
   70SLPC   H5R 7518   4.347   3.401  13.183
   70SLPC   H5S 7519   4.189   3.427  13.102
   70SLPC   C26 7520   4.344   3.350  12.971
   70SLPC   H6R 7521   4.268   3.319  12.896
   70SLPC   H6S 7522   4.422   3.270  12.975
   70SLPC   C27 7523   4.413   3.477  12.919
   70SLPC   H7R 7524   4.500   3.498  12.986
   70SLPC   H7S 7525   4.344   3.563  12.926
   70SLPC   C28 7526   4.462   3.460  12.774
   70SLPC   H8R 7527   4.530   3.546  12.749
   70SLPC   H8S 7528   4.374   3.470  12.707
   70SLPC   C29 7529   4.533   3.329  12.751
   70SLPC   H9R 7530   4.635   3.324  12.792
   70SLPC  C210 7531   4.487   3.220  12.686
   70SLPC  H10R 7532   4.556   3.134  12.677
   70SLPC  C211 7533   4.353   3.200  12.619
   70SLPC  H11R 7534   4.370   3.150  12.521
   70SLPC  H11S 7535   4.316   3.299  12.592
   70SLPC  C212 7536   4.243   3.128  12.697
   70SLPC  H12R 7537   4.254   3.130  12.806
   70SLPC  C213 7538   4.137   3.063  12.644
   70SLPC  H13R 7539   4.065   3.016  12.713
   70SLPC  C214 7540   4.103   3.047  12.497
   70SLPC  H14R 7541   4.185   3.088  12.434
   70SLPC  H14S 7542   4.012   3.106  12.474
   70SLPC  C215 7543   4.078   2.903  12.444
   70SLPC  H15R 7544   3.977   2.870  12.476
   70SLPC  H15S 7545   4.152   2.832  12.487
   70SLPC  C216 7546   4.086   2.893  12.290
   70SLPC  H16R 7547   4.048   2.793  12.260
   70SLPC  H16S 7548   4.193   2.899  12.259
   70SLPC  C217 7549   4.006   3.001  12.216
   70SLPC  H17R 7550   4.049   3.102  12.239
   70SLPC  H17S 7551   3.903   3.001  12.257
   70SLPC  C218 7552   4.002   2.984  12.064
   70SLPC  H18R 7553   3.965   2.883  12.037
   70SLPC  H18S 7554   4.103   2.999  12.020
   70SLPC  H18T 7555   3.933   3.059  12.019
   70SLPC   C33 7556   3.822   3.151  13.267
   70SLPC   H3X 7557   3.806   3.051  13.221
   70SLPC   H3Y 7558   3.919   3.190  13.229
   70SLPC   C34 7559   3.706   3.241  13.220
   70SLPC   H4X 7560   3.636   3.258  13.304
   70SLPC   H4Y 7561   3.650   3.191  13.139
   70SLPC   C35 7562   3.749   3.375  13.159
   70SLPC   H5X 7563   3.840   3.415  13.209
   70SLPC   H5Y 7564   3.665   3.445  13.176
   70SLPC   C36 7565   3.773   3.373  13.008
   70SLPC   H6X 7566   3.765   3.479  12.974
   70SLPC   H6Y 7567   3.694   3.316  12.954
   70SLPC   C37 7568   3.913   3.323  12.972
   70SLPC   H7X 7569   3.911   3.213  12.955
   70SLPC   H7Y 7570   3.981   3.342  13.058
   70SLPC   C38 7571   3.973   3.396  12.852
   70SLPC   H8X 7572   4.073   3.352  12.834
   70SLPC   H8Y 7573   3.988   3.503  12.880
   70SLPC   C39 7574   3.890   3.389  12.722
   70SLPC   H9X 7575   3.789   3.433  12.740
   70SLPC   H9Y 7576   3.876   3.283  12.692
   70SLPC  C310 7577   3.957   3.468  12.609
   70SLPC  H10X 7578   3.969   3.570  12.648
   70SLPC  H10Y 7579   3.894   3.469  12.518
   70SLPC  C311 7580   4.097   3.416  12.575
   70SLPC  H11X 7581   4.086   3.308  12.553
   70SLPC  H11Y 7582   4.161   3.427  12.665
   70SLPC  C312 7583   4.173   3.481  12.457
   70SLPC  H12X 7584   4.279   3.494  12.490
   70SLPC  H12Y 7585   4.135   3.583  12.433
   70SLPC  C313 7586   4.177   3.391  12.333
   70SLPC  H13X 7587   4.086   3.407  12.271
   70SLPC  H13Y 7588   4.176   3.285  12.365
   70SLPC  C314 7589   4.305   3.409  12.251
   70SLPC  H14X 7590   4.393   3.391  12.316
   70SLPC  H14Y 7591   4.312   3.514  12.216
   70SLPC  C315 7592   4.309   3.312  12.131
   70SLPC  H15X 7593   4.341   3.368  12.041
   70SLPC  H15Y 7594   4.206   3.273  12.111
   70SLPC  C316 7595   4.407   3.197  12.154
   70SLPC  H16X 7596   4.386   3.114  12.083
   70SLPC  H16Y 7597   4.394   3.157  12.257
   70SLPC  C317 7598   4.551   3.245  12.133
   70SLPC  H17X 7599   4.568   3.340  12.187
   70SLPC  H17Y 7600   4.563   3.266  12.025
   70SLPC  C318 7601   4.655   3.143  12.179
   70SLPC  H18X 7602   4.652   3.133  12.289
   70SLPC  H18Y 7603   4.757   3.176  12.149
   70SLPC  H18Z 7604   4.634   3.044  12.133
   71SLPC     N 7605   5.001   0.919  13.657
   71SLPC   C13 7606   4.922   0.937  13.783
   71SLPC  H13A 7607   4.846   0.861  13.789
   71SLPC  H13B 7608   4.989   0.927  13.868
   71SLPC  H13C 7609   4.873   1.034  13.784
   71SLPC   C14 7610   5.115   1.016  13.663
   71SLPC  H14A 7611   5.187   0.987  13.742
   71SLPC  H14B 7612   5.171   1.016  13.571
   71SLPC  H14C 7613   5.080   1.116  13.685
   71SLPC   C15 7614   4.914   0.948  13.540
   71SLPC  H15A 7615   4.826   0.882  13.536
   71SLPC  H15B 7616   4.875   1.048  13.549
   71SLPC  H15C 7617   4.969   0.938  13.447
   71SLPC   C12 7618   5.051   0.778  13.641
   71SLPC  H12A 7619   5.143   0.781  13.582
   71SLPC  H12B 7620   4.980   0.721  13.583
   71SLPC   C11 7621   5.084   0.696  13.766
   71SLPC  H11A 7622   5.107   0.590  13.737
   71SLPC  H11B 7623   4.997   0.689  13.835
   71SLPC     P 7624   5.337   0.754  13.758
   71SLPC   O13 7625   5.370   0.896  13.738
   71SLPC   O14 7626   5.420   0.662  13.838
   71SLPC   O12 7627   5.194   0.755  13.831
   71SLPC   O11 7628   5.306   0.689  13.614
   71SLPC    C1 7629   5.399   0.595  13.557
   71SLPC    HA 7630   5.458   0.543  13.637
   71SLPC    HB 7631   5.343   0.514  13.506
   71SLPC    C2 7632   5.502   0.653  13.454
   71SLPC    HS 7633   5.602   0.615  13.485
   71SLPC   O21 7634   5.501   0.797  13.457
   71SLPC   C21 7635   5.606   0.851  13.398
   71SLPC   O22 7636   5.692   0.789  13.336
   71SLPC   C22 7637   5.608   1.001  13.424
   71SLPC   H2R 7638   5.613   1.014  13.534
   71SLPC   H2S 7639   5.700   1.044  13.379
   71SLPC    C3 7640   5.474   0.601  13.307
   71SLPC    HX 7641   5.520   0.501  13.300
   71SLPC    HY 7642   5.529   0.661  13.231
   71SLPC   O31 7643   5.334   0.587  13.275
   71SLPC   C31 7644   5.280   0.701  13.237
   71SLPC   O32 7645   5.341   0.802  13.209
   71SLPC   C32 7646   5.129   0.688  13.249
   71SLPC   H2X 7647   5.089   0.791  13.259
   71SLPC   H2Y 7648   5.109   0.632  13.343
   71SLPC   C23 7649   5.484   1.076  13.369
   71SLPC   H3R 7650   5.487   1.178  13.413
   71SLPC   H3S 7651   5.391   1.026  13.404
   71SLPC   C24 7652   5.483   1.094  13.216
   71SLPC   H4R 7653   5.474   0.996  13.165
   71SLPC   H4S 7654   5.580   1.139  13.185
   71SLPC   C25 7655   5.371   1.188  13.169
   71SLPC   H5R 7656   5.388   1.218  13.064
   71SLPC   H5S 7657   5.380   1.281  13.230
   71SLPC   C26 7658   5.226   1.137  13.187
   71SLPC   H6R 7659   5.160   1.226  13.182
   71SLPC   H6S 7660   5.216   1.093  13.289
   71SLPC   C27 7661   5.171   1.036  13.084
   71SLPC   H7R 7662   5.071   1.003  13.121
   71SLPC   H7S 7663   5.234   0.946  13.079
   71SLPC   C28 7664   5.153   1.089  12.941
   71SLPC   H8R 7665   5.116   1.194  12.944
   71SLPC   H8S 7666   5.074   1.032  12.890
   71SLPC   C29 7667   5.278   1.081  12.858
   71SLPC   H9R 7668   5.338   1.172  12.862
   71SLPC  C210 7669   5.336   0.974  12.803
   71SLPC  H10R 7670   5.426   0.988  12.741
   71SLPC  C211 7671   5.287   0.833  12.811
   71SLPC  H11R 7672   5.273   0.794  12.708
   71SLPC  H11S 7673   5.189   0.828  12.861
   71SLPC  C212 7674   5.388   0.752  12.891
   71SLPC  H12R 7675   5.439   0.807  12.973
   71SLPC  C213 7676   5.413   0.621  12.876
   71SLPC  H13R 7677   5.488   0.573  12.940
   71SLPC  C214 7678   5.342   0.533  12.777
   71SLPC  H14R 7679   5.258   0.590  12.735
   71SLPC  H14S 7680   5.295   0.448  12.830
   71SLPC  C215 7681   5.419   0.479  12.655
   71SLPC  H15R 7682   5.386   0.373  12.640
   71SLPC  H15S 7683   5.528   0.476  12.672
   71SLPC  C216 7684   5.385   0.555  12.525
   71SLPC  H16R 7685   5.446   0.646  12.518
   71SLPC  H16S 7686   5.280   0.590  12.526
   71SLPC  C217 7687   5.408   0.470  12.400
   71SLPC  H17R 7688   5.330   0.392  12.393
   71SLPC  H17S 7689   5.505   0.419  12.412
   71SLPC  C218 7690   5.413   0.553  12.271
   71SLPC  H18R 7691   5.406   0.486  12.182
   71SLPC  H18S 7692   5.509   0.609  12.265
   71SLPC  H18T 7693   5.329   0.625  12.267
   71SLPC   C33 7694   5.057   0.615  13.132
   71SLPC   H3X 7695   5.080   0.507  13.133
   71SLPC   H3Y 7696   5.092   0.656  13.035
   71SLPC   C34 7697   4.909   0.645  13.155
   71SLPC   H4X 7698   4.895   0.755  13.138
   71SLPC   H4Y 7699   4.887   0.633  13.263
   71SLPC   C35 7700   4.795   0.570  13.083
   71SLPC   H5X 7701   4.745   0.660  13.044
   71SLPC   H5Y 7702   4.723   0.526  13.154
   71SLPC   C36 7703   4.803   0.481  12.957
   71SLPC   H6X 7704   4.789   0.374  12.983
   71SLPC   H6Y 7705   4.899   0.491  12.907
   71SLPC   C37 7706   4.685   0.529  12.867
   71SLPC   H7X 7707   4.700   0.639  12.860
   71SLPC   H7Y 7708   4.588   0.512  12.919
   71SLPC   C38 7709   4.673   0.491  12.719
   71SLPC   H8X 7710   4.633   0.389  12.703
   71SLPC   H8Y 7711   4.776   0.490  12.678
   71SLPC   C39 7712   4.591   0.599  12.644
   71SLPC   H9X 7713   4.606   0.696  12.695
   71SLPC   H9Y 7714   4.482   0.578  12.652
   71SLPC  C310 7715   4.634   0.623  12.498
   71SLPC  H10X 7716   4.559   0.583  12.427
   71SLPC  H10Y 7717   4.726   0.562  12.485
   71SLPC  C311 7718   4.672   0.769  12.461
   71SLPC  H11X 7719   4.671   0.836  12.549
   71SLPC  H11Y 7720   4.602   0.809  12.387
   71SLPC  C312 7721   4.810   0.769  12.397
   71SLPC  H12X 7722   4.813   0.689  12.321
   71SLPC  H12Y 7723   4.876   0.745  12.482
   71SLPC  C313 7724   4.876   0.893  12.338
   71SLPC  H13X 7725   4.878   0.974  12.415
   71SLPC  H13Y 7726   4.823   0.929  12.248
   71SLPC  C314 7727   5.019   0.846  12.303
   71SLPC  H14X 7728   5.008   0.757  12.237
   71SLPC  H14Y 7729   5.070   0.811  12.395
   71SLPC  C315 7730   5.109   0.945  12.228
   71SLPC  H15X 7731   5.049   1.025  12.180
   71SLPC  H15Y 7732   5.159   0.888  12.146
   71SLPC  C316 7733   5.219   1.005  12.316
   71SLPC  H16X 7734   5.218   0.961  12.418
   71SLPC  H16Y 7735   5.199   1.114  12.328
   71SLPC  C317 7736   5.358   0.986  12.255
   71SLPC  H17X 7737   5.357   1.024  12.150
   71SLPC  H17Y 7738   5.383   0.878  12.250
   71SLPC  C318 7739   5.465   1.060  12.336
   71SLPC  H18X 7740   5.430   1.162  12.362
   71SLPC  H18Y 7741   5.559   1.070  12.278
   71SLPC  H18Z 7742   5.487   1.006  12.430
   72SLPC     N 7743   4.566  -0.110  13.697
   72SLPC   C13 7744   4.533  -0.223  13.606
   72SLPC  H13A 7745   4.595  -0.226  13.517
   72SLPC  H13B 7746   4.546  -0.317  13.659
   72SLPC  H13C 7747   4.429  -0.218  13.575
   72SLPC   C14 7748   4.712  -0.114  13.730
   72SLPC  H14A 7749   4.740  -0.203  13.784
   72SLPC  H14B 7750   4.773  -0.105  13.640
   72SLPC  H14C 7751   4.737  -0.025  13.789
   72SLPC   C15 7752   4.486  -0.122  13.823
   72SLPC  H15A 7753   4.504  -0.216  13.874
   72SLPC  H15B 7754   4.514  -0.041  13.891
   72SLPC  H15C 7755   4.381  -0.112  13.804
   72SLPC   C12 7756   4.538   0.026  13.637
   72SLPC  H12A 7757   4.448   0.023  13.579
   72SLPC  H12B 7758   4.621   0.052  13.572
   72SLPC   C11 7759   4.523   0.146  13.736
   72SLPC  H11A 7760   4.431   0.136  13.799
   72SLPC  H11B 7761   4.504   0.234  13.671
   72SLPC     P 7762   4.759   0.249  13.769
   72SLPC   O13 7763   4.853   0.283  13.880
   72SLPC   O14 7764   4.815   0.177  13.653
   72SLPC   O12 7765   4.637   0.164  13.822
   72SLPC   O11 7766   4.691   0.383  13.718
   72SLPC    C1 7767   4.615   0.463  13.808
   72SLPC    HA 7768   4.524   0.408  13.841
   72SLPC    HB 7769   4.676   0.487  13.898
   72SLPC    C2 7770   4.571   0.599  13.743
   72SLPC    HS 7771   4.492   0.645  13.807
   72SLPC   O21 7772   4.524   0.590  13.608
   72SLPC   C21 7773   4.436   0.500  13.572
   72SLPC   O22 7774   4.374   0.425  13.646
   72SLPC   C22 7775   4.409   0.514  13.420
   72SLPC   H2R 7776   4.462   0.432  13.368
   72SLPC   H2S 7777   4.301   0.496  13.408
   72SLPC    C3 7778   4.693   0.694  13.739
   72SLPC    HX 7779   4.718   0.722  13.844
   72SLPC    HY 7780   4.666   0.790  13.687
   72SLPC   O31 7781   4.807   0.626  13.679
   72SLPC   C31 7782   4.794   0.614  13.546
   72SLPC   O32 7783   4.753   0.704  13.474
   72SLPC   C32 7784   4.852   0.484  13.490
   72SLPC   H2X 7785   4.892   0.420  13.572
   72SLPC   H2Y 7786   4.937   0.511  13.425
   72SLPC   C23 7787   4.445   0.652  13.356
   72SLPC   H3R 7788   4.554   0.657  13.338
   72SLPC   H3S 7789   4.418   0.736  13.425
   72SLPC   C24 7790   4.373   0.677  13.223
   72SLPC   H4R 7791   4.263   0.673  13.241
   72SLPC   H4S 7792   4.397   0.595  13.151
   72SLPC   C25 7793   4.402   0.813  13.156
   72SLPC   H5R 7794   4.384   0.897  13.226
   72SLPC   H5S 7795   4.327   0.822  13.074
   72SLPC   C26 7796   4.541   0.821  13.092
   72SLPC   H6R 7797   4.574   0.715  13.097
   72SLPC   H6S 7798   4.610   0.884  13.153
   72SLPC   C27 7799   4.540   0.861  12.943
   72SLPC   H7R 7800   4.456   0.932  12.932
   72SLPC   H7S 7801   4.515   0.771  12.883
   72SLPC   C28 7802   4.663   0.935  12.884
   72SLPC   H8R 7803   4.647   1.040  12.915
   72SLPC   H8S 7804   4.655   0.935  12.773
   72SLPC   C29 7805   4.802   0.901  12.929
   72SLPC   H9R 7806   4.821   0.938  13.031
   72SLPC  C210 7807   4.905   0.838  12.867
   72SLPC  H10R 7808   4.996   0.831  12.929
   72SLPC  C211 7809   4.921   0.775  12.729
   72SLPC  H11R 7810   4.976   0.846  12.662
   72SLPC  H11S 7811   4.821   0.759  12.686
   72SLPC  C212 7812   4.998   0.643  12.739
   72SLPC  H12R 7813   5.038   0.629  12.841
   72SLPC  C213 7814   5.031   0.541  12.656
   72SLPC  H13R 7815   5.087   0.458  12.704
   72SLPC  C214 7816   5.011   0.507  12.509
   72SLPC  H14R 7817   5.110   0.501  12.460
   72SLPC  H14S 7818   4.960   0.585  12.453
   72SLPC  C215 7819   4.943   0.372  12.476
   72SLPC  H15R 7820   4.873   0.342  12.557
   72SLPC  H15S 7821   5.024   0.295  12.473
   72SLPC  C216 7822   4.866   0.366  12.342
   72SLPC  H16R 7823   4.764   0.406  12.356
   72SLPC  H16S 7824   4.854   0.259  12.313
   72SLPC  C217 7825   4.931   0.442  12.224
   72SLPC  H17R 7826   4.943   0.549  12.250
   72SLPC  H17S 7827   4.860   0.439  12.138
   72SLPC  C218 7828   5.067   0.389  12.181
   72SLPC  H18R 7829   5.112   0.455  12.104
   72SLPC  H18S 7830   5.057   0.288  12.137
   72SLPC  H18T 7831   5.136   0.383  12.267
   72SLPC   C33 7832   4.742   0.412  13.408
   72SLPC   H3X 7833   4.679   0.489  13.358
   72SLPC   H3Y 7834   4.675   0.353  13.475
   72SLPC   C34 7835   4.791   0.323  13.293
   72SLPC   H4X 7836   4.870   0.378  13.238
   72SLPC   H4Y 7837   4.710   0.300  13.219
   72SLPC   C35 7838   4.854   0.194  13.340
   72SLPC   H5X 7839   4.896   0.214  13.440
   72SLPC   H5Y 7840   4.937   0.173  13.270
   72SLPC   C36 7841   4.763   0.072  13.349
   72SLPC   H6X 7842   4.661   0.105  13.380
   72SLPC   H6Y 7843   4.803   0.006  13.428
   72SLPC   C37 7844   4.757  -0.002  13.214
   72SLPC   H7X 7845   4.859  -0.029  13.180
   72SLPC   H7Y 7846   4.714   0.070  13.141
   72SLPC   C38 7847   4.673  -0.129  13.223
   72SLPC   H8X 7848   4.595  -0.110  13.301
   72SLPC   H8Y 7849   4.738  -0.211  13.260
   72SLPC   C39 7850   4.606  -0.174  13.092
   72SLPC   H9X 7851   4.545  -0.264  13.113
   72SLPC   H9Y 7852   4.686  -0.205  13.021
   72SLPC  C310 7853   4.518  -0.071  13.018
   72SLPC  H10X 7854   4.452  -0.126  12.948
   72SLPC  H10Y 7855   4.586  -0.008  12.957
   72SLPC  C311 7856   4.430   0.023  13.104
   72SLPC  H11X 7857   4.494   0.090  13.165
   72SLPC  H11Y 7858   4.369  -0.037  13.174
   72SLPC  C312 7859   4.330   0.106  13.021
   72SLPC  H12X 7860   4.268   0.170  13.088
   72SLPC  H12Y 7861   4.262   0.034  12.970
   72SLPC  C313 7862   4.396   0.195  12.915
   72SLPC  H13X 7863   4.487   0.147  12.875
   72SLPC  H13Y 7864   4.428   0.292  12.959
   72SLPC  C314 7865   4.304   0.217  12.794
   72SLPC  H14X 7866   4.219   0.284  12.820
   72SLPC  H14Y 7867   4.262   0.119  12.762
   72SLPC  C315 7868   4.382   0.274  12.675
   72SLPC  H15X 7869   4.477   0.217  12.660
   72SLPC  H15Y 7870   4.409   0.379  12.701
   72SLPC  C316 7871   4.302   0.271  12.546
   72SLPC  H16X 7872   4.195   0.294  12.569
   72SLPC  H16Y 7873   4.305   0.168  12.501
   72SLPC  C317 7874   4.351   0.373  12.444
   72SLPC  H17X 7875   4.447   0.339  12.399
   72SLPC  H17Y 7876   4.371   0.469  12.498
   72SLPC  C318 7877   4.246   0.402  12.337
   72SLPC  H18X 7878   4.156   0.446  12.385
   72SLPC  H18Y 7879   4.217   0.309  12.283
   72SLPC  H18Z 7880   4.285   0.476  12.264
   73SLPC     N 7881   3.513   3.453  10.099
   73SLPC   C13 7882   3.431   3.472  10.223
   73SLPC  H13A 7883   3.477   3.418  10.307
   73SLPC  H13B 7884   3.423   3.575  10.255
   73SLPC  H13C 7885   3.331   3.431  10.211
   73SLPC   C14 7886   3.648   3.514  10.120
   73SLPC  H14A 7887   3.639   3.619  10.142
   73SLPC  H14B 7888   3.698   3.467  10.206
   73SLPC  H14C 7889   3.714   3.499  10.036
   73SLPC   C15 7890   3.443   3.515   9.984
   73SLPC  H15A 7891   3.506   3.519   9.896
   73SLPC  H15B 7892   3.354   3.456   9.957
   73SLPC  H15C 7893   3.407   3.614  10.011
   73SLPC   C12 7894   3.527   3.303  10.074
   73SLPC  H12A 7895   3.559   3.288   9.971
   73SLPC  H12B 7896   3.428   3.258  10.081
   73SLPC   C11 7897   3.620   3.222  10.166
   73SLPC  H11A 7898   3.726   3.255  10.148
   73SLPC  H11B 7899   3.616   3.116  10.135
   73SLPC     P 7900   3.674   3.284  10.416
   73SLPC   O13 7901   3.686   3.179  10.517
   73SLPC   O14 7902   3.795   3.340  10.350
   73SLPC   O12 7903   3.578   3.232  10.302
   73SLPC   O11 7904   3.586   3.404  10.471
   73SLPC    C1 7905   3.648   3.529  10.502
   73SLPC    HA 7906   3.682   3.581  10.410
   73SLPC    HB 7907   3.572   3.594  10.550
   73SLPC    C2 7908   3.770   3.520  10.600
   73SLPC    HS 7909   3.857   3.482  10.540
   73SLPC   O21 7910   3.741   3.432  10.708
   73SLPC   C21 7911   3.847   3.405  10.780
   73SLPC   O22 7912   3.963   3.421  10.749
   73SLPC   C22 7913   3.804   3.359  10.917
   73SLPC   H2R 7914   3.699   3.391  10.936
   73SLPC   H2S 7915   3.808   3.248  10.916
   73SLPC    C3 7916   3.805   3.660  10.655
   73SLPC    HX 7917   3.826   3.720  10.565
   73SLPC    HY 7918   3.896   3.659  10.719
   73SLPC   O31 7919   3.694   3.713  10.727
   73SLPC   C31 7920   3.686   3.844  10.736
   73SLPC   O32 7921   3.764   3.926  10.691
   73SLPC   C32 7922   3.567   3.875  10.825
   73SLPC   H2X 7923   3.501   3.786  10.833
   73SLPC   H2Y 7924   3.510   3.958  10.777
   73SLPC   C23 7925   3.900   3.417  11.023
   73SLPC   H3R 7926   3.867   3.520  11.052
   73SLPC   H3S 7927   4.004   3.424  10.985
   73SLPC   C24 7928   3.905   3.326  11.144
   73SLPC   H4R 7929   3.974   3.368  11.221
   73SLPC   H4S 7930   3.946   3.228  11.113
   73SLPC   C25 7931   3.768   3.302  11.204
   73SLPC   H5R 7932   3.693   3.271  11.128
   73SLPC   H5S 7933   3.734   3.399  11.246
   73SLPC   C26 7934   3.776   3.193  11.310
   73SLPC   H6R 7935   3.849   3.225  11.386
   73SLPC   H6S 7936   3.818   3.101  11.264
   73SLPC   C27 7937   3.639   3.159  11.369
   73SLPC   H7R 7938   3.650   3.078  11.445
   73SLPC   H7S 7939   3.582   3.118  11.283
   73SLPC   C28 7940   3.558   3.277  11.427
   73SLPC   H8R 7941   3.602   3.370  11.389
   73SLPC   H8S 7942   3.577   3.281  11.537
   73SLPC   C29 7943   3.410   3.278  11.397
   73SLPC   H9R 7944   3.351   3.206  11.454
   73SLPC  C210 7945   3.349   3.346  11.298
   73SLPC  H10R 7946   3.239   3.339  11.290
   73SLPC  C211 7947   3.415   3.435  11.196
   73SLPC  H11R 7948   3.410   3.384  11.098
   73SLPC  H11S 7949   3.524   3.442  11.214
   73SLPC  C212 7950   3.358   3.573  11.179
   73SLPC  H12R 7951   3.278   3.584  11.104
   73SLPC  C213 7952   3.400   3.682  11.246
   73SLPC  H13R 7953   3.351   3.780  11.229
   73SLPC  C214 7954   3.510   3.682  11.348
   73SLPC  H14R 7955   3.566   3.777  11.346
   73SLPC  H14S 7956   3.586   3.604  11.325
   73SLPC  C215 7957   3.460   3.659  11.491
   73SLPC  H15R 7958   3.378   3.584  11.492
   73SLPC  H15S 7959   3.420   3.754  11.533
   73SLPC  C216 7960   3.573   3.604  11.578
   73SLPC  H16R 7961   3.660   3.672  11.575
   73SLPC  H16S 7962   3.607   3.509  11.535
   73SLPC  C217 7963   3.536   3.582  11.724
   73SLPC  H17R 7964   3.491   3.676  11.761
   73SLPC  H17S 7965   3.628   3.567  11.782
   73SLPC  C218 7966   3.445   3.461  11.745
   73SLPC  H18R 7967   3.492   3.369  11.706
   73SLPC  H18S 7968   3.348   3.475  11.692
   73SLPC  H18T 7969   3.425   3.445  11.853
   73SLPC   C33 7970   3.619   3.918  10.962
   73SLPC   H3X 7971   3.532   3.941  11.028
   73SLPC   H3Y 7972   3.678   4.012  10.948
   73SLPC   C34 7973   3.710   3.816  11.032
   73SLPC   H4X 7974   3.796   3.787  10.967
   73SLPC   H4Y 7975   3.651   3.724  11.055
   73SLPC   C35 7976   3.767   3.876  11.161
   73SLPC   H5X 7977   3.680   3.920  11.213
   73SLPC   H5Y 7978   3.838   3.958  11.141
   73SLPC   C36 7979   3.826   3.774  11.259
   73SLPC   H6X 7980   3.782   3.675  11.238
   73SLPC   H6Y 7981   3.791   3.807  11.360
   73SLPC   C37 7982   3.979   3.764  11.266
   73SLPC   H7X 7983   4.023   3.867  11.266
   73SLPC   H7Y 7984   4.016   3.712  11.175
   73SLPC   C38 7985   4.026   3.690  11.393
   73SLPC   H8X 7986   4.038   3.763  11.477
   73SLPC   H8Y 7987   4.125   3.643  11.375
   73SLPC   C39 7988   3.925   3.583  11.438
   73SLPC   H9X 7989   3.898   3.521  11.350
   73SLPC   H9Y 7990   3.833   3.634  11.473
   73SLPC  C310 7991   3.967   3.488  11.551
   73SLPC  H10X 7992   4.003   3.545  11.638
   73SLPC  H10Y 7993   4.048   3.423  11.512
   73SLPC  C311 7994   3.844   3.403  11.591
   73SLPC  H11X 7995   3.786   3.395  11.497
   73SLPC  H11Y 7996   3.780   3.460  11.660
   73SLPC  C312 7997   3.868   3.259  11.638
   73SLPC  H12X 7998   3.964   3.225  11.594
   73SLPC  H12Y 7999   3.789   3.195  11.594
   73SLPC  C313 8000   3.862   3.231  11.789
   73SLPC  H13X 8001   3.939   3.291  11.841
   73SLPC  H13Y 8002   3.888   3.124  11.805
   73SLPC  C314 8003   3.724   3.259  11.851
   73SLPC  H14X 8004   3.654   3.180  11.818
   73SLPC  H14Y 8005   3.687   3.355  11.810
   73SLPC  C315 8006   3.725   3.274  12.004
   73SLPC  H15X 8007   3.827   3.301  12.036
   73SLPC  H15Y 8008   3.700   3.176  12.051
   73SLPC  C316 8009   3.627   3.383  12.053
   73SLPC  H16X 8010   3.524   3.346  12.037
   73SLPC  H16Y 8011   3.639   3.475  11.991
   73SLPC  C317 8012   3.647   3.426  12.200
   73SLPC  H17X 8013   3.550   3.461  12.240
   73SLPC  H17Y 8014   3.716   3.512  12.203
   73SLPC  C318 8015   3.702   3.316  12.289
   73SLPC  H18X 8016   3.699   3.345  12.396
   73SLPC  H18Y 8017   3.808   3.293  12.263
   73SLPC  H18Z 8018   3.642   3.224  12.275
   74SLPC     N 8019   2.306   0.776  10.139
   74SLPC   C13 8020   2.442   0.757  10.080
   74SLPC  H13A 8021   2.438   0.763   9.971
   74SLPC  H13B 8022   2.515   0.831  10.113
   74SLPC  H13C 8023   2.479   0.658  10.105
   74SLPC   C14 8024   2.220   0.675  10.069
   74SLPC  H14A 8025   2.231   0.682   9.962
   74SLPC  H14B 8026   2.258   0.575  10.097
   74SLPC  H14C 8027   2.117   0.678  10.099
   74SLPC   C15 8028   2.263   0.916  10.112
   74SLPC  H15A 8029   2.166   0.936  10.154
   74SLPC  H15B 8030   2.331   0.989  10.156
   74SLPC  H15C 8031   2.261   0.934  10.006
   74SLPC   C12 8032   2.307   0.747  10.289
   74SLPC  H12A 8033   2.251   0.821  10.345
   74SLPC  H12B 8034   2.410   0.757  10.323
   74SLPC   C11 8035   2.264   0.606  10.333
   74SLPC  H11A 8036   2.162   0.579  10.299
   74SLPC  H11B 8037   2.259   0.601  10.444
   74SLPC     P 8038   2.481   0.473  10.370
   74SLPC   O13 8039   2.427   0.400  10.487
   74SLPC   O14 8040   2.583   0.410  10.285
   74SLPC   O12 8041   2.358   0.513  10.278
   74SLPC   O11 8042   2.528   0.618  10.413
   74SLPC    C1 8043   2.626   0.698  10.346
   74SLPC    HA 8044   2.665   0.648  10.254
   74SLPC    HB 8045   2.582   0.795  10.314
   74SLPC    C2 8046   2.749   0.734  10.435
   74SLPC    HS 8047   2.817   0.800  10.377
   74SLPC   O21 8048   2.810   0.606  10.454
   74SLPC   C21 8049   2.841   0.558  10.569
   74SLPC   O22 8050   2.900   0.614  10.660
   74SLPC   C22 8051   2.794   0.412  10.570
   74SLPC   H2R 8052   2.753   0.387  10.470
   74SLPC   H2S 8053   2.877   0.341  10.583
   74SLPC    C3 8054   2.709   0.810  10.568
   74SLPC    HX 8055   2.668   0.908  10.533
   74SLPC    HY 8056   2.801   0.831  10.626
   74SLPC   O31 8057   2.609   0.743  10.649
   74SLPC   C31 8058   2.563   0.816  10.751
   74SLPC   O32 8059   2.609   0.924  10.786
   74SLPC   C32 8060   2.438   0.751  10.814
   74SLPC   H2X 8061   2.380   0.831  10.864
   74SLPC   H2Y 8062   2.476   0.684  10.894
   74SLPC   C23 8063   2.688   0.386  10.678
   74SLPC   H3R 8064   2.663   0.277  10.672
   74SLPC   H3S 8065   2.595   0.441  10.651
   74SLPC   C24 8066   2.724   0.423  10.822
   74SLPC   H4R 8067   2.716   0.534  10.834
   74SLPC   H4S 8068   2.828   0.394  10.847
   74SLPC   C25 8069   2.627   0.352  10.916
   74SLPC   H5R 8070   2.667   0.254  10.948
   74SLPC   H5S 8071   2.539   0.334  10.849
   74SLPC   C26 8072   2.568   0.430  11.033
   74SLPC   H6R 8073   2.551   0.534  11.000
   74SLPC   H6S 8074   2.636   0.433  11.120
   74SLPC   C27 8075   2.429   0.373  11.070
   74SLPC   H7R 8076   2.377   0.342  10.976
   74SLPC   H7S 8077   2.367   0.454  11.112
   74SLPC   C28 8078   2.431   0.250  11.162
   74SLPC   H8R 8079   2.508   0.182  11.122
   74SLPC   H8S 8080   2.332   0.199  11.153
   74SLPC   C29 8081   2.463   0.281  11.305
   74SLPC   H9R 8082   2.564   0.324  11.320
   74SLPC  C210 8083   2.383   0.267  11.412
   74SLPC  H10R 8084   2.425   0.297  11.509
   74SLPC  C211 8085   2.240   0.218  11.416
   74SLPC  H11R 8086   2.225   0.139  11.339
   74SLPC  H11S 8087   2.172   0.301  11.387
   74SLPC  C212 8088   2.195   0.164  11.551
   74SLPC  H12R 8089   2.150   0.064  11.546
   74SLPC  C213 8090   2.204   0.223  11.672
   74SLPC  H13R 8091   2.168   0.167  11.759
   74SLPC  C214 8092   2.264   0.358  11.705
   74SLPC  H14R 8093   2.284   0.416  11.613
   74SLPC  H14S 8094   2.361   0.345  11.756
   74SLPC  C215 8095   2.175   0.449  11.793
   74SLPC  H15R 8096   2.172   0.410  11.897
   74SLPC  H15S 8097   2.071   0.447  11.753
   74SLPC  C216 8098   2.221   0.596  11.792
   74SLPC  H16R 8099   2.150   0.656  11.852
   74SLPC  H16S 8100   2.217   0.634  11.687
   74SLPC  C217 8101   2.364   0.622  11.844
   74SLPC  H17R 8102   2.385   0.731  11.832
   74SLPC  H17S 8103   2.437   0.568  11.781
   74SLPC  C218 8104   2.384   0.586  11.991
   74SLPC  H18R 8105   2.480   0.627  12.029
   74SLPC  H18S 8106   2.384   0.476  12.006
   74SLPC  H18T 8107   2.303   0.629  12.053
   74SLPC   C33 8108   2.346   0.670  10.719
   74SLPC   H3X 8109   2.411   0.616  10.645
   74SLPC   H3Y 8110   2.280   0.736  10.660
   74SLPC   C34 8111   2.264   0.559  10.788
   74SLPC   H4X 8112   2.320   0.517  10.874
   74SLPC   H4Y 8113   2.254   0.477  10.713
   74SLPC   C35 8114   2.120   0.597  10.832
   74SLPC   H5X 8115   2.057   0.506  10.825
   74SLPC   H5Y 8116   2.080   0.671  10.760
   74SLPC   C36 8117   2.109   0.652  10.976
   74SLPC   H6X 8118   2.026   0.726  10.978
   74SLPC   H6Y 8119   2.203   0.705  11.001
   74SLPC   C37 8120   2.077   0.544  11.082
   74SLPC   H7X 8121   2.155   0.465  11.081
   74SLPC   H7Y 8122   1.982   0.494  11.051
   74SLPC   C38 8123   2.056   0.597  11.226
   74SLPC   H8X 8124   2.032   0.511  11.293
   74SLPC   H8Y 8125   1.967   0.663  11.224
   74SLPC   C39 8126   2.173   0.677  11.287
   74SLPC   H9X 8127   2.131   0.747  11.363
   74SLPC   H9Y 8128   2.220   0.738  11.208
   74SLPC  C310 8129   2.279   0.591  11.358
   74SLPC  H10X 8130   2.315   0.516  11.287
   74SLPC  H10Y 8131   2.232   0.536  11.442
   74SLPC  C311 8132   2.401   0.669  11.410
   74SLPC  H11X 8133   2.382   0.705  11.513
   74SLPC  H11Y 8134   2.419   0.757  11.346
   74SLPC  C312 8135   2.532   0.589  11.406
   74SLPC  H12X 8136   2.553   0.556  11.302
   74SLPC  H12Y 8137   2.517   0.499  11.469
   74SLPC  C313 8138   2.652   0.668  11.459
   74SLPC  H13X 8139   2.627   0.705  11.560
   74SLPC  H13Y 8140   2.669   0.757  11.394
   74SLPC  C314 8141   2.783   0.588  11.464
   74SLPC  H14X 8142   2.857   0.653  11.516
   74SLPC  H14Y 8143   2.821   0.569  11.362
   74SLPC  C315 8144   2.777   0.455  11.541
   74SLPC  H15X 8145   2.880   0.417  11.559
   74SLPC  H15Y 8146   2.724   0.377  11.480
   74SLPC  C316 8147   2.706   0.472  11.674
   74SLPC  H16X 8148   2.597   0.453  11.658
   74SLPC  H16Y 8149   2.717   0.577  11.710
   74SLPC  C317 8150   2.755   0.382  11.786
   74SLPC  H17X 8151   2.843   0.429  11.835
   74SLPC  H17Y 8152   2.789   0.283  11.750
   74SLPC  C318 8153   2.641   0.366  11.886
   74SLPC  H18X 8154   2.603   0.466  11.912
   74SLPC  H18Y 8155   2.675   0.315  11.978
   74SLPC  H18Z 8156   2.557   0.310  11.841
   75SLPC     N 8157   5.051   1.405  10.173
   75SLPC   C13 8158   5.073   1.384  10.320
   75SLPC  H13A 8159   5.177   1.406  10.345
   75SLPC  H13B 8160   5.014   1.455  10.377
   75SLPC  H13C 8161   5.047   1.284  10.350
   75SLPC   C14 8162   4.905   1.388  10.146
   75SLPC  H14A 8163   4.875   1.286  10.166
   75SLPC  H14B 8164   4.844   1.451  10.209
   75SLPC  H14C 8165   4.881   1.410  10.042
   75SLPC   C15 8166   5.128   1.302  10.094
   75SLPC  H15A 8167   5.110   1.311   9.987
   75SLPC  H15B 8168   5.235   1.312  10.111
   75SLPC  H15C 8169   5.098   1.201  10.119
   75SLPC   C12 8170   5.097   1.547  10.140
   75SLPC  H12A 8171   5.051   1.615  10.211
   75SLPC  H12B 8172   5.062   1.574  10.042
   75SLPC   C11 8173   5.248   1.580  10.149
   75SLPC  H11A 8174   5.265   1.681  10.105
   75SLPC  H11B 8175   5.307   1.509  10.087
   75SLPC     P 8176   5.283   1.701  10.377
   75SLPC   O13 8177   5.362   1.810  10.315
   75SLPC   O14 8178   5.137   1.721  10.397
   75SLPC   O12 8179   5.295   1.572  10.284
   75SLPC   O11 8180   5.353   1.651  10.508
   75SLPC    C1 8181   5.313   1.528  10.565
   75SLPC    HA 8182   5.206   1.504  10.544
   75SLPC    HB 8183   5.376   1.446  10.527
   75SLPC    C2 8184   5.327   1.538  10.718
   75SLPC    HS 8185   5.295   1.440  10.762
   75SLPC   O21 8186   5.248   1.647  10.767
   75SLPC   C21 8187   5.122   1.614  10.788
   75SLPC   O22 8188   5.063   1.518  10.741
   75SLPC   C22 8189   5.067   1.709  10.893
   75SLPC   H2R 8190   5.151   1.767  10.937
   75SLPC   H2S 8191   4.998   1.781  10.846
   75SLPC    C3 8192   5.474   1.563  10.763
   75SLPC    HX 8193   5.512   1.646  10.699
   75SLPC    HY 8194   5.535   1.474  10.740
   75SLPC   O31 8195   5.494   1.600  10.901
   75SLPC   C31 8196   5.411   1.563  10.998
   75SLPC   O32 8197   5.309   1.498  10.989
   75SLPC   C32 8198   5.470   1.606  11.132
   75SLPC   H2X 8199   5.514   1.707  11.121
   75SLPC   H2Y 8200   5.549   1.534  11.160
   75SLPC   C23 8201   5.001   1.632  11.010
   75SLPC   H3R 8202   5.065   1.547  11.042
   75SLPC   H3S 8203   4.902   1.591  10.982
   75SLPC   C24 8204   4.985   1.728  11.127
   75SLPC   H4R 8205   4.933   1.818  11.088
   75SLPC   H4S 8206   5.086   1.757  11.164
   75SLPC   C25 8207   4.903   1.677  11.245
   75SLPC   H5R 8208   4.886   1.568  11.238
   75SLPC   H5S 8209   4.804   1.727  11.237
   75SLPC   C26 8210   4.967   1.713  11.380
   75SLPC   H6R 8211   5.009   1.816  11.378
   75SLPC   H6S 8212   5.050   1.643  11.398
   75SLPC   C27 8213   4.865   1.702  11.492
   75SLPC   H7R 8214   4.819   1.601  11.484
   75SLPC   H7S 8215   4.787   1.780  11.479
   75SLPC   C28 8216   4.922   1.715  11.634
   75SLPC   H8R 8217   5.011   1.649  11.644
   75SLPC   H8S 8218   4.841   1.672  11.697
   75SLPC   C29 8219   4.946   1.855  11.682
   75SLPC   H9R 8220   4.864   1.925  11.663
   75SLPC  C210 8221   5.053   1.897  11.751
   75SLPC  H10R 8222   5.057   2.001  11.786
   75SLPC  C211 8223   5.170   1.812  11.793
   75SLPC  H11R 8224   5.257   1.881  11.797
   75SLPC  H11S 8225   5.198   1.738  11.714
   75SLPC  C212 8226   5.164   1.744  11.927
   75SLPC  H12R 8227   5.261   1.744  11.978
   75SLPC  C213 8228   5.064   1.685  11.997
   75SLPC  H13R 8229   5.091   1.650  12.097
   75SLPC  C214 8230   4.918   1.659  11.971
   75SLPC  H14R 8231   4.893   1.582  12.045
   75SLPC  H14S 8232   4.905   1.609  11.874
   75SLPC  C215 8233   4.811   1.769  11.992
   75SLPC  H15R 8234   4.766   1.792  11.893
   75SLPC  H15S 8235   4.861   1.861  12.026
   75SLPC  C216 8236   4.692   1.730  12.085
   75SLPC  H16R 8237   4.634   1.653  12.029
   75SLPC  H16S 8238   4.626   1.818  12.097
   75SLPC  C217 8239   4.722   1.672  12.225
   75SLPC  H17R 8240   4.721   1.754  12.300
   75SLPC  H17S 8241   4.823   1.628  12.228
   75SLPC  C218 8242   4.621   1.564  12.269
   75SLPC  H18R 8243   4.654   1.515  12.363
   75SLPC  H18S 8244   4.612   1.485  12.191
   75SLPC  H18T 8245   4.521   1.609  12.286
   75SLPC   C33 8246   5.361   1.609  11.242
   75SLPC   H3X 8247   5.274   1.670  11.212
   75SLPC   H3Y 8248   5.406   1.658  11.331
   75SLPC   C34 8249   5.313   1.470  11.284
   75SLPC   H4X 8250   5.392   1.393  11.265
   75SLPC   H4Y 8251   5.224   1.441  11.223
   75SLPC   C35 8252   5.278   1.468  11.432
   75SLPC   H5X 8253   5.223   1.561  11.459
   75SLPC   H5Y 8254   5.373   1.470  11.490
   75SLPC   C36 8255   5.192   1.349  11.473
   75SLPC   H6X 8256   5.243   1.253  11.449
   75SLPC   H6Y 8257   5.096   1.353  11.417
   75SLPC   C37 8258   5.163   1.357  11.622
   75SLPC   H7X 8259   5.082   1.286  11.648
   75SLPC   H7Y 8260   5.127   1.460  11.646
   75SLPC   C38 8261   5.284   1.325  11.709
   75SLPC   H8X 8262   5.377   1.372  11.673
   75SLPC   H8Y 8263   5.299   1.214  11.704
   75SLPC   C39 8264   5.260   1.368  11.853
   75SLPC   H9X 8265   5.151   1.358  11.875
   75SLPC   H9Y 8266   5.287   1.475  11.866
   75SLPC  C310 8267   5.338   1.280  11.950
   75SLPC  H10X 8268   5.445   1.311  11.947
   75SLPC  H10Y 8269   5.333   1.174  11.916
   75SLPC  C311 8270   5.283   1.289  12.091
   75SLPC  H11X 8271   5.350   1.234  12.160
   75SLPC  H11Y 8272   5.184   1.238  12.094
   75SLPC  C312 8273   5.267   1.432  12.143
   75SLPC  H12X 8274   5.173   1.472  12.099
   75SLPC  H12Y 8275   5.351   1.495  12.107
   75SLPC  C313 8276   5.261   1.437  12.296
   75SLPC  H13X 8277   5.360   1.409  12.335
   75SLPC  H13Y 8278   5.193   1.357  12.328
   75SLPC  C314 8279   5.217   1.572  12.357
   75SLPC  H14X 8280   5.131   1.549  12.424
   75SLPC  H14Y 8281   5.178   1.640  12.278
   75SLPC  C315 8282   5.322   1.646  12.442
   75SLPC  H15X 8283   5.395   1.575  12.484
   75SLPC  H15Y 8284   5.272   1.693  12.529
   75SLPC  C316 8285   5.401   1.753  12.366
   75SLPC  H16X 8286   5.477   1.796  12.436
   75SLPC  H16Y 8287   5.336   1.836  12.335
   75SLPC  C317 8288   5.473   1.692  12.245
   75SLPC  H17X 8289   5.414   1.712  12.153
   75SLPC  H17Y 8290   5.473   1.582  12.260
   75SLPC  C318 8291   5.620   1.728  12.232
   75SLPC  H18X 8292   5.676   1.650  12.177
   75SLPC  H18Y 8293   5.664   1.740  12.333
   75SLPC  H18Z 8294   5.633   1.824  12.179
   76SLPC     N 8295  -0.035   0.390  10.040
   76SLPC   C13 8296  -0.152   0.390  10.133
   76SLPC  H13A 8297  -0.115   0.377  10.235
   76SLPC  H13B 8298  -0.209   0.482  10.130
   76SLPC  H13C 8299  -0.219   0.306  10.114
   76SLPC   C14 8300   0.057   0.503  10.075
   76SLPC  H14A 8301   0.005   0.599  10.078
   76SLPC  H14B 8302   0.103   0.483  10.172
   76SLPC  H14C 8303   0.138   0.510  10.004
   76SLPC   C15 8304  -0.096   0.408   9.904
   76SLPC  H15A 8305  -0.145   0.505   9.897
   76SLPC  H15B 8306  -0.021   0.406   9.826
   76SLPC  H15C 8307  -0.169   0.331   9.885
   76SLPC   C12 8308   0.037   0.255  10.045
   76SLPC  H12A 8309   0.091   0.244   9.952
   76SLPC  H12B 8310  -0.040   0.178  10.042
   76SLPC   C11 8311   0.137   0.207  10.156
   76SLPC  H11A 8312   0.227   0.168  10.102
   76SLPC  H11B 8313   0.089   0.117  10.202
   76SLPC     P 8314   0.271   0.230  10.372
   76SLPC   O13 8315   0.183   0.159  10.467
   76SLPC   O14 8316   0.374   0.152  10.299
   76SLPC   O12 8317   0.177   0.301  10.259
   76SLPC   O11 8318   0.341   0.351  10.443
   76SLPC    C1 8319   0.322   0.489  10.416
   76SLPC    HA 8320   0.422   0.539  10.419
   76SLPC    HB 8321   0.281   0.508  10.315
   76SLPC    C2 8322   0.231   0.556  10.523
   76SLPC    HS 8323   0.237   0.665  10.510
   76SLPC   O21 8324   0.267   0.523  10.657
   76SLPC   C21 8325   0.389   0.525  10.700
   76SLPC   O22 8326   0.483   0.589  10.655
   76SLPC   C22 8327   0.390   0.440  10.828
   76SLPC   H2R 8328   0.490   0.449  10.874
   76SLPC   H2S 8329   0.315   0.484  10.897
   76SLPC    C3 8330   0.082   0.512  10.511
   76SLPC    HX 8331   0.078   0.401  10.511
   76SLPC    HY 8332   0.044   0.544  10.412
   76SLPC   O31 8333   0.001   0.570  10.615
   76SLPC   C31 8334  -0.000   0.499  10.730
   76SLPC   O32 8335   0.046   0.388  10.743
   76SLPC   C32 8336  -0.079   0.573  10.837
   76SLPC   H2X 8337  -0.181   0.590  10.798
   76SLPC   H2Y 8338  -0.030   0.672  10.850
   76SLPC   C23 8339   0.355   0.291  10.800
   76SLPC   H3R 8340   0.448   0.236  10.776
   76SLPC   H3S 8341   0.292   0.284  10.708
   76SLPC   C24 8342   0.276   0.214  10.908
   76SLPC   H4R 8343   0.280   0.106  10.879
   76SLPC   H4S 8344   0.169   0.244  10.903
   76SLPC   C25 8345   0.320   0.225  11.055
   76SLPC   H5R 8346   0.271   0.313  11.102
   76SLPC   H5S 8347   0.429   0.243  11.063
   76SLPC   C26 8348   0.285   0.099  11.137
   76SLPC   H6R 8349   0.324   0.113  11.240
   76SLPC   H6S 8350   0.335   0.010  11.093
   76SLPC   C27 8351   0.133   0.077  11.141
   76SLPC   H7R 8352   0.098   0.045  11.040
   76SLPC   H7S 8353   0.085   0.175  11.162
   76SLPC   C28 8354   0.083  -0.027  11.245
   76SLPC   H8R 8355   0.115  -0.127  11.210
   76SLPC   H8S 8356  -0.028  -0.026  11.241
   76SLPC   C29 8357   0.128  -0.008  11.388
   76SLPC   H9R 8358   0.188  -0.091  11.428
   76SLPC  C210 8359   0.103   0.096  11.469
   76SLPC  H10R 8360   0.147   0.094  11.570
   76SLPC  C211 8361   0.023   0.221  11.437
   76SLPC  H11R 8362  -0.021   0.215  11.336
   76SLPC  H11S 8363   0.093   0.308  11.437
   76SLPC  C212 8364  -0.089   0.245  11.535
   76SLPC  H12R 8365  -0.115   0.161  11.601
   76SLPC  C213 8366  -0.158   0.360  11.547
   76SLPC  H13R 8367  -0.233   0.368  11.627
   76SLPC  C214 8368  -0.138   0.486  11.466
   76SLPC  H14R 8369  -0.228   0.506  11.404
   76SLPC  H14S 8370  -0.052   0.478  11.396
   76SLPC  C215 8371  -0.116   0.607  11.558
   76SLPC  H15R 8372  -0.208   0.621  11.619
   76SLPC  H15S 8373  -0.105   0.699  11.496
   76SLPC  C216 8374   0.009   0.595  11.649
   76SLPC  H16R 8375   0.098   0.631  11.593
   76SLPC  H16S 8376   0.028   0.488  11.674
   76SLPC  C217 8377  -0.002   0.669  11.783
   76SLPC  H17R 8378  -0.005   0.778  11.763
   76SLPC  H17S 8379   0.092   0.650  11.840
   76SLPC  C218 8380  -0.121   0.627  11.871
   76SLPC  H18R 8381  -0.115   0.674  11.971
   76SLPC  H18S 8382  -0.122   0.516  11.883
   76SLPC  H18T 8383  -0.217   0.657  11.825
   76SLPC   C33 8384  -0.087   0.493  10.968
   76SLPC   H3X 8385  -0.114   0.386  10.949
   76SLPC   H3Y 8386  -0.168   0.537  11.031
   76SLPC   C34 8387   0.042   0.493  11.050
   76SLPC   H4X 8388   0.120   0.434  10.997
   76SLPC   H4Y 8389   0.022   0.441  11.147
   76SLPC   C35 8390   0.094   0.634  11.075
   76SLPC   H5X 8391   0.006   0.700  11.089
   76SLPC   H5Y 8392   0.151   0.668  10.986
   76SLPC   C36 8393   0.179   0.647  11.201
   76SLPC   H6X 8394   0.137   0.579  11.279
   76SLPC   H6Y 8395   0.169   0.751  11.240
   76SLPC   C37 8396   0.328   0.618  11.177
   76SLPC   H7X 8397   0.367   0.689  11.101
   76SLPC   H7Y 8398   0.340   0.516  11.136
   76SLPC   C38 8399   0.409   0.631  11.306
   76SLPC   H8X 8400   0.390   0.730  11.352
   76SLPC   H8Y 8401   0.518   0.625  11.282
   76SLPC   C39 8402   0.374   0.520  11.407
   76SLPC   H9X 8403   0.392   0.421  11.358
   76SLPC   H9Y 8404   0.266   0.525  11.433
   76SLPC  C310 8405   0.454   0.528  11.537
   76SLPC  H10X 8406   0.430   0.623  11.589
   76SLPC  H10Y 8407   0.563   0.527  11.513
   76SLPC  C311 8408   0.422   0.409  11.629
   76SLPC  H11X 8409   0.446   0.315  11.575
   76SLPC  H11Y 8410   0.314   0.408  11.653
   76SLPC  C312 8411   0.505   0.416  11.758
   76SLPC  H12X 8412   0.465   0.495  11.825
   76SLPC  H12Y 8413   0.608   0.447  11.729
   76SLPC  C313 8414   0.517   0.283  11.834
   76SLPC  H13X 8415   0.578   0.303  11.924
   76SLPC  H13Y 8416   0.574   0.210  11.772
   76SLPC  C314 8417   0.385   0.217  11.878
   76SLPC  H14X 8418   0.408   0.137  11.952
   76SLPC  H14Y 8419   0.339   0.168  11.789
   76SLPC  C315 8420   0.285   0.314  11.940
   76SLPC  H15X 8421   0.257   0.391  11.864
   76SLPC  H15Y 8422   0.333   0.367  12.025
   76SLPC  C316 8423   0.155   0.249  11.988
   76SLPC  H16X 8424   0.086   0.332  12.018
   76SLPC  H16Y 8425   0.174   0.187  12.078
   76SLPC  C317 8426   0.085   0.165  11.880
   76SLPC  H17X 8427   0.130   0.064  11.876
   76SLPC  H17Y 8428   0.102   0.214  11.781
   76SLPC  C318 8429  -0.066   0.154  11.901
   76SLPC  H18X 8430  -0.110   0.256  11.903
   76SLPC  H18Y 8431  -0.091   0.105  11.997
   76SLPC  H18Z 8432  -0.114   0.097  11.819
   77SAPC     N 8433   3.458   1.413  13.900
   77SAPC   C12 8434   3.548   1.304  13.955
   77SAPC  H12A 8435   3.558   1.226  13.881
   77SAPC  H12B 8436   3.501   1.259  14.043
   77SAPC   C13 8437   3.514   1.461  13.769
   77SAPC  H13A 8438   3.613   1.501  13.783
   77SAPC  H13B 8439   3.512   1.380  13.695
   77SAPC  H13C 8440   3.450   1.537  13.725
   77SAPC   C14 8441   3.319   1.360  13.875
   77SAPC  H14A 8442   3.276   1.312  13.962
   77SAPC  H14B 8443   3.251   1.440  13.847
   77SAPC  H14C 8444   3.319   1.287  13.794
   77SAPC   C15 8445   3.454   1.525  13.999
   77SAPC  H15A 8446   3.415   1.618  13.960
   77SAPC  H15B 8447   3.398   1.496  14.088
   77SAPC  H15C 8448   3.556   1.540  14.036
   77SAPC   C11 8449   3.689   1.347  14.001
   77SAPC  H11A 8450   3.733   1.418  13.927
   77SAPC  H11B 8451   3.755   1.258  14.008
   77SAPC     P 8452   3.805   1.465  14.201
   77SAPC   O13 8453   3.765   1.548  14.318
   77SAPC   O14 8454   3.902   1.357  14.228
   77SAPC   O12 8455   3.676   1.408  14.130
   77SAPC   O11 8456   3.865   1.557  14.087
   77SAPC    C1 8457   3.988   1.625  14.117
   77SAPC    HA 8458   3.963   1.708  14.187
   77SAPC    HB 8459   4.062   1.558  14.168
   77SAPC    C2 8460   4.061   1.686  13.993
   77SAPC    HS 8461   4.118   1.774  14.028
   77SAPC   O21 8462   3.975   1.723  13.885
   77SAPC   C21 8463   3.862   1.789  13.903
   77SAPC   O22 8464   3.822   1.838  14.008
   77SAPC   C22 8465   3.781   1.791  13.773
   77SAPC   H2R 8466   3.677   1.763  13.798
   77SAPC   H2S 8467   3.781   1.896  13.737
   77SAPC    C3 8468   4.170   1.592  13.936
   77SAPC    HX 8469   4.233   1.556  14.020
   77SAPC    HY 8470   4.239   1.648  13.869
   77SAPC   O31 8471   4.112   1.477  13.873
   77SAPC   C31 8472   4.102   1.481  13.742
   77SAPC   O32 8473   4.152   1.563  13.667
   77SAPC   C32 8474   4.011   1.367  13.703
   77SAPC   H2X 8475   3.930   1.365  13.778
   77SAPC   H2Y 8476   4.070   1.273  13.712
   77SAPC   C23 8477   3.839   1.696  13.666
   77SAPC   H3R 8478   3.833   1.593  13.705
   77SAPC   H3S 8479   3.947   1.719  13.648
   77SAPC   C24 8480   3.766   1.703  13.531
   77SAPC   H4R 8481   3.657   1.695  13.549
   77SAPC   H4S 8482   3.795   1.615  13.470
   77SAPC   C25 8483   3.801   1.831  13.460
   77SAPC   H5R 8484   3.745   1.918  13.499
   77SAPC   C26 8485   3.895   1.853  13.365
   77SAPC   H6R 8486   3.903   1.956  13.328
   77SAPC   C27 8487   3.995   1.762  13.297
   77SAPC   H7R 8488   4.087   1.762  13.360
   77SAPC   H7S 8489   4.026   1.815  13.204
   77SAPC   C28 8490   3.967   1.619  13.260
   77SAPC   H8R 8491   3.967   1.551  13.345
   77SAPC   C29 8492   3.950   1.566  13.137
   77SAPC   H9R 8493   3.935   1.457  13.130
   77SAPC  C210 8494   3.956   1.641  13.005
   77SAPC  H10R 8495   4.062   1.643  12.969
   77SAPC  H10S 8496   3.926   1.747  13.021
   77SAPC  C211 8497   3.866   1.584  12.898
   77SAPC  H11R 8498   3.790   1.514  12.936
   77SAPC  C212 8499   3.868   1.610  12.765
   77SAPC  H12R 8500   3.793   1.559  12.704
   77SAPC  C213 8501   3.960   1.700  12.685
   77SAPC  H13R 8502   4.017   1.639  12.613
   77SAPC  H13S 8503   4.035   1.749  12.752
   77SAPC  C214 8504   3.884   1.805  12.609
   77SAPC  H14R 8505   3.804   1.852  12.668
   77SAPC  C215 8506   3.903   1.848  12.482
   77SAPC  H15R 8507   3.835   1.926  12.443
   77SAPC  C216 8508   4.004   1.802  12.379
   77SAPC  H16R 8509   3.948   1.776  12.287
   77SAPC  H16S 8510   4.056   1.710  12.412
   77SAPC  C217 8511   4.111   1.906  12.338
   77SAPC  H17R 8512   4.206   1.878  12.389
   77SAPC  H17S 8513   4.082   2.007  12.372
   77SAPC  C218 8514   4.139   1.917  12.186
   77SAPC  H18R 8515   4.068   1.991  12.143
   77SAPC  H18S 8516   4.119   1.821  12.135
   77SAPC  C219 8517   4.283   1.963  12.158
   77SAPC  H19R 8518   4.353   1.897  12.214
   77SAPC  H19S 8519   4.292   2.066  12.201
   77SAPC  C220 8520   4.328   1.969  12.012
   77SAPC  H20R 8521   4.431   2.013  12.006
   77SAPC  H20S 8522   4.260   2.033  11.951
   77SAPC  H20T 8523   4.332   1.868  11.967
   77SAPC   C33 8524   3.951   1.383  13.562
   77SAPC   H3X 8525   4.014   1.329  13.488
   77SAPC   H3Y 8526   3.952   1.490  13.532
   77SAPC   C34 8527   3.806   1.334  13.563
   77SAPC   H4X 8528   3.743   1.409  13.615
   77SAPC   H4Y 8529   3.802   1.242  13.626
   77SAPC   C35 8530   3.746   1.301  13.427
   77SAPC   H5X 8531   3.692   1.204  13.440
   77SAPC   H5Y 8532   3.824   1.286  13.350
   77SAPC   C36 8533   3.646   1.404  13.375
   77SAPC   H6X 8534   3.700   1.476  13.309
   77SAPC   H6Y 8535   3.602   1.463  13.458
   77SAPC   C37 8536   3.530   1.341  13.296
   77SAPC   H7X 8537   3.494   1.415  13.222
   77SAPC   H7Y 8538   3.444   1.322  13.364
   77SAPC   C38 8539   3.565   1.212  13.222
   77SAPC   H8X 8540   3.557   1.126  13.292
   77SAPC   H8Y 8541   3.670   1.217  13.183
   77SAPC   C39 8542   3.472   1.190  13.103
   77SAPC   H9X 8543   3.370   1.221  13.137
   77SAPC   H9Y 8544   3.467   1.082  13.076
   77SAPC  C310 8545   3.515   1.272  12.982
   77SAPC  H10X 8546   3.564   1.366  13.016
   77SAPC  H10Y 8547   3.425   1.303  12.924
   77SAPC  C311 8548   3.611   1.196  12.889
   77SAPC  H11X 8549   3.563   1.101  12.857
   77SAPC  H11Y 8550   3.704   1.173  12.945
   77SAPC  C312 8551   3.646   1.281  12.767
   77SAPC  H12X 8552   3.685   1.378  12.804
   77SAPC  H12Y 8553   3.552   1.300  12.710
   77SAPC  C313 8554   3.751   1.220  12.672
   77SAPC  H13X 8555   3.706   1.131  12.623
   77SAPC  H13Y 8556   3.839   1.185  12.731
   77SAPC  C314 8557   3.800   1.318  12.564
   77SAPC  H14X 8558   3.849   1.261  12.482
   77SAPC  H14Y 8559   3.876   1.386  12.607
   77SAPC  C315 8560   3.685   1.402  12.504
   77SAPC  H15X 8561   3.638   1.462  12.585
   77SAPC  H15Y 8562   3.609   1.331  12.467
   77SAPC  C316 8563   3.724   1.503  12.395
   77SAPC  H16X 8564   3.809   1.565  12.431
   77SAPC  H16Y 8565   3.637   1.571  12.378
   77SAPC  C317 8566   3.759   1.441  12.259
   77SAPC  H17X 8567   3.676   1.376  12.227
   77SAPC  H17Y 8568   3.847   1.373  12.270
   77SAPC  C318 8569   3.786   1.545  12.149
   77SAPC  H18X 8570   3.847   1.502  12.067
   77SAPC  H18Y 8571   3.843   1.630  12.190
   77SAPC  H18Z 8572   3.691   1.582  12.104
   78SAPC     N 8573   4.124   2.058  14.226
   78SAPC   C12 8574   4.176   2.169  14.136
   78SAPC  H12A 8575   4.223   2.126  14.047
   78SAPC  H12B 8576   4.251   2.230  14.183
   78SAPC   C13 8577   4.032   2.114  14.330
   78SAPC  H13A 8578   3.955   2.176  14.282
   78SAPC  H13B 8579   3.982   2.034  14.383
   78SAPC  H13C 8580   4.081   2.179  14.400
   78SAPC   C14 8581   4.033   1.976  14.141
   78SAPC  H14A 8582   3.986   1.893  14.190
   78SAPC  H14B 8583   3.951   2.041  14.104
   78SAPC  H14C 8584   4.079   1.949  14.046
   78SAPC   C15 8585   4.234   1.977  14.286
   78SAPC  H15A 8586   4.195   1.898  14.350
   78SAPC  H15B 8587   4.293   1.929  14.208
   78SAPC  H15C 8588   4.301   2.039  14.345
   78SAPC   C11 8589   4.071   2.263  14.074
   78SAPC  H11A 8590   4.125   2.346  14.022
   78SAPC  H11B 8591   4.014   2.312  14.153
   78SAPC     P 8592   4.035   2.171  13.840
   78SAPC   O13 8593   4.178   2.137  13.855
   78SAPC   O14 8594   3.947   2.076  13.771
   78SAPC   O12 8595   3.981   2.191  13.988
   78SAPC   O11 8596   4.014   2.318  13.786
   78SAPC    C1 8597   3.902   2.389  13.842
   78SAPC    HA 8598   3.820   2.322  13.879
   78SAPC    HB 8599   3.934   2.453  13.926
   78SAPC    C2 8600   3.836   2.473  13.734
   78SAPC    HS 8601   3.750   2.525  13.782
   78SAPC   O21 8602   3.798   2.381  13.633
   78SAPC   C21 8603   3.675   2.342  13.627
   78SAPC   O22 8604   3.585   2.377  13.701
   78SAPC   C22 8605   3.667   2.248  13.506
   78SAPC   H2R 8606   3.718   2.304  13.424
   78SAPC   H2S 8607   3.728   2.159  13.531
   78SAPC    C3 8608   3.934   2.580  13.677
   78SAPC    HX 8609   4.005   2.601  13.760
   78SAPC    HY 8610   3.882   2.675  13.656
   78SAPC   O31 8611   4.011   2.542  13.563
   78SAPC   C31 8612   3.956   2.493  13.451
   78SAPC   O32 8613   3.841   2.507  13.414
   78SAPC   C32 8614   4.070   2.430  13.374
   78SAPC   H2X 8615   4.144   2.407  13.451
   78SAPC   H2Y 8616   4.103   2.510  13.306
   78SAPC   C23 8617   3.528   2.206  13.453
   78SAPC   H3R 8618   3.452   2.285  13.472
   78SAPC   H3S 8619   3.495   2.115  13.508
   78SAPC   C24 8620   3.533   2.179  13.300
   78SAPC   H4R 8621   3.519   2.277  13.250
   78SAPC   H4S 8622   3.445   2.116  13.273
   78SAPC   C25 8623   3.660   2.113  13.252
   78SAPC   H5R 8624   3.689   2.024  13.311
   78SAPC   C26 8625   3.740   2.152  13.151
   78SAPC   H6R 8626   3.828   2.091  13.126
   78SAPC   C27 8627   3.720   2.271  13.060
   78SAPC   H7R 8628   3.617   2.311  13.070
   78SAPC   H7S 8629   3.728   2.236  12.956
   78SAPC   C28 8630   3.817   2.385  13.085
   78SAPC   H8R 8631   3.837   2.406  13.191
   78SAPC   C29 8632   3.865   2.472  12.994
   78SAPC   H9R 8633   3.930   2.554  13.029
   78SAPC  C210 8634   3.828   2.473  12.849
   78SAPC  H10R 8635   3.727   2.519  12.850
   78SAPC  H10S 8636   3.813   2.369  12.813
   78SAPC  C211 8637   3.911   2.545  12.744
   78SAPC  H11R 8638   4.011   2.583  12.772
   78SAPC  C212 8639   3.862   2.565  12.619
   78SAPC  H12R 8640   3.925   2.607  12.539
   78SAPC  C213 8641   3.724   2.516  12.583
   78SAPC  H13R 8642   3.661   2.552  12.666
   78SAPC  H13S 8643   3.727   2.405  12.588
   78SAPC  C214 8644   3.643   2.558  12.465
   78SAPC  H14R 8645   3.601   2.658  12.472
   78SAPC  C215 8646   3.607   2.488  12.356
   78SAPC  H15R 8647   3.544   2.539  12.282
   78SAPC  C216 8648   3.640   2.346  12.320
   78SAPC  H16R 8649   3.548   2.290  12.289
   78SAPC  H16S 8650   3.687   2.289  12.403
   78SAPC  C217 8651   3.739   2.352  12.203
   78SAPC  H17R 8652   3.768   2.249  12.174
   78SAPC  H17S 8653   3.831   2.402  12.241
   78SAPC  C218 8654   3.698   2.434  12.079
   78SAPC  H18R 8655   3.778   2.422  12.002
   78SAPC  H18S 8656   3.695   2.542  12.105
   78SAPC  C219 8657   3.564   2.394  12.016
   78SAPC  H19R 8658   3.544   2.461  11.929
   78SAPC  H19S 8659   3.482   2.410  12.089
   78SAPC  C220 8660   3.564   2.250  11.970
   78SAPC  H20R 8661   3.652   2.232  11.905
   78SAPC  H20S 8662   3.472   2.225  11.912
   78SAPC  H20T 8663   3.572   2.181  12.056
   78SAPC   C33 8664   4.067   2.294  13.301
   78SAPC   H3X 8665   4.152   2.308  13.231
   78SAPC   H3Y 8666   3.979   2.272  13.241
   78SAPC   C34 8667   4.102   2.172  13.390
   78SAPC   H4X 8668   4.006   2.123  13.418
   78SAPC   H4Y 8669   4.148   2.204  13.486
   78SAPC   C35 8670   4.196   2.069  13.323
   78SAPC   H5X 8671   4.178   1.969  13.369
   78SAPC   H5Y 8672   4.302   2.097  13.343
   78SAPC   C36 8673   4.174   2.064  13.172
   78SAPC   H6X 8674   4.215   2.157  13.126
   78SAPC   H6Y 8675   4.064   2.060  13.154
   78SAPC   C37 8676   4.237   1.951  13.090
   78SAPC   H7X 8677   4.233   1.855  13.145
   78SAPC   H7Y 8678   4.345   1.974  13.070
   78SAPC   C38 8679   4.161   1.938  12.957
   78SAPC   H8X 8680   4.058   1.902  12.981
   78SAPC   H8Y 8681   4.208   1.861  12.892
   78SAPC   C39 8682   4.144   2.071  12.880
   78SAPC   H9X 8683   4.241   2.095  12.831
   78SAPC   H9Y 8684   4.120   2.156  12.947
   78SAPC  C310 8685   4.030   2.068  12.778
   78SAPC  H10X 8686   3.934   2.049  12.832
   78SAPC  H10Y 8687   4.048   1.984  12.707
   78SAPC  C311 8688   4.018   2.199  12.698
   78SAPC  H11X 8689   4.018   2.285  12.768
   78SAPC  H11Y 8690   3.921   2.200  12.643
   78SAPC  C312 8691   4.132   2.212  12.597
   78SAPC  H12X 8692   4.126   2.124  12.531
   78SAPC  H12Y 8693   4.229   2.208  12.652
   78SAPC  C313 8694   4.133   2.338  12.509
   78SAPC  H13X 8695   4.232   2.343  12.460
   78SAPC  H13Y 8696   4.123   2.430  12.572
   78SAPC  C314 8697   4.026   2.335  12.399
   78SAPC  H14X 8698   3.947   2.410  12.419
   78SAPC  H14Y 8699   3.975   2.235  12.401
   78SAPC  C315 8700   4.084   2.353  12.258
   78SAPC  H15X 8701   4.016   2.302  12.186
   78SAPC  H15Y 8702   4.182   2.303  12.251
   78SAPC  C316 8703   4.095   2.500  12.214
   78SAPC  H16X 8704   4.161   2.556  12.284
   78SAPC  H16Y 8705   3.995   2.548  12.215
   78SAPC  C317 8706   4.152   2.505  12.073
   78SAPC  H17X 8707   4.085   2.448  12.004
   78SAPC  H17Y 8708   4.249   2.451  12.076
   78SAPC  C318 8709   4.173   2.646  12.016
   78SAPC  H18X 8710   4.217   2.639  11.913
   78SAPC  H18Y 8711   4.243   2.705  12.079
   78SAPC  H18Z 8712   4.076   2.699  12.008
   79SAPC     N 8713   4.744   2.145  14.139
   79SAPC   C12 8714   4.890   2.124  14.180
   79SAPC  H12A 8715   4.895   2.065  14.270
   79SAPC  H12B 8716   4.933   2.219  14.208
   79SAPC   C13 8717   4.671   2.233  14.234
   79SAPC  H13A 8718   4.711   2.334  14.238
   79SAPC  H13B 8719   4.566   2.244  14.207
   79SAPC  H13C 8720   4.675   2.192  14.335
   79SAPC   C14 8721   4.743   2.210  14.008
   79SAPC  H14A 8722   4.789   2.146  13.932
   79SAPC  H14B 8723   4.646   2.241  13.974
   79SAPC  H14C 8724   4.809   2.297  14.007
   79SAPC   C15 8725   4.676   2.013  14.127
   79SAPC  H15A 8726   4.734   1.946  14.063
   79SAPC  H15B 8727   4.669   1.964  14.224
   79SAPC  H15C 8728   4.577   2.025  14.085
   79SAPC   C11 8729   4.986   2.060  14.076
   79SAPC  H11A 8730   4.949   1.960  14.044
   79SAPC  H11B 8731   5.083   2.041  14.129
   79SAPC     P 8732   5.138   2.198  13.913
   79SAPC   O13 8733   5.116   2.339  13.875
   79SAPC   O14 8734   5.238   2.172  14.018
   79SAPC   O12 8735   4.998   2.146  13.962
   79SAPC   O11 8736   5.162   2.102  13.788
   79SAPC    C1 8737   5.137   2.137  13.650
   79SAPC    HA 8738   5.134   2.247  13.642
   79SAPC    HB 8739   5.220   2.108  13.581
   79SAPC    C2 8740   5.005   2.077  13.588
   79SAPC    HS 8741   4.953   2.019  13.667
   79SAPC   O21 8742   5.033   1.991  13.474
   79SAPC   C21 8743   4.928   1.922  13.426
   79SAPC   O22 8744   4.820   1.909  13.481
   79SAPC   C22 8745   4.960   1.877  13.283
   79SAPC   H2R 8746   4.969   1.971  13.225
   79SAPC   H2S 8747   5.058   1.825  13.281
   79SAPC    C3 8748   4.916   2.196  13.542
   79SAPC    HX 8749   4.877   2.233  13.637
   79SAPC    HY 8750   4.833   2.167  13.474
   79SAPC   O31 8751   4.999   2.296  13.481
   79SAPC   C31 8752   4.957   2.410  13.434
   79SAPC   O32 8753   4.850   2.465  13.448
   79SAPC   C32 8754   5.071   2.462  13.351
   79SAPC   H2X 8755   5.162   2.453  13.414
   79SAPC   H2Y 8756   5.057   2.570  13.330
   79SAPC   C23 8757   4.848   1.793  13.214
   79SAPC   H3R 8758   4.749   1.834  13.244
   79SAPC   H3S 8759   4.855   1.688  13.249
   79SAPC   C24 8760   4.859   1.799  13.059
   79SAPC   H4R 8761   4.957   1.756  13.032
   79SAPC   H4S 8762   4.861   1.906  13.029
   79SAPC   C25 8763   4.750   1.725  12.985
   79SAPC   H5R 8764   4.722   1.628  13.029
   79SAPC   C26 8765   4.689   1.761  12.870
   79SAPC   H6R 8766   4.614   1.692  12.827
   79SAPC   C27 8767   4.711   1.884  12.785
   79SAPC   H7R 8768   4.727   1.854  12.679
   79SAPC   H7S 8769   4.803   1.939  12.814
   79SAPC   C28 8770   4.592   1.977  12.798
   79SAPC   H8R 8771   4.588   2.030  12.894
   79SAPC   C29 8772   4.494   2.001  12.708
   79SAPC   H9R 8773   4.418   2.074  12.737
   79SAPC  C210 8774   4.475   1.942  12.570
   79SAPC  H10R 8775   4.403   1.857  12.575
   79SAPC  H10S 8776   4.570   1.900  12.530
   79SAPC  C211 8777   4.418   2.048  12.479
   79SAPC  H11R 8778   4.310   2.063  12.491
   79SAPC  C212 8779   4.481   2.119  12.384
   79SAPC  H12R 8780   4.423   2.198  12.332
   79SAPC  C213 8781   4.625   2.111  12.343
   79SAPC  H13R 8782   4.632   2.120  12.233
   79SAPC  H13S 8783   4.666   2.010  12.367
   79SAPC  C214 8784   4.707   2.216  12.413
   79SAPC  H14R 8785   4.739   2.189  12.515
   79SAPC  C215 8786   4.749   2.332  12.361
   79SAPC  H15R 8787   4.814   2.396  12.424
   79SAPC  C216 8788   4.727   2.387  12.222
   79SAPC  H16R 8789   4.729   2.305  12.148
   79SAPC  H16S 8790   4.816   2.449  12.201
   79SAPC  C217 8791   4.606   2.476  12.188
   79SAPC  H17R 8792   4.552   2.510  12.278
   79SAPC  H17S 8793   4.535   2.412  12.131
   79SAPC  C218 8794   4.642   2.603  12.106
   79SAPC  H18R 8795   4.682   2.680  12.176
   79SAPC  H18S 8796   4.549   2.645  12.062
   79SAPC  C219 8797   4.746   2.583  11.995
   79SAPC  H19R 8798   4.714   2.497  11.932
   79SAPC  H19S 8799   4.844   2.557  12.039
   79SAPC  C220 8800   4.765   2.709  11.909
   79SAPC  H20R 8801   4.667   2.755  11.886
   79SAPC  H20S 8802   4.815   2.682  11.814
   79SAPC  H20T 8803   4.827   2.784  11.962
   79SAPC   C33 8804   5.089   2.379  13.221
   79SAPC   H3X 8805   5.197   2.355  13.214
   79SAPC   H3Y 8806   5.060   2.440  13.134
   79SAPC   C34 8807   5.025   2.240  13.208
   79SAPC   H4X 8808   4.914   2.249  13.194
   79SAPC   H4Y 8809   5.047   2.177  13.296
   79SAPC   C35 8810   5.087   2.172  13.087
   79SAPC   H5X 8811   5.090   2.062  13.096
   79SAPC   H5Y 8812   5.192   2.205  13.071
   79SAPC   C36 8813   5.006   2.205  12.964
   79SAPC   H6X 8814   4.993   2.316  12.955
   79SAPC   H6Y 8815   4.905   2.159  12.973
   79SAPC   C37 8816   5.078   2.154  12.841
   79SAPC   H7X 8817   5.091   2.044  12.851
   79SAPC   H7Y 8818   5.179   2.200  12.838
   79SAPC   C38 8819   5.000   2.188  12.716
   79SAPC   H8X 8820   4.962   2.293  12.723
   79SAPC   H8Y 8821   4.911   2.122  12.707
   79SAPC   C39 8822   5.088   2.178  12.593
   79SAPC   H9X 8823   5.161   2.262  12.599
   79SAPC   H9Y 8824   5.026   2.196  12.503
   79SAPC  C310 8825   5.169   2.047  12.583
   79SAPC  H10X 8826   5.249   2.056  12.660
   79SAPC  H10Y 8827   5.221   2.042  12.485
   79SAPC  C311 8828   5.093   1.916  12.609
   79SAPC  H11X 8829   5.005   1.929  12.675
   79SAPC  H11Y 8830   5.161   1.844  12.660
   79SAPC  C312 8831   5.049   1.846  12.481
   79SAPC  H12X 8832   5.007   1.745  12.502
   79SAPC  H12Y 8833   5.138   1.833  12.416
   79SAPC  C313 8834   4.945   1.924  12.403
   79SAPC  H13X 8835   4.951   2.033  12.420
   79SAPC  H13Y 8836   4.844   1.892  12.437
   79SAPC  C314 8837   4.962   1.898  12.253
   79SAPC  H14X 8838   4.868   1.937  12.207
   79SAPC  H14Y 8839   4.966   1.789  12.237
   79SAPC  C315 8840   5.084   1.961  12.184
   79SAPC  H15X 8841   5.076   1.942  12.075
   79SAPC  H15Y 8842   5.178   1.913  12.218
   79SAPC  C316 8843   5.096   2.112  12.202
   79SAPC  H16X 8844   5.180   2.153  12.141
   79SAPC  H16Y 8845   5.119   2.131  12.309
   79SAPC  C317 8846   4.969   2.184  12.162
   79SAPC  H17X 8847   4.980   2.292  12.184
   79SAPC  H17Y 8848   4.884   2.147  12.223
   79SAPC  C318 8849   4.933   2.167  12.015
   79SAPC  H18X 8850   5.021   2.191  11.952
   79SAPC  H18Y 8851   4.849   2.236  11.989
   79SAPC  H18Z 8852   4.900   2.064  11.993
   80SAPC     N 8853   0.768   4.597  13.853
   80SAPC   C12 8854   0.620   4.626  13.849
   80SAPC  H12A 8855   0.574   4.566  13.773
   80SAPC  H12B 8856   0.605   4.730  13.819
   80SAPC   C13 8857   0.786   4.473  13.934
   80SAPC  H13A 8858   0.736   4.387  13.891
   80SAPC  H13B 8859   0.889   4.453  13.955
   80SAPC  H13C 8860   0.732   4.490  14.028
   80SAPC   C14 8861   0.828   4.582  13.717
   80SAPC  H14A 8862   0.787   4.497  13.664
   80SAPC  H14B 8863   0.812   4.671  13.658
   80SAPC  H14C 8864   0.935   4.570  13.726
   80SAPC   C15 8865   0.836   4.712  13.924
   80SAPC  H15A 8866   0.843   4.802  13.865
   80SAPC  H15B 8867   0.777   4.738  14.013
   80SAPC  H15C 8868   0.935   4.685  13.958
   80SAPC   C11 8869   0.542   4.606  13.983
   80SAPC  H11A 8870   0.521   4.498  13.997
   80SAPC  H11B 8871   0.441   4.654  13.976
   80SAPC     P 8872   0.578   4.770  14.194
   80SAPC   O13 8873   0.513   4.707  14.311
   80SAPC   O14 8874   0.704   4.845  14.221
   80SAPC   O12 8875   0.617   4.653  14.095
   80SAPC   O11 8876   0.472   4.853  14.105
   80SAPC    C1 8877   0.516   4.930  13.992
   80SAPC    HA 8878   0.528   5.035  14.026
   80SAPC    HB 8879   0.615   4.896  13.953
   80SAPC    C2 8880   0.416   4.933  13.871
   80SAPC    HS 8881   0.315   4.948  13.914
   80SAPC   O21 8882   0.420   4.809  13.795
   80SAPC   C21 8883   0.320   4.791  13.708
   80SAPC   O22 8884   0.227   4.867  13.690
   80SAPC   C22 8885   0.329   4.651  13.645
   80SAPC   H2R 8886   0.377   4.583  13.718
   80SAPC   H2S 8887   0.225   4.615  13.631
   80SAPC    C3 8888   0.446   5.052  13.776
   80SAPC    HX 8889   0.441   5.148  13.834
   80SAPC    HY 8890   0.365   5.060  13.700
   80SAPC   O31 8891   0.569   5.033  13.704
   80SAPC   C31 8892   0.676   5.089  13.759
   80SAPC   O32 8893   0.674   5.164  13.855
   80SAPC   C32 8894   0.803   5.042  13.692
   80SAPC   H2X 8895   0.883   5.047  13.768
   80SAPC   H2Y 8896   0.826   5.116  13.613
   80SAPC   C23 8897   0.405   4.645  13.509
   80SAPC   H3R 8898   0.457   4.547  13.502
   80SAPC   H3S 8899   0.483   4.724  13.504
   80SAPC   C24 8900   0.313   4.653  13.386
   80SAPC   H4R 8901   0.245   4.564  13.386
   80SAPC   H4S 8902   0.377   4.643  13.295
   80SAPC   C25 8903   0.231   4.779  13.381
   80SAPC   H5R 8904   0.151   4.786  13.456
   80SAPC   C26 8905   0.246   4.882  13.296
   80SAPC   H6R 8906   0.177   4.968  13.307
   80SAPC   C27 8907   0.350   4.896  13.186
   80SAPC   H7R 8908   0.305   4.856  13.092
   80SAPC   H7S 8909   0.439   4.834  13.208
   80SAPC   C28 8910   0.391   5.039  13.162
   80SAPC   H8R 8911   0.348   5.114  13.229
   80SAPC   C29 8912   0.485   5.084  13.077
   80SAPC   H9R 8913   0.503   5.192  13.071
   80SAPC  C210 8914   0.572   5.001  12.986
   80SAPC  H10R 8915   0.623   4.925  13.048
   80SAPC  H10S 8916   0.654   5.067  12.950
   80SAPC  C211 8917   0.506   4.931  12.870
   80SAPC  H11R 8918   0.405   4.890  12.889
   80SAPC  C212 8919   0.563   4.914  12.749
   80SAPC  H12R 8920   0.509   4.857  12.672
   80SAPC  C213 8921   0.700   4.963  12.709
   80SAPC  H13R 8922   0.742   4.896  12.630
   80SAPC  H13S 8923   0.771   4.955  12.794
   80SAPC  C214 8924   0.695   5.106  12.662
   80SAPC  H14R 8925   0.614   5.168  12.705
   80SAPC  C215 8926   0.776   5.163  12.571
   80SAPC  H15R 8927   0.758   5.268  12.544
   80SAPC  C216 8928   0.890   5.098  12.496
   80SAPC  H16R 8929   0.924   5.005  12.548
   80SAPC  H16S 8930   0.976   5.168  12.493
   80SAPC  C217 8931   0.852   5.061  12.351
   80SAPC  H17R 8932   0.941   5.015  12.302
   80SAPC  H17S 8933   0.828   5.153  12.294
   80SAPC  C218 8934   0.734   4.963  12.343
   80SAPC  H18R 8935   0.648   5.002  12.401
   80SAPC  H18S 8936   0.765   4.866  12.391
   80SAPC  C219 8937   0.685   4.935  12.201
   80SAPC  H19R 8938   0.769   4.894  12.141
   80SAPC  H19S 8939   0.655   5.030  12.152
   80SAPC  C220 8940   0.567   4.838  12.201
   80SAPC  H20R 8941   0.587   4.754  12.272
   80SAPC  H20S 8942   0.550   4.795  12.100
   80SAPC  H20T 8943   0.474   4.889  12.235
   80SAPC   C33 8944   0.795   4.902  13.630
   80SAPC   H3X 8945   0.721   4.838  13.683
   80SAPC   H3Y 8946   0.896   4.855  13.640
   80SAPC   C34 8947   0.761   4.910  13.482
   80SAPC   H4X 8948   0.834   4.979  13.433
   80SAPC   H4Y 8949   0.660   4.954  13.468
   80SAPC   C35 8950   0.770   4.775  13.412
   80SAPC   H5X 8951   0.692   4.706  13.450
   80SAPC   H5Y 8952   0.870   4.730  13.431
   80SAPC   C36 8953   0.752   4.793  13.262
   80SAPC   H6X 8954   0.828   4.866  13.225
   80SAPC   H6Y 8955   0.652   4.837  13.241
   80SAPC   C37 8956   0.768   4.662  13.187
   80SAPC   H7X 8957   0.683   4.594  13.210
   80SAPC   H7Y 8958   0.862   4.613  13.219
   80SAPC   C38 8959   0.774   4.686  13.036
   80SAPC   H8X 8960   0.852   4.763  13.016
   80SAPC   H8Y 8961   0.677   4.727  13.000
   80SAPC   C39 8962   0.810   4.559  12.960
   80SAPC   H9X 8963   0.862   4.488  13.028
   80SAPC   H9Y 8964   0.880   4.587  12.879
   80SAPC  C310 8965   0.690   4.488  12.897
   80SAPC  H10X 8966   0.617   4.457  12.975
   80SAPC  H10Y 8967   0.729   4.395  12.849
   80SAPC  C311 8968   0.621   4.574  12.791
   80SAPC  H11X 8969   0.695   4.648  12.752
   80SAPC  H11Y 8970   0.538   4.631  12.837
   80SAPC  C312 8971   0.573   4.489  12.674
   80SAPC  H12X 8972   0.490   4.422  12.706
   80SAPC  H12Y 8973   0.657   4.424  12.646
   80SAPC  C313 8974   0.532   4.572  12.554
   80SAPC  H13X 8975   0.538   4.512  12.460
   80SAPC  H13Y 8976   0.601   4.659  12.542
   80SAPC  C314 8977   0.389   4.621  12.572
   80SAPC  H14X 8978   0.377   4.663  12.674
   80SAPC  H14Y 8979   0.320   4.534  12.563
   80SAPC  C315 8980   0.350   4.728  12.471
   80SAPC  H15X 8981   0.352   4.683  12.369
   80SAPC  H15Y 8982   0.421   4.813  12.472
   80SAPC  C316 8983   0.210   4.777  12.505
   80SAPC  H16X 8984   0.213   4.856  12.583
   80SAPC  H16Y 8985   0.154   4.690  12.547
   80SAPC  C317 8986   0.132   4.824  12.384
   80SAPC  H17X 8987   0.158   4.762  12.295
   80SAPC  H17Y 8988   0.160   4.929  12.360
   80SAPC  C318 8989  -0.016   4.810  12.412
   80SAPC  H18X 8990  -0.049   4.876  12.494
   80SAPC  H18Y 8991  -0.035   4.706  12.447
   80SAPC  H18Z 8992  -0.077   4.829  12.322
   81SAPC     N 8993   2.252   3.395   9.789
   81SAPC   C12 8994   2.185   3.311   9.897
   81SAPC  H12A 8995   2.248   3.228   9.925
   81SAPC  H12B 8996   2.095   3.266   9.854
   81SAPC   C13 8997   2.156   3.501   9.744
   81SAPC  H13A 8998   2.061   3.456   9.716
   81SAPC  H13B 8999   2.131   3.566   9.829
   81SAPC  H13C 9000   2.193   3.559   9.661
   81SAPC   C14 9001   2.373   3.462   9.845
   81SAPC  H14A 9002   2.345   3.535   9.922
   81SAPC  H14B 9003   2.438   3.392   9.895
   81SAPC  H14C 9004   2.428   3.515   9.768
   81SAPC   C15 9005   2.282   3.311   9.671
   81SAPC  H15A 9006   2.190   3.266   9.631
   81SAPC  H15B 9007   2.323   3.371   9.591
   81SAPC  H15C 9008   2.349   3.230   9.694
   81SAPC   C11 9009   2.137   3.382  10.024
   81SAPC  H11A 9010   2.222   3.435  10.072
   81SAPC  H11B 9011   2.101   3.303  10.095
   81SAPC     P 9012   1.953   3.539  10.112
   81SAPC   O13 9013   1.826   3.595  10.061
   81SAPC   O14 9014   1.946   3.444  10.225
   81SAPC   O12 9015   2.033   3.474   9.992
   81SAPC   O11 9016   2.048   3.657  10.156
   81SAPC    C1 9017   2.087   3.758  10.064
   81SAPC    HA 9018   2.140   3.713   9.977
   81SAPC    HB 9019   1.998   3.813  10.026
   81SAPC    C2 9020   2.183   3.861  10.131
   81SAPC    HS 9021   2.247   3.907  10.053
   81SAPC   O21 9022   2.267   3.800  10.232
   81SAPC   C21 9023   2.342   3.699  10.189
   81SAPC   O22 9024   2.368   3.674  10.071
   81SAPC   C22 9025   2.411   3.632  10.308
   81SAPC   H2R 9026   2.519   3.654  10.296
   81SAPC   H2S 9027   2.376   3.679  10.401
   81SAPC    C3 9028   2.101   3.978  10.194
   81SAPC    HX 9029   2.066   4.042  10.110
   81SAPC    HY 9030   2.169   4.042  10.255
   81SAPC   O31 9031   1.985   3.932  10.268
   81SAPC   C31 9032   2.013   3.892  10.392
   81SAPC   O32 9033   2.112   3.924  10.456
   81SAPC   C32 9034   1.904   3.803  10.449
   81SAPC   H2X 9035   1.955   3.713  10.489
   81SAPC   H2Y 9036   1.836   3.771  10.368
   81SAPC   C23 9037   2.389   3.479  10.314
   81SAPC   H3R 9038   2.485   3.429  10.341
   81SAPC   H3S 9039   2.363   3.439  10.214
   81SAPC   C24 9040   2.281   3.437  10.416
   81SAPC   H4R 9041   2.248   3.334  10.390
   81SAPC   H4S 9042   2.192   3.502  10.403
   81SAPC   C25 9043   2.335   3.436  10.557
   81SAPC   H5R 9044   2.397   3.348  10.580
   81SAPC   C26 9045   2.320   3.529  10.653
   81SAPC   H6R 9046   2.369   3.510  10.749
   81SAPC   C27 9047   2.245   3.661  10.647
   81SAPC   H7R 9048   2.170   3.663  10.728
   81SAPC   H7S 9049   2.187   3.669  10.553
   81SAPC   C28 9050   2.338   3.780  10.658
   81SAPC   H8R 9051   2.356   3.829  10.561
   81SAPC   C29 9052   2.392   3.834  10.768
   81SAPC   H9R 9053   2.461   3.919  10.756
   81SAPC  C210 9054   2.373   3.790  10.911
   81SAPC  H10R 9055   2.265   3.769  10.929
   81SAPC  H10S 9056   2.398   3.873  10.980
   81SAPC  C211 9057   2.459   3.671  10.944
   81SAPC  H11R 9058   2.565   3.684  10.921
   81SAPC  C212 9059   2.421   3.556  11.003
   81SAPC  H12R 9060   2.496   3.478  11.016
   81SAPC  C213 9061   2.285   3.516  11.053
   81SAPC  H13R 9062   2.242   3.437  10.988
   81SAPC  H13S 9063   2.215   3.602  11.048
   81SAPC  C214 9064   2.296   3.466  11.195
   81SAPC  H14R 9065   2.290   3.357  11.208
   81SAPC  C215 9066   2.310   3.544  11.304
   81SAPC  H15R 9067   2.317   3.498  11.404
   81SAPC  C216 9068   2.318   3.695  11.303
   81SAPC  H16R 9069   2.226   3.735  11.350
   81SAPC  H16S 9070   2.318   3.735  11.200
   81SAPC  C217 9071   2.440   3.755  11.375
   81SAPC  H17R 9072   2.440   3.865  11.353
   81SAPC  H17S 9073   2.535   3.714  11.332
   81SAPC  C218 9074   2.442   3.738  11.527
   81SAPC  H18R 9075   2.476   3.636  11.552
   81SAPC  H18S 9076   2.340   3.750  11.569
   81SAPC  C219 9077   2.533   3.843  11.592
   81SAPC  H19R 9078   2.491   3.943  11.569
   81SAPC  H19S 9079   2.633   3.836  11.544
   81SAPC  C220 9080   2.549   3.831  11.743
   81SAPC  H20R 9081   2.451   3.826  11.793
   81SAPC  H20S 9082   2.606   3.917  11.784
   81SAPC  H20T 9083   2.606   3.739  11.768
   81SAPC   C33 9084   1.827   3.876  10.562
   81SAPC   H3X 9085   1.753   3.944  10.515
   81SAPC   H3Y 9086   1.895   3.938  10.624
   81SAPC   C34 9087   1.754   3.777  10.654
   81SAPC   H4X 9088   1.704   3.701  10.590
   81SAPC   H4Y 9089   1.675   3.831  10.711
   81SAPC   C35 9090   1.842   3.708  10.759
   81SAPC   H5X 9091   1.931   3.663  10.709
   81SAPC   H5Y 9092   1.782   3.626  10.804
   81SAPC   C36 9093   1.883   3.800  10.875
   81SAPC   H6X 9094   1.792   3.837  10.927
   81SAPC   H6Y 9095   1.937   3.888  10.833
   81SAPC   C37 9096   1.976   3.731  10.976
   81SAPC   H7X 9097   2.012   3.805  11.051
   81SAPC   H7Y 9098   2.065   3.697  10.918
   81SAPC   C38 9099   1.921   3.607  11.048
   81SAPC   H8X 9100   2.010   3.562  11.096
   81SAPC   H8Y 9101   1.883   3.532  10.977
   81SAPC   C39 9102   1.816   3.634  11.157
   81SAPC   H9X 9103   1.715   3.641  11.111
   81SAPC   H9Y 9104   1.838   3.733  11.205
   81SAPC  C310 9105   1.813   3.526  11.268
   81SAPC  H10X 9106   1.774   3.433  11.225
   81SAPC  H10Y 9107   1.741   3.559  11.344
   81SAPC  C311 9108   1.951   3.499  11.333
   81SAPC  H11X 9109   2.005   3.595  11.346
   81SAPC  H11Y 9110   2.012   3.439  11.262
   81SAPC  C312 9111   1.956   3.425  11.468
   81SAPC  H12X 9112   2.059   3.436  11.507
   81SAPC  H12Y 9113   1.941   3.316  11.450
   81SAPC  C313 9114   1.857   3.467  11.579
   81SAPC  H13X 9115   1.897   3.429  11.676
   81SAPC  H13Y 9116   1.763   3.412  11.559
   81SAPC  C314 9117   1.822   3.617  11.597
   81SAPC  H14X 9118   1.761   3.624  11.690
   81SAPC  H14Y 9119   1.755   3.652  11.517
   81SAPC  C315 9120   1.940   3.714  11.607
   81SAPC  H15X 9121   2.035   3.656  11.604
   81SAPC  H15Y 9122   1.935   3.767  11.705
   81SAPC  C316 9123   1.941   3.821  11.497
   81SAPC  H16X 9124   1.856   3.891  11.509
   81SAPC  H16Y 9125   1.929   3.771  11.399
   81SAPC  C317 9126   2.073   3.898  11.496
   81SAPC  H17X 9127   2.093   3.939  11.395
   81SAPC  H17Y 9128   2.155   3.826  11.520
   81SAPC  C318 9129   2.076   4.011  11.598
   81SAPC  H18X 9130   2.008   4.092  11.563
   81SAPC  H18Y 9131   2.178   4.053  11.610
   81SAPC  H18Z 9132   2.041   3.975  11.697
   82SAPC     N 9133   1.044   2.740  10.137
   82SAPC   C12 9134   0.935   2.743  10.029
   82SAPC  H12A 9135   0.968   2.809   9.949
   82SAPC  H12B 9136   0.845   2.787  10.069
   82SAPC   C13 9137   1.022   2.624  10.229
   82SAPC  H13A 9138   1.023   2.532  10.170
   82SAPC  H13B 9139   1.100   2.617  10.304
   82SAPC  H13C 9140   0.926   2.628  10.278
   82SAPC   C14 9141   1.173   2.719  10.064
   82SAPC  H14A 9142   1.259   2.714  10.128
   82SAPC  H14B 9143   1.165   2.624  10.008
   82SAPC  H14C 9144   1.189   2.794   9.988
   82SAPC   C15 9145   1.047   2.868  10.213
   82SAPC  H15A 9146   1.115   2.859  10.298
   82SAPC  H15B 9147   1.087   2.946  10.150
   82SAPC  H15C 9148   0.949   2.896  10.250
   82SAPC   C11 9149   0.898   2.605   9.967
   82SAPC  H11A 9150   0.833   2.624   9.878
   82SAPC  H11B 9151   0.837   2.549  10.042
   82SAPC     P 9152   1.003   2.380   9.887
   82SAPC   O13 9153   0.918   2.369   9.765
   82SAPC   O14 9154   1.137   2.318   9.880
   82SAPC   O12 9155   1.015   2.532   9.929
   82SAPC   O11 9156   0.929   2.315  10.012
   82SAPC    C1 9157   0.865   2.187  10.006
   82SAPC    HA 9158   0.787   2.189   9.927
   82SAPC    HB 9159   0.937   2.106   9.982
   82SAPC    C2 9160   0.788   2.145  10.138
   82SAPC    HS 9161   0.691   2.098  10.106
   82SAPC   O21 9162   0.764   2.258  10.223
   82SAPC   C21 9163   0.674   2.337  10.173
   82SAPC   O22 9164   0.613   2.321  10.068
   82SAPC   C22 9165   0.651   2.458  10.265
   82SAPC   H2R 9166   0.704   2.543  10.219
   82SAPC   H2S 9167   0.542   2.479  10.265
   82SAPC    C3 9168   0.856   2.040  10.229
   82SAPC    HX 9169   0.877   1.947  10.172
   82SAPC    HY 9170   0.779   2.013  10.305
   82SAPC   O31 9171   0.969   2.098  10.298
   82SAPC   C31 9172   1.084   2.077  10.240
   82SAPC   O32 9173   1.107   1.988  10.159
   82SAPC   C32 9174   1.190   2.182  10.277
   82SAPC   H2X 9175   1.213   2.236  10.182
   82SAPC   H2Y 9176   1.281   2.126  10.306
   82SAPC   C23 9177   0.701   2.437  10.410
   82SAPC   H3R 9178   0.693   2.534  10.466
   82SAPC   H3S 9179   0.808   2.409  10.409
   82SAPC   C24 9180   0.619   2.331  10.484
   82SAPC   H4R 9181   0.610   2.239  10.422
   82SAPC   H4S 9182   0.515   2.368  10.497
   82SAPC   C25 9183   0.683   2.296  10.615
   82SAPC   H5R 9184   0.787   2.262  10.607
   82SAPC   C26 9185   0.628   2.310  10.737
   82SAPC   H6R 9186   0.689   2.290  10.826
   82SAPC   C27 9187   0.491   2.364  10.766
   82SAPC   H7R 9188   0.465   2.350  10.873
   82SAPC   H7S 9189   0.414   2.307  10.709
   82SAPC   C28 9190   0.492   2.512  10.733
   82SAPC   H8R 9191   0.440   2.537  10.640
   82SAPC   C29 9192   0.565   2.608  10.794
   82SAPC   H9R 9193   0.554   2.711  10.757
   82SAPC  C210 9194   0.661   2.591  10.909
   82SAPC  H10R 9195   0.724   2.682  10.913
   82SAPC  H10S 9196   0.732   2.507  10.891
   82SAPC  C211 9197   0.590   2.575  11.041
   82SAPC  H11R 9198   0.532   2.664  11.070
   82SAPC  C212 9199   0.591   2.471  11.127
   82SAPC  H12R 9200   0.537   2.486  11.221
   82SAPC  C213 9201   0.662   2.337  11.121
   82SAPC  H13R 9202   0.707   2.327  11.221
   82SAPC  H13S 9203   0.747   2.346  11.050
   82SAPC  C214 9204   0.591   2.207  11.087
   82SAPC  H14R 9205   0.549   2.206  10.986
   82SAPC  C215 9206   0.572   2.092  11.158
   82SAPC  H15R 9207   0.519   2.011  11.106
   82SAPC  C216 9208   0.615   2.053  11.299
   82SAPC  H16R 9209   0.527   2.070  11.365
   82SAPC  H16S 9210   0.697   2.118  11.336
   82SAPC  C217 9211   0.659   1.906  11.321
   82SAPC  H17R 9212   0.749   1.880  11.261
   82SAPC  H17S 9213   0.577   1.838  11.285
   82SAPC  C218 9214   0.689   1.874  11.469
   82SAPC  H18R 9215   0.661   1.768  11.490
   82SAPC  H18S 9216   0.622   1.939  11.531
   82SAPC  C219 9217   0.836   1.894  11.511
   82SAPC  H19R 9218   0.868   1.994  11.476
   82SAPC  H19S 9219   0.900   1.820  11.457
   82SAPC  C220 9220   0.863   1.885  11.662
   82SAPC  H20R 9221   0.899   1.784  11.693
   82SAPC  H20S 9222   0.770   1.906  11.718
   82SAPC  H20T 9223   0.939   1.959  11.694
   82SAPC   C33 9224   1.156   2.288  10.385
   82SAPC   H3X 9225   1.050   2.282  10.419
   82SAPC   H3Y 9226   1.168   2.389  10.338
   82SAPC   C34 9227   1.251   2.283  10.506
   82SAPC   H4X 9228   1.355   2.269  10.470
   82SAPC   H4Y 9229   1.225   2.195  10.568
   82SAPC   C35 9230   1.249   2.410  10.593
   82SAPC   H5X 9231   1.292   2.495  10.535
   82SAPC   H5Y 9232   1.315   2.393  10.681
   82SAPC   C36 9233   1.109   2.450  10.643
   82SAPC   H6X 9234   1.059   2.363  10.691
   82SAPC   H6Y 9235   1.048   2.478  10.554
   82SAPC   C37 9236   1.110   2.570  10.740
   82SAPC   H7X 9237   1.024   2.636  10.712
   82SAPC   H7Y 9238   1.203   2.629  10.727
   82SAPC   C38 9239   1.091   2.533  10.888
   82SAPC   H8X 9240   1.004   2.464  10.896
   82SAPC   H8Y 9241   1.065   2.625  10.946
   82SAPC   C39 9242   1.214   2.468  10.954
   82SAPC   H9X 9243   1.298   2.541  10.959
   82SAPC   H9Y 9244   1.247   2.384  10.889
   82SAPC  C310 9245   1.183   2.410  11.093
   82SAPC  H10X 9246   1.224   2.306  11.097
   82SAPC  H10Y 9247   1.073   2.401  11.106
   82SAPC  C311 9248   1.242   2.485  11.214
   82SAPC  H11X 9249   1.353   2.488  11.207
   82SAPC  H11Y 9250   1.217   2.425  11.304
   82SAPC  C312 9251   1.186   2.626  11.234
   82SAPC  H12X 9252   1.076   2.625  11.216
   82SAPC  H12Y 9253   1.232   2.693  11.157
   82SAPC  C313 9254   1.212   2.684  11.374
   82SAPC  H13X 9255   1.191   2.794  11.369
   82SAPC  H13Y 9256   1.319   2.671  11.402
   82SAPC  C314 9257   1.121   2.626  11.484
   82SAPC  H14X 9258   1.151   2.522  11.507
   82SAPC  H14Y 9259   1.017   2.624  11.445
   82SAPC  C315 9260   1.120   2.710  11.614
   82SAPC  H15X 9261   1.104   2.816  11.585
   82SAPC  H15Y 9262   1.218   2.703  11.666
   82SAPC  C316 9263   1.006   2.673  11.711
   82SAPC  H16X 9264   0.914   2.655  11.652
   82SAPC  H16Y 9265   0.985   2.759  11.779
   82SAPC  C317 9266   1.034   2.550  11.800
   82SAPC  H17X 9267   1.075   2.468  11.738
   82SAPC  H17Y 9268   0.936   2.516  11.840
   82SAPC  C318 9269   1.127   2.575  11.919
   82SAPC  H18X 9270   1.130   2.485  11.984
   82SAPC  H18Y 9271   1.091   2.661  11.980
   82SAPC  H18Z 9272   1.231   2.596  11.884
   83SAPC     N 9273   0.473   3.056  10.078
   83SAPC   C12 9274   0.514   3.101   9.937
   83SAPC  H12A 9275   0.475   3.031   9.864
   83SAPC  H12B 9276   0.624   3.094   9.933
   83SAPC   C13 9277   0.506   2.911  10.094
   83SAPC  H13A 9278   0.603   2.888  10.054
   83SAPC  H13B 9279   0.502   2.882  10.199
   83SAPC  H13C 9280   0.431   2.852  10.042
   83SAPC   C14 9281   0.549   3.139  10.176
   83SAPC  H14A 9282   0.655   3.138  10.152
   83SAPC  H14B 9283   0.519   3.244  10.166
   83SAPC  H14C 9284   0.531   3.106  10.277
   83SAPC   C15 9285   0.326   3.072  10.103
   83SAPC  H15A 9286   0.270   2.997  10.048
   83SAPC  H15B 9287   0.301   3.060  10.208
   83SAPC  H15C 9288   0.292   3.170  10.070
   83SAPC   C11 9289   0.480   3.245   9.889
   83SAPC  H11A 9290   0.376   3.270   9.913
   83SAPC  H11B 9291   0.490   3.250   9.777
   83SAPC     P 9292   0.713   3.357   9.926
   83SAPC   O13 9293   0.776   3.236   9.984
   83SAPC   O14 9294   0.733   3.386   9.782
   83SAPC   O12 9295   0.557   3.345   9.951
   83SAPC   O11 9296   0.751   3.480  10.021
   83SAPC    C1 9297   0.642   3.540  10.093
   83SAPC    HA 9298   0.581   3.604  10.024
   83SAPC    HB 9299   0.573   3.464  10.139
   83SAPC    C2 9300   0.689   3.624  10.213
   83SAPC    HS 9301   0.761   3.699  10.176
   83SAPC   O21 9302   0.753   3.530  10.302
   83SAPC   C21 9303   0.755   3.543  10.431
   83SAPC   O22 9304   0.732   3.642  10.497
   83SAPC   C22 9305   0.777   3.406  10.494
   83SAPC   H2R 9306   0.795   3.425  10.602
   83SAPC   H2S 9307   0.682   3.350  10.483
   83SAPC    C3 9308   0.564   3.697  10.273
   83SAPC    HX 9309   0.517   3.755  10.190
   83SAPC    HY 9310   0.597   3.773  10.347
   83SAPC   O31 9311   0.468   3.600  10.322
   83SAPC   C31 9312   0.443   3.608  10.452
   83SAPC   O32 9313   0.472   3.700  10.525
   83SAPC   C32 9314   0.369   3.481  10.497
   83SAPC   H2X 9315   0.393   3.397  10.429
   83SAPC   H2Y 9316   0.260   3.503  10.489
   83SAPC   C23 9317   0.893   3.323  10.434
   83SAPC   H3R 9318   0.989   3.378  10.445
   83SAPC   H3S 9319   0.872   3.309  10.326
   83SAPC   C24 9320   0.902   3.185  10.501
   83SAPC   H4R 9321   0.962   3.117  10.436
   83SAPC   H4S 9322   0.799   3.142  10.504
   83SAPC   C25 9323   0.964   3.188  10.639
   83SAPC   H5R 9324   1.073   3.177  10.641
   83SAPC   C26 9325   0.900   3.201  10.758
   83SAPC   H6R 9326   0.961   3.200  10.850
   83SAPC   C27 9327   0.752   3.217  10.782
   83SAPC   H7R 9328   0.698   3.244  10.689
   83SAPC   H7S 9329   0.736   3.304  10.850
   83SAPC   C28 9330   0.686   3.094  10.841
   83SAPC   H8R 9331   0.636   3.029  10.767
   83SAPC   C29 9332   0.685   3.059  10.971
   83SAPC   H9R 9333   0.633   2.966  11.001
   83SAPC  C210 9334   0.748   3.135  11.084
   83SAPC  H10R 9335   0.685   3.127  11.175
   83SAPC  H10S 9336   0.750   3.244  11.061
   83SAPC  C211 9337   0.889   3.089  11.115
   83SAPC  H11R 9338   0.933   3.016  11.045
   83SAPC  C212 9339   0.963   3.134  11.219
   83SAPC  H12R 9340   1.066   3.096  11.231
   83SAPC  C213 9341   0.918   3.237  11.320
   83SAPC  H13R 9342   0.993   3.242  11.402
   83SAPC  H13S 9343   0.824   3.202  11.368
   83SAPC  C214 9344   0.900   3.375  11.261
   83SAPC  H14R 9345   0.965   3.398  11.175
   83SAPC  C215 9346   0.811   3.468  11.299
   83SAPC  H15R 9347   0.809   3.564  11.246
   83SAPC  C216 9348   0.709   3.455  11.409
   83SAPC  H16R 9349   0.690   3.350  11.440
   83SAPC  H16S 9350   0.612   3.493  11.370
   83SAPC  C217 9351   0.743   3.538  11.534
   83SAPC  H17R 9352   0.648   3.552  11.587
   83SAPC  H17S 9353   0.775   3.639  11.500
   83SAPC  C218 9354   0.847   3.474  11.627
   83SAPC  H18R 9355   0.949   3.503  11.593
   83SAPC  H18S 9356   0.840   3.363  11.613
   83SAPC  C219 9357   0.833   3.496  11.781
   83SAPC  H19R 9358   0.935   3.505  11.824
   83SAPC  H19S 9359   0.792   3.401  11.823
   83SAPC  C220 9360   0.744   3.609  11.837
   83SAPC  H20R 9361   0.789   3.708  11.829
   83SAPC  H20S 9362   0.723   3.589  11.944
   83SAPC  H20T 9363   0.647   3.615  11.785
   83SAPC   C33 9364   0.404   3.444  10.644
   83SAPC   H3X 9365   0.412   3.536  10.706
   83SAPC   H3Y 9366   0.503   3.394  10.647
   83SAPC   C34 9367   0.298   3.355  10.710
   83SAPC   H4X 9368   0.271   3.271  10.642
   83SAPC   H4Y 9369   0.207   3.416  10.728
   83SAPC   C35 9370   0.343   3.295  10.845
   83SAPC   H5X 9371   0.444   3.250  10.833
   83SAPC   H5Y 9372   0.272   3.214  10.871
   83SAPC   C36 9373   0.346   3.395  10.962
   83SAPC   H6X 9374   0.244   3.439  10.973
   83SAPC   H6Y 9375   0.417   3.478  10.940
   83SAPC   C37 9376   0.386   3.326  11.093
   83SAPC   H7X 9377   0.490   3.286  11.082
   83SAPC   H7Y 9378   0.319   3.238  11.108
   83SAPC   C38 9379   0.381   3.412  11.221
   83SAPC   H8X 9380   0.464   3.485  11.220
   83SAPC   H8Y 9381   0.399   3.344  11.307
   83SAPC   C39 9382   0.249   3.487  11.244
   83SAPC   H9X 9383   0.166   3.426  11.199
   83SAPC   H9Y 9384   0.249   3.585  11.191
   83SAPC  C310 9385   0.214   3.506  11.392
   83SAPC  H10X 9386   0.213   3.406  11.442
   83SAPC  H10Y 9387   0.110   3.547  11.399
   83SAPC  C311 9388   0.306   3.599  11.473
   83SAPC  H11X 9389   0.304   3.699  11.426
   83SAPC  H11Y 9390   0.411   3.562  11.472
   83SAPC  C312 9391   0.257   3.611  11.618
   83SAPC  H12X 9392   0.147   3.629  11.613
   83SAPC  H12Y 9393   0.304   3.699  11.667
   83SAPC  C313 9394   0.283   3.486  11.704
   83SAPC  H13X 9395   0.285   3.396  11.638
   83SAPC  H13Y 9396   0.202   3.473  11.778
   83SAPC  C314 9397   0.417   3.495  11.777
   83SAPC  H14X 9398   0.409   3.572  11.857
   83SAPC  H14Y 9399   0.489   3.531  11.702
   83SAPC  C315 9400   0.470   3.364  11.837
   83SAPC  H15X 9401   0.388   3.306  11.884
   83SAPC  H15Y 9402   0.543   3.391  11.917
   83SAPC  C316 9403   0.546   3.279  11.734
   83SAPC  H16X 9404   0.618   3.345  11.681
   83SAPC  H16Y 9405   0.476   3.240  11.658
   83SAPC  C317 9406   0.628   3.164  11.795
   83SAPC  H17X 9407   0.561   3.099  11.856
   83SAPC  H17Y 9408   0.704   3.207  11.865
   83SAPC  C318 9409   0.700   3.078  11.691
   83SAPC  H18X 9410   0.765   3.141  11.626
   83SAPC  H18Y 9411   0.626   3.027  11.626
   83SAPC  H18Z 9412   0.764   3.001  11.739
   84SAPC     N 9413   3.803   0.085   9.820
   84SAPC   C12 9414   3.890   0.192   9.880
   84SAPC  H12A 9415   3.915   0.265   9.803
   84SAPC  H12B 9416   3.986   0.149   9.907
   84SAPC   C13 9417   3.658   0.118   9.833
   84SAPC  H13A 9418   3.635   0.137   9.939
   84SAPC  H13B 9419   3.629   0.206   9.779
   84SAPC  H13C 9420   3.596   0.036   9.802
   84SAPC   C14 9421   3.836   0.063   9.676
   84SAPC  H14A 9422   3.941   0.039   9.664
   84SAPC  H14B 9423   3.779  -0.023   9.642
   84SAPC  H14C 9424   3.809   0.148   9.614
   84SAPC   C15 9425   3.826  -0.043   9.895
   84SAPC  H15A 9426   3.748  -0.112   9.869
   84SAPC  H15B 9427   3.921  -0.088   9.870
   84SAPC  H15C 9428   3.821  -0.023  10.002
   84SAPC   C11 9429   3.838   0.275   9.999
   84SAPC  H11A 9430   3.751   0.337   9.967
   84SAPC  H11B 9431   3.920   0.346  10.027
   84SAPC     P 9432   3.673   0.202  10.193
   84SAPC   O13 9433   3.564   0.221  10.094
   84SAPC   O14 9434   3.669   0.084  10.282
   84SAPC   O12 9435   3.808   0.196  10.112
   84SAPC   O11 9436   3.673   0.335  10.278
   84SAPC    C1 9437   3.759   0.447  10.266
   84SAPC    HA 9438   3.796   0.464  10.162
   84SAPC    HB 9439   3.703   0.538  10.293
   84SAPC    C2 9440   3.878   0.439  10.364
   84SAPC    HS 9441   3.929   0.538  10.361
   84SAPC   O21 9442   3.965   0.337  10.317
   84SAPC   C21 9443   4.083   0.333  10.374
   84SAPC   O22 9444   4.135   0.423  10.437
   84SAPC   C22 9445   4.144   0.198  10.346
   84SAPC   H2R 9446   4.073   0.132  10.293
   84SAPC   H2S 9447   4.232   0.216  10.279
   84SAPC    C3 9448   3.834   0.413  10.512
   84SAPC    HX 9449   3.744   0.478  10.527
   84SAPC    HY 9450   3.914   0.449  10.580
   84SAPC   O31 9451   3.807   0.273  10.540
   84SAPC   C31 9452   3.710   0.251  10.628
   84SAPC   O32 9453   3.640   0.338  10.677
   84SAPC   C32 9454   3.701   0.102  10.665
   84SAPC   H2X 9455   3.799   0.054  10.645
   84SAPC   H2Y 9456   3.627   0.058  10.595
   84SAPC   C23 9457   4.193   0.137  10.478
   84SAPC   H3R 9458   4.269   0.209  10.516
   84SAPC   H3S 9459   4.245   0.041  10.455
   84SAPC   C24 9460   4.083   0.119  10.584
   84SAPC   H4R 9461   3.995   0.075  10.532
   84SAPC   H4S 9462   4.050   0.220  10.619
   84SAPC   C25 9463   4.117   0.031  10.702
   84SAPC   H5R 9464   4.115  -0.077  10.680
   84SAPC   C26 9465   4.152   0.070  10.827
   84SAPC   H6R 9466   4.174  -0.008  10.902
   84SAPC   C27 9467   4.166   0.211  10.879
   84SAPC   H7R 9468   4.180   0.283  10.795
   84SAPC   H7S 9469   4.259   0.215  10.939
   84SAPC   C28 9470   4.060   0.266  10.971
   84SAPC   H8R 9471   3.989   0.336  10.925
   84SAPC   C29 9472   4.051   0.240  11.103
   84SAPC   H9R 9473   3.972   0.288  11.162
   84SAPC  C210 9474   4.145   0.152  11.181
   84SAPC  H10R 9475   4.188   0.071  11.118
   84SAPC  H10S 9476   4.086   0.098  11.259
   84SAPC  C211 9477   4.258   0.232  11.241
   84SAPC  H11R 9478   4.340   0.257  11.172
   84SAPC  C212 9479   4.266   0.274  11.368
   84SAPC  H12R 9480   4.352   0.334  11.400
   84SAPC  C213 9481   4.164   0.248  11.476
   84SAPC  H13R 9482   4.219   0.249  11.572
   84SAPC  H13S 9483   4.122   0.145  11.467
   84SAPC  C214 9484   4.050   0.347  11.481
   84SAPC  H14R 9485   4.059   0.434  11.414
   84SAPC  C215 9486   3.942   0.338  11.561
   84SAPC  H15R 9487   3.867   0.419  11.558
   84SAPC  C216 9488   3.912   0.229  11.661
   84SAPC  H16R 9489   3.884   0.134  11.610
   84SAPC  H16S 9490   3.825   0.259  11.722
   84SAPC  C217 9491   4.028   0.202  11.759
   84SAPC  H17R 9492   4.070   0.299  11.792
   84SAPC  H17S 9493   4.109   0.144  11.708
   84SAPC  C218 9494   3.988   0.121  11.882
   84SAPC  H18R 9495   3.957   0.019  11.849
   84SAPC  H18S 9496   3.902   0.168  11.933
   84SAPC  C219 9497   4.107   0.109  11.979
   84SAPC  H19R 9498   4.138   0.211  12.012
   84SAPC  H19S 9499   4.193   0.064  11.925
   84SAPC  C220 9500   4.076   0.023  12.100
   84SAPC  H20R 9501   4.000   0.073  12.163
   84SAPC  H20S 9502   4.167   0.003  12.161
   84SAPC  H20T 9503   4.035  -0.075  12.065
   84SAPC   C33 9504   3.658   0.079  10.812
   84SAPC   H3X 9505   3.615  -0.023  10.822
   84SAPC   H3Y 9506   3.579   0.152  10.842
   84SAPC   C34 9507   3.775   0.086  10.911
   84SAPC   H4X 9508   3.833   0.178  10.890
   84SAPC   H4Y 9509   3.842  -0.001  10.893
   84SAPC   C35 9510   3.733   0.087  11.059
   84SAPC   H5X 9511   3.821   0.056  11.120
   84SAPC   H5Y 9512   3.653   0.011  11.076
   84SAPC   C36 9513   3.687   0.225  11.108
   84SAPC   H6X 9514   3.592   0.255  11.057
   84SAPC   H6Y 9515   3.765   0.299  11.077
   84SAPC   C37 9516   3.671   0.234  11.261
   84SAPC   H7X 9517   3.692   0.339  11.293
   84SAPC   H7Y 9518   3.746   0.169  11.310
   84SAPC   C38 9519   3.530   0.197  11.309
   84SAPC   H8X 9520   3.502   0.098  11.265
   84SAPC   H8Y 9521   3.457   0.272  11.272
   84SAPC   C39 9522   3.518   0.188  11.462
   84SAPC   H9X 9523   3.598   0.121  11.500
   84SAPC   H9Y 9524   3.419   0.143  11.488
   84SAPC  C310 9525   3.530   0.323  11.533
   84SAPC  H10X 9526   3.449   0.391  11.498
   84SAPC  H10Y 9527   3.627   0.370  11.508
   84SAPC  C311 9528   3.521   0.307  11.686
   84SAPC  H11X 9529   3.598   0.235  11.719
   84SAPC  H11Y 9530   3.421   0.267  11.713
   84SAPC  C312 9531   3.544   0.438  11.761
   84SAPC  H12X 9532   3.463   0.508  11.734
   84SAPC  H12Y 9533   3.641   0.482  11.728
   84SAPC  C313 9534   3.543   0.419  11.914
   84SAPC  H13X 9535   3.475   0.335  11.940
   84SAPC  H13Y 9536   3.503   0.511  11.962
   84SAPC  C314 9537   3.682   0.394  11.972
   84SAPC  H14X 9538   3.732   0.312  11.915
   84SAPC  H14Y 9539   3.672   0.360  12.078
   84SAPC  C315 9540   3.767   0.522  11.968
   84SAPC  H15X 9541   3.744   0.578  12.060
   84SAPC  H15Y 9542   3.734   0.586  11.884
   84SAPC  C316 9543   3.915   0.495  11.942
   84SAPC  H16X 9544   3.927   0.486  11.832
   84SAPC  H16Y 9545   3.944   0.397  11.986
   84SAPC  C317 9546   4.016   0.600  11.994
   84SAPC  H17X 9547   4.093   0.611  11.914
   84SAPC  H17Y 9548   4.069   0.557  12.082
   84SAPC  C318 9549   3.967   0.740  12.029
   84SAPC  H18X 9550   3.995   0.812  11.949
   84SAPC  H18Y 9551   4.016   0.774  12.122
   84SAPC  H18Z 9552   3.858   0.748  12.048
   85POPC     N 9553   0.918   3.389  13.958
   85POPC   C12 9554   0.841   3.413  13.829
   85POPC  H12A 9555   0.905   3.395  13.743
   85POPC  H12B 9556   0.814   3.517  13.828
   85POPC   C13 9557   0.926   3.243  13.986
   85POPC  H13A 9558   0.980   3.224  14.078
   85POPC  H13B 9559   0.825   3.205  13.997
   85POPC  H13C 9560   0.974   3.189  13.905
   85POPC   C14 9561   1.052   3.451  13.960
   85POPC  H14A 9562   1.042   3.560  13.959
   85POPC  H14B 9563   1.106   3.429  14.051
   85POPC  H14C 9564   1.110   3.424  13.873
   85POPC   C15 9565   0.839   3.454  14.067
   85POPC  H15A 9566   0.737   3.415  14.067
   85POPC  H15B 9567   0.829   3.560  14.052
   85POPC  H15C 9568   0.882   3.436  14.164
   85POPC   C11 9569   0.707   3.338  13.802
   85POPC  H11A 9570   0.735   3.236  13.771
   85POPC  H11B 9571   0.657   3.387  13.714
   85POPC     P 9572   0.502   3.231  13.933
   85POPC   O13 9573   0.372   3.280  13.879
   85POPC   O14 9574   0.506   3.192  14.077
   85POPC   O12 9575   0.617   3.340  13.913
   85POPC   O11 9576   0.559   3.115  13.841
   85POPC    C1 9577   0.654   3.021  13.894
   85POPC    HA 9578   0.601   2.951  13.962
   85POPC    HB 9579   0.732   3.071  13.955
   85POPC    C2 9580   0.729   2.935  13.786
   85POPC    HS 9581   0.817   2.887  13.836
   85POPC   O21 9582   0.770   3.008  13.669
   85POPC   C21 9583   0.889   3.059  13.654
   85POPC   O22 9584   0.972   3.078  13.742
   85POPC   C22 9585   0.906   3.095  13.505
   85POPC   H2R 9586   0.906   3.206  13.500
   85POPC   H2S 9587   0.819   3.058  13.448
   85POPC    C3 9588   0.635   2.822  13.736
   85POPC    HX 9589   0.597   2.768  13.825
   85POPC    HY 9590   0.691   2.748  13.674
   85POPC   O31 9591   0.524   2.882  13.666
   85POPC   C31 9592   0.537   2.903  13.537
   85POPC   O32 9593   0.603   2.838  13.458
   85POPC   C32 9594   0.457   3.028  13.501
   85POPC   H2X 9595   0.500   3.113  13.560
   85POPC   H2Y 9596   0.351   3.014  13.532
   85POPC   C23 9597   1.036   3.038  13.443
   85POPC   H3R 9598   1.032   2.928  13.437
   85POPC   H3S 9599   1.120   3.062  13.511
   85POPC   C24 9600   1.070   3.095  13.303
   85POPC   H4R 9601   1.181   3.098  13.297
   85POPC   H4S 9602   1.031   3.199  13.294
   85POPC   C25 9603   1.024   3.010  13.184
   85POPC   H5R 9604   0.914   3.015  13.174
   85POPC   H5S 9605   1.052   2.906  13.210
   85POPC   C26 9606   1.093   3.040  13.049
   85POPC   H6R 9607   1.092   2.945  12.990
   85POPC   H6S 9608   1.199   3.068  13.064
   85POPC   C27 9609   1.021   3.146  12.964
   85POPC   H7R 9610   1.061   3.245  12.992
   85POPC   H7S 9611   0.913   3.144  12.988
   85POPC   C28 9612   1.034   3.131  12.810
   85POPC   H8R 9613   0.976   3.214  12.765
   85POPC   H8S 9614   0.982   3.037  12.781
   85POPC   C29 9615   1.174   3.132  12.754
   85POPC   H91 9616   1.253   3.164  12.823
   85POPC  C210 9617   1.206   3.097  12.628
   85POPC  H101 9618   1.311   3.104  12.595
   85POPC  C211 9619   1.108   3.052  12.522
   85POPC  H11R 9620   1.024   2.996  12.568
   85POPC  H11S 9621   1.158   2.981  12.453
   85POPC  C212 9622   1.046   3.166  12.440
   85POPC  H12R 9623   0.996   3.240  12.505
   85POPC  H12S 9624   0.967   3.120  12.376
   85POPC  C213 9625   1.145   3.238  12.347
   85POPC  H13R 9626   1.205   3.162  12.293
   85POPC  H13S 9627   1.216   3.301  12.406
   85POPC  C214 9628   1.070   3.326  12.245
   85POPC  H14R 9629   1.064   3.429  12.284
   85POPC  H14S 9630   0.965   3.289  12.237
   85POPC  C215 9631   1.126   3.321  12.102
   85POPC  H15R 9632   1.232   3.354  12.101
   85POPC  H15S 9633   1.067   3.393  12.039
   85POPC  C216 9634   1.113   3.180  12.042
   85POPC  H16R 9635   1.021   3.132  12.082
   85POPC  H16S 9636   1.199   3.120  12.077
   85POPC  C217 9637   1.106   3.174  11.889
   85POPC  H17R 9638   1.005   3.209  11.855
   85POPC  H17S 9639   1.115   3.067  11.860
   85POPC  C218 9640   1.213   3.254  11.815
   85POPC  H18R 9641   1.311   3.247  11.867
   85POPC  H18S 9642   1.186   3.362  11.809
   85POPC  H18T 9643   1.225   3.215  11.712
   85POPC   C33 9644   0.471   3.055  13.351
   85POPC   H3X 9645   0.422   2.973  13.294
   85POPC   H3Y 9646   0.579   3.053  13.324
   85POPC   C34 9647   0.410   3.190  13.312
   85POPC   H4X 9648   0.389   3.249  13.405
   85POPC   H4Y 9649   0.312   3.172  13.264
   85POPC   C35 9650   0.500   3.276  13.223
   85POPC   H5X 9651   0.582   3.317  13.286
   85POPC   H5Y 9652   0.440   3.362  13.187
   85POPC   C36 9653   0.564   3.204  13.103
   85POPC   H6X 9654   0.485   3.166  13.035
   85POPC   H6Y 9655   0.624   3.116  13.136
   85POPC   C37 9656   0.659   3.295  13.024
   85POPC   H7X 9657   0.702   3.238  12.939
   85POPC   H7Y 9658   0.744   3.324  13.090
   85POPC   C38 9659   0.591   3.422  12.972
   85POPC   H8X 9660   0.666   3.488  12.925
   85POPC   H8Y 9661   0.552   3.482  13.058
   85POPC   C39 9662   0.476   3.393  12.873
   85POPC   H9X 9663   0.430   3.489  12.844
   85POPC   H9Y 9664   0.397   3.332  12.924
   85POPC  C310 9665   0.521   3.321  12.745
   85POPC  H10X 9666   0.434   3.308  12.677
   85POPC  H10Y 9667   0.558   3.221  12.773
   85POPC  C311 9668   0.631   3.403  12.675
   85POPC  H11X 9669   0.716   3.410  12.747
   85POPC  H11Y 9670   0.589   3.503  12.658
   85POPC  C312 9671   0.697   3.351  12.547
   85POPC  H12X 9672   0.731   3.247  12.561
   85POPC  H12Y 9673   0.790   3.409  12.531
   85POPC  C313 9674   0.617   3.369  12.418
   85POPC  H13X 9675   0.594   3.475  12.399
   85POPC  H13Y 9676   0.519   3.318  12.430
   85POPC  C314 9677   0.699   3.310  12.302
   85POPC  H14X 9678   0.760   3.227  12.345
   85POPC  H14Y 9679   0.770   3.385  12.263
   85POPC  C315 9680   0.617   3.248  12.188
   85POPC  H15X 9681   0.603   3.323  12.108
   85POPC  H15Y 9682   0.515   3.224  12.227
   85POPC  C316 9683   0.678   3.119  12.134
   85POPC  H16X 9684   0.698   3.047  12.216
   85POPC  H16Y 9685   0.775   3.139  12.083
   85POPC  H16Z 9686   0.609   3.070  12.062
   86POPC     N 9687   1.852   0.036  14.054
   86POPC   C12 9688   1.932  -0.026  13.941
   86POPC  H12A 9689   1.862  -0.078  13.876
   86POPC  H12B 9690   2.005  -0.096  13.977
   86POPC   C13 9691   1.729   0.091  13.990
   86POPC  H13A 9692   1.661   0.011  13.964
   86POPC  H13B 9693   1.677   0.160  14.053
   86POPC  H13C 9694   1.757   0.141  13.896
   86POPC   C14 9695   1.808  -0.061  14.158
   86POPC  H14A 9696   1.745  -0.013  14.234
   86POPC  H14B 9697   1.742  -0.135  14.114
   86POPC  H14C 9698   1.890  -0.113  14.207
   86POPC   C15 9699   1.931   0.142  14.121
   86POPC  H15A 9700   2.018   0.100  14.170
   86POPC  H15B 9701   1.871   0.201  14.189
   86POPC  H15C 9702   1.969   0.211  14.045
   86POPC   C11 9703   2.009   0.075  13.850
   86POPC  H11A 9704   2.049   0.017  13.764
   86POPC  H11B 9705   2.097   0.115  13.905
   86POPC     P 9706   1.962   0.330  13.805
   86POPC   O13 9707   2.004   0.362  13.943
   86POPC   O14 9708   1.857   0.416  13.746
   86POPC   O12 9709   1.922   0.177  13.801
   86POPC   O11 9710   2.087   0.335  13.708
   86POPC    C1 9711   2.102   0.243  13.599
   86POPC    HA 9712   2.009   0.187  13.572
   86POPC    HB 9713   2.175   0.167  13.633
   86POPC    C2 9714   2.157   0.309  13.470
   86POPC    HS 9715   2.215   0.397  13.502
   86POPC   O21 9716   2.050   0.342  13.375
   86POPC   C21 9717   2.079   0.410  13.262
   86POPC   O22 9718   2.189   0.448  13.230
   86POPC   C22 9719   1.954   0.423  13.170
   86POPC   H2R 9720   1.892   0.338  13.187
   86POPC   H2S 9721   1.999   0.415  13.068
   86POPC    C3 9722   2.261   0.212  13.410
   86POPC    HX 9723   2.338   0.199  13.489
   86POPC    HY 9724   2.313   0.258  13.323
   86POPC   O31 9725   2.202   0.083  13.385
   86POPC   C31 9726   2.168   0.065  13.258
   86POPC   O32 9727   2.194   0.140  13.167
   86POPC   C32 9728   2.089  -0.065  13.244
   86POPC   H2X 9729   1.989  -0.050  13.286
   86POPC   H2Y 9730   2.141  -0.141  13.306
   86POPC   C23 9731   1.856   0.545  13.169
   86POPC   H3R 9732   1.853   0.585  13.065
   86POPC   H3S 9733   1.906   0.621  13.232
   86POPC   C24 9734   1.705   0.541  13.221
   86POPC   H4R 9735   1.690   0.650  13.204
   86POPC   H4S 9736   1.706   0.540  13.329
   86POPC   C25 9737   1.572   0.474  13.161
   86POPC   H5R 9738   1.576   0.434  13.061
   86POPC   H5S 9739   1.506   0.562  13.147
   86POPC   C26 9740   1.472   0.385  13.245
   86POPC   H6R 9741   1.387   0.450  13.274
   86POPC   H6S 9742   1.520   0.356  13.338
   86POPC   C27 9743   1.408   0.249  13.196
   86POPC   H7R 9744   1.311   0.237  13.249
   86POPC   H7S 9745   1.469   0.167  13.237
   86POPC   C28 9746   1.386   0.219  13.045
   86POPC   H8R 9747   1.463   0.271  12.986
   86POPC   H8S 9748   1.288   0.262  13.015
   86POPC   C29 9749   1.389   0.070  13.015
   86POPC   H91 9750   1.334   0.006  13.086
   86POPC  C210 9751   1.454   0.008  12.914
   86POPC  H101 9752   1.451  -0.101  12.907
   86POPC  C211 9753   1.540   0.066  12.806
   86POPC  H11R 9754   1.622  -0.005  12.780
   86POPC  H11S 9755   1.589   0.156  12.841
   86POPC  C212 9756   1.463   0.103  12.678
   86POPC  H12R 9757   1.387   0.180  12.704
   86POPC  H12S 9758   1.411   0.015  12.637
   86POPC  C213 9759   1.557   0.161  12.571
   86POPC  H13R 9760   1.624   0.236  12.618
   86POPC  H13S 9761   1.496   0.214  12.495
   86POPC  C214 9762   1.641   0.054  12.500
   86POPC  H14R 9763   1.573  -0.012  12.440
   86POPC  H14S 9764   1.692  -0.010  12.575
   86POPC  C215 9765   1.748   0.112  12.406
   86POPC  H15R 9766   1.816   0.029  12.375
   86POPC  H15S 9767   1.810   0.187  12.461
   86POPC  C216 9768   1.690   0.175  12.279
   86POPC  H16R 9769   1.630   0.265  12.307
   86POPC  H16S 9770   1.621   0.102  12.231
   86POPC  C217 9771   1.798   0.215  12.180
   86POPC  H17R 9772   1.867   0.129  12.169
   86POPC  H17S 9773   1.856   0.301  12.223
   86POPC  C218 9774   1.747   0.253  12.041
   86POPC  H18R 9775   1.832   0.281  11.974
   86POPC  H18S 9776   1.678   0.339  12.046
   86POPC  H18T 9777   1.693   0.168  11.995
   86POPC   C33 9778   2.089  -0.113  13.096
   86POPC   H3X 9779   2.058  -0.219  13.091
   86POPC   H3Y 9780   2.193  -0.104  13.060
   86POPC   C34 9781   2.010  -0.034  12.991
   86POPC   H4X 9782   2.033   0.074  13.003
   86POPC   H4Y 9783   1.900  -0.047  13.004
   86POPC   C35 9784   2.053  -0.076  12.849
   86POPC   H5X 9785   2.027  -0.183  12.835
   86POPC   H5Y 9786   2.163  -0.066  12.840
   86POPC   C36 9787   1.987   0.006  12.738
   86POPC   H6X 9788   1.877   0.006  12.754
   86POPC   H6Y 9789   2.006  -0.041  12.639
   86POPC   C37 9790   2.035   0.152  12.731
   86POPC   H7X 9791   2.040   0.199  12.832
   86POPC   H7Y 9792   1.959   0.207  12.672
   86POPC   C38 9793   2.168   0.173  12.658
   86POPC   H8X 9794   2.156   0.128  12.557
   86POPC   H8Y 9795   2.252   0.120  12.709
   86POPC   C39 9796   2.198   0.323  12.646
   86POPC   H9X 9797   2.228   0.361  12.747
   86POPC   H9Y 9798   2.105   0.376  12.617
   86POPC  C310 9799   2.307   0.360  12.545
   86POPC  H10X 9800   2.405   0.330  12.588
   86POPC  H10Y 9801   2.309   0.471  12.533
   86POPC  C311 9802   2.294   0.293  12.407
   86POPC  H11X 9803   2.320   0.185  12.420
   86POPC  H11Y 9804   2.369   0.338  12.339
   86POPC  C312 9805   2.159   0.303  12.335
   86POPC  H12X 9806   2.157   0.398  12.277
   86POPC  H12Y 9807   2.074   0.303  12.406
   86POPC  C313 9808   2.140   0.191  12.233
   86POPC  H13X 9809   2.056   0.222  12.167
   86POPC  H13Y 9810   2.111   0.096  12.284
   86POPC  C314 9811   2.262   0.169  12.143
   86POPC  H14X 9812   2.340   0.111  12.197
   86POPC  H14Y 9813   2.304   0.269  12.117
   86POPC  C315 9814   2.224   0.098  12.014
   86POPC  H15X 9815   2.307   0.113  11.942
   86POPC  H15Y 9816   2.134   0.148  11.970
   86POPC  C316 9817   2.197  -0.051  12.030
   86POPC  H16X 9818   2.195  -0.101  11.931
   86POPC  H16Y 9819   2.099  -0.069  12.080
   86POPC  H16Z 9820   2.277  -0.098  12.091
   87POPC     N 9821   4.656   2.075  10.052
   87POPC   C12 9822   4.554   2.183  10.084
   87POPC  H12A 9823   4.585   2.240  10.172
   87POPC  H12B 9824   4.458   2.137  10.109
   87POPC   C13 9825   4.665   1.974  10.161
   87POPC  H13A 9826   4.571   1.920  10.176
   87POPC  H13B 9827   4.731   1.892  10.132
   87POPC  H13C 9828   4.697   2.014  10.255
   87POPC   C14 9829   4.615   2.006   9.924
   87POPC  H14A 9830   4.518   1.957   9.934
   87POPC  H14B 9831   4.605   2.078   9.843
   87POPC  H14C 9832   4.685   1.928   9.893
   87POPC   C15 9833   4.790   2.138  10.032
   87POPC  H15A 9834   4.828   2.183  10.122
   87POPC  H15B 9835   4.782   2.220   9.962
   87POPC  H15C 9836   4.862   2.067   9.994
   87POPC   C11 9837   4.534   2.290   9.974
   87POPC  H11A 9838   4.438   2.345   9.994
   87POPC  H11B 9839   4.520   2.242   9.875
   87POPC     P 9840   4.652   2.496  10.075
   87POPC   O13 9841   4.587   2.447  10.197
   87POPC   O14 9842   4.595   2.615  10.010
   87POPC   O12 9843   4.647   2.379   9.967
   87POPC   O11 9844   4.805   2.507  10.099
   87POPC    C1 9845   4.893   2.564  10.002
   87POPC    HA 9846   4.850   2.655   9.955
   87POPC    HB 9847   4.915   2.490   9.922
   87POPC    C2 9848   5.026   2.604  10.074
   87POPC    HS 9849   5.109   2.607  10.000
   87POPC   O21 9850   5.058   2.514  10.182
   87POPC   C21 9851   5.050   2.385  10.160
   87POPC   O22 9852   5.050   2.328  10.052
   87POPC   C22 9853   5.038   2.317  10.295
   87POPC   H2R 9854   4.944   2.359  10.338
   87POPC   H2S 9855   5.124   2.350  10.357
   87POPC    C3 9856   5.007   2.747  10.133
   87POPC    HX 9857   5.009   2.817  10.047
   87POPC    HY 9858   5.091   2.775  10.200
   87POPC   O31 9859   4.878   2.758  10.195
   87POPC   C31 9860   4.873   2.747  10.325
   87POPC   O32 9861   4.968   2.740  10.401
   87POPC   C32 9862   4.725   2.754  10.367
   87POPC   H2X 9863   4.664   2.768  10.275
   87POPC   H2Y 9864   4.716   2.845  10.428
   87POPC   C23 9865   5.032   2.162  10.296
   87POPC   H3R 9866   5.126   2.121  10.252
   87POPC   H3S 9867   4.946   2.124  10.238
   87POPC   C24 9868   5.020   2.109  10.440
   87POPC   H4R 9869   5.108   2.150  10.493
   87POPC   H4S 9870   5.029   1.998  10.442
   87POPC   C25 9871   4.892   2.153  10.514
   87POPC   H5R 9872   4.829   2.064  10.533
   87POPC   H5S 9873   4.833   2.221  10.449
   87POPC   C26 9874   4.917   2.224  10.648
   87POPC   H6R 9875   4.959   2.150  10.719
   87POPC   H6S 9876   4.819   2.254  10.690
   87POPC   C27 9877   5.008   2.349  10.641
   87POPC   H7R 9878   4.971   2.412  10.557
   87POPC   H7S 9879   5.113   2.322  10.618
   87POPC   C28 9880   5.002   2.438  10.768
   87POPC   H8R 9881   4.899   2.431  10.808
   87POPC   H8S 9882   5.016   2.543  10.733
   87POPC   C29 9883   5.102   2.410  10.877
   87POPC   H91 9884   5.188   2.348  10.848
   87POPC  C210 9885   5.097   2.461  11.001
   87POPC  H101 9886   5.176   2.435  11.073
   87POPC  C211 9887   4.993   2.556  11.053
   87POPC  H11R 9888   4.914   2.575  10.978
   87POPC  H11S 9889   5.038   2.656  11.073
   87POPC  C212 9890   4.924   2.508  11.182
   87POPC  H12R 9891   4.871   2.412  11.162
   87POPC  H12S 9892   4.848   2.584  11.211
   87POPC  C213 9893   5.021   2.489  11.300
   87POPC  H13R 9894   5.082   2.581  11.310
   87POPC  H13S 9895   5.091   2.406  11.278
   87POPC  C214 9896   4.952   2.465  11.434
   87POPC  H14R 9897   4.880   2.548  11.450
   87POPC  H14S 9898   5.027   2.469  11.516
   87POPC  C215 9899   4.878   2.331  11.441
   87POPC  H15R 9900   4.946   2.254  11.483
   87POPC  H15S 9901   4.853   2.298  11.338
   87POPC  C216 9902   4.746   2.340  11.518
   87POPC  H16R 9903   4.681   2.255  11.487
   87POPC  H16S 9904   4.694   2.434  11.490
   87POPC  C217 9905   4.762   2.334  11.670
   87POPC  H17R 9906   4.661   2.339  11.716
   87POPC  H17S 9907   4.820   2.421  11.706
   87POPC  C218 9908   4.829   2.204  11.714
   87POPC  H18R 9909   4.825   2.129  11.632
   87POPC  H18S 9910   4.776   2.161  11.802
   87POPC  H18T 9911   4.935   2.222  11.740
   87POPC   C33 9912   4.672   2.631  10.445
   87POPC   H3X 9913   4.699   2.536  10.395
   87POPC   H3Y 9914   4.561   2.638  10.445
   87POPC   C34 9915   4.719   2.629  10.590
   87POPC   H4X 9916   4.694   2.728  10.633
   87POPC   H4Y 9917   4.830   2.620  10.593
   87POPC   C35 9918   4.657   2.525  10.684
   87POPC   H5X 9919   4.712   2.430  10.669
   87POPC   H5Y 9920   4.551   2.508  10.656
   87POPC   C36 9921   4.661   2.570  10.831
   87POPC   H6X 9922   4.586   2.652  10.844
   87POPC   H6Y 9923   4.760   2.616  10.853
   87POPC   C37 9924   4.631   2.457  10.931
   87POPC   H7X 9925   4.722   2.396  10.948
   87POPC   H7Y 9926   4.555   2.391  10.884
   87POPC   C38 9927   4.576   2.507  11.066
   87POPC   H8X 9928   4.570   2.618  11.062
   87POPC   H8Y 9929   4.647   2.484  11.148
   87POPC   C39 9930   4.439   2.446  11.101
   87POPC   H9X 9931   4.457   2.354  11.160
   87POPC   H9Y 9932   4.389   2.416  11.006
   87POPC  C310 9933   4.338   2.536  11.174
   87POPC  H10X 9934   4.261   2.470  11.220
   87POPC  H10Y 9935   4.281   2.597  11.102
   87POPC  C311 9936   4.395   2.621  11.287
   87POPC  H11X 9937   4.315   2.692  11.321
   87POPC  H11Y 9938   4.482   2.682  11.255
   87POPC  C312 9939   4.431   2.530  11.403
   87POPC  H12X 9940   4.514   2.462  11.374
   87POPC  H12Y 9941   4.342   2.465  11.422
   87POPC  C313 9942   4.464   2.604  11.531
   87POPC  H13X 9943   4.402   2.696  11.540
   87POPC  H13Y 9944   4.572   2.631  11.534
   87POPC  C314 9945   4.431   2.512  11.646
   87POPC  H14X 9946   4.475   2.413  11.622
   87POPC  H14Y 9947   4.321   2.505  11.653
   87POPC  C315 9948   4.478   2.553  11.783
   87POPC  H15X 9949   4.436   2.653  11.808
   87POPC  H15Y 9950   4.588   2.557  11.782
   87POPC  C316 9951   4.428   2.449  11.882
   87POPC  H16X 9952   4.488   2.355  11.877
   87POPC  H16Y 9953   4.322   2.425  11.861
   87POPC  H16Z 9954   4.432   2.489  11.984
   88POPC     N 9955   5.021   4.768   9.991
   88POPC   C12 9956   4.941   4.642   9.967
   88POPC  H12A 9957   5.004   4.569   9.917
   88POPC  H12B 9958   4.857   4.664   9.903
   88POPC   C13 9959   5.150   4.728  10.056
   88POPC  H13A 9960   5.209   4.813  10.085
   88POPC  H13B 9961   5.127   4.667  10.143
   88POPC  H13C 9962   5.210   4.666   9.989
   88POPC   C14 9963   5.046   4.836   9.862
   88POPC  H14A 9964   5.113   4.779   9.799
   88POPC  H14B 9965   4.954   4.855   9.808
   88POPC  H14C 9966   5.092   4.933   9.879
   88POPC   C15 9967   4.946   4.862  10.079
   88POPC  H15A 9968   4.847   4.883  10.040
   88POPC  H15B 9969   4.995   4.959  10.084
   88POPC  H15C 9970   4.937   4.819  10.178
   88POPC   C11 9971   4.885   4.573  10.093
   88POPC  H11A 9972   4.820   4.492  10.052
   88POPC  H11B 9973   4.819   4.640  10.152
   88POPC     P 9974   4.988   4.375  10.224
   88POPC   O13 9975   5.048   4.357  10.358
   88POPC   O14 9976   5.034   4.289  10.112
   88POPC   O12 9977   4.992   4.526  10.177
   88POPC   O11 9978   4.831   4.356  10.230
   88POPC    C1 9979   4.770   4.298  10.342
   88POPC    HA 9980   4.821   4.204  10.372
   88POPC    HB 9981   4.671   4.260  10.311
   88POPC    C2 9982   4.742   4.403  10.458
   88POPC    HS 9983   4.840   4.350  10.481
   88POPC   O21 9984   4.836   4.497  10.515
   88POPC   C21 9985   4.790   4.571  10.615
   88POPC   O22 9986   4.673   4.592  10.638
   88POPC   C22 9987   4.902   4.619  10.707
   88POPC   H2R 9988   4.898   4.554  10.796
   88POPC   H2S 9989   4.875   4.720  10.741
   88POPC    C3 9990   4.676   4.325  10.577
   88POPC    HX 9991   4.626   4.236  10.532
   88POPC    HY 9992   4.592   4.385  10.617
   88POPC   O31 9993   4.776   4.285  10.673
   88POPC   C31 9994   4.751   4.319  10.796
   88POPC   O32 9995   4.650   4.372  10.837
   88POPC   C32 9996   4.870   4.282  10.883
   88POPC   H2X 9997   4.948   4.359  10.868
   88POPC   H2Y 9998   4.911   4.187  10.844
   88POPC   C23 9999   5.044   4.615  10.648
   88POPC   H3R10000   5.058   4.525  10.584
   88POPC   H3S10001   5.116   4.603  10.732
   88POPC   C2410002   5.083   4.742  10.570
   88POPC   H4R10003   5.023   4.742  10.476
   88POPC   H4S10004   5.190   4.731  10.541
   88POPC   C2510005   5.063   4.879  10.639
   88POPC   H5R10006   4.959   4.913  10.622
   88POPC   H5S10007   5.130   4.952  10.588
   88POPC   C2610008   5.085   4.890  10.792
   88POPC   H6R10009   5.002   4.837  10.844
   88POPC   H6S10010   5.076   4.997  10.821
   88POPC   C2710011   5.217   4.836  10.848
   88POPC   H7R10012   5.293   4.918  10.838
   88POPC   H7S10013   5.255   4.751  10.789
   88POPC   C2810014   5.206   4.798  10.997
   88POPC   H8R10015   5.163   4.886  11.050
   88POPC   H8S10016   5.310   4.786  11.036
   88POPC   C2910017   5.129   4.671  11.028
   88POPC   H9110018   5.142   4.590  10.954
   88POPC  C21010019   5.052   4.649  11.135
   88POPC  H10110020   5.009   4.548  11.151
   88POPC  C21110021   5.024   4.745  11.249
   88POPC  H11R10022   4.916   4.738  11.276
   88POPC  H11S10023   5.041   4.851  11.221
   88POPC  C21210024   5.108   4.713  11.375
   88POPC  H12R10025   5.109   4.604  11.393
   88POPC  H12S10026   5.058   4.760  11.463
   88POPC  C21310027   5.251   4.768  11.368
   88POPC  H13R10028   5.249   4.878  11.381
   88POPC  H13S10029   5.294   4.747  11.267
   88POPC  C21410030   5.346   4.705  11.472
   88POPC  H14R10031   5.443   4.759  11.474
   88POPC  H14S10032   5.365   4.600  11.439
   88POPC  C21510033   5.289   4.692  11.614
   88POPC  H15R10034   5.366   4.646  11.681
   88POPC  H15S10035   5.204   4.621  11.609
   88POPC  C21610036   5.238   4.822  11.679
   88POPC  H16R10037   5.188   4.886  11.603
   88POPC  H16S10038   5.324   4.880  11.719
   88POPC  C21710039   5.137   4.791  11.789
   88POPC  H17R10040   5.186   4.728  11.867
   88POPC  H17S10041   5.055   4.730  11.745
   88POPC  C21810042   5.076   4.914  11.855
   88POPC  H18R10043   5.005   4.884  11.935
   88POPC  H18S10044   5.020   4.975  11.780
   88POPC  H18T10045   5.156   4.977  11.899
   88POPC   C3310046   4.830   4.271  11.032
   88POPC   H3X10047   4.721   4.257  11.046
   88POPC   H3Y10048   4.856   4.369  11.077
   88POPC   C3410049   4.899   4.154  11.102
   88POPC   H4X10050   4.997   4.193  11.130
   88POPC   H4Y10051   4.910   4.072  11.026
   88POPC   C3510052   4.842   4.085  11.227
   88POPC   H5X10053   4.914   4.004  11.253
   88POPC   H5Y10054   4.747   4.033  11.203
   88POPC   C3610055   4.823   4.171  11.352
   88POPC   H6X10056   4.877   4.122  11.436
   88POPC   H6Y10057   4.715   4.173  11.378
   88POPC   C3710058   4.872   4.315  11.338
   88POPC   H7X10059   4.805   4.365  11.265
   88POPC   H7Y10060   4.976   4.323  11.301
   88POPC   C3810061   4.858   4.393  11.468
   88POPC   H8X10062   4.958   4.407  11.514
   88POPC   H8Y10063   4.798   4.331  11.539
   88POPC   C3910064   4.791   4.528  11.450
   88POPC   H9X10065   4.734   4.531  11.355
   88POPC   H9Y10066   4.867   4.608  11.443
   88POPC  C31010067   4.695   4.557  11.564
   88POPC  H10X10068   4.621   4.474  11.569
   88POPC  H10Y10069   4.639   4.651  11.543
   88POPC  C31110070   4.766   4.567  11.698
   88POPC  H11X10071   4.846   4.644  11.689
   88POPC  H11Y10072   4.815   4.470  11.724
   88POPC  C31210073   4.669   4.605  11.809
   88POPC  H12X10074   4.608   4.517  11.837
   88POPC  H12Y10075   4.599   4.683  11.770
   88POPC  C31310076   4.741   4.662  11.931
   88POPC  H13X10077   4.791   4.756  11.900
   88POPC  H13Y10078   4.820   4.591  11.964
   88POPC  C31410079   4.645   4.690  12.046
   88POPC  H14X10080   4.624   4.595  12.099
   88POPC  H14Y10081   4.548   4.727  12.005
   88POPC  C31510082   4.698   4.795  12.145
   88POPC  H15X10083   4.708   4.892  12.091
   88POPC  H15Y10084   4.800   4.765  12.178
   88POPC  C31610085   4.609   4.813  12.268
   88POPC  H16X10086   4.649   4.894  12.333
   88POPC  H16Y10087   4.606   4.719  12.328
   88POPC  H16Z10088   4.505   4.839  12.239
   89SOPE     N10089   2.518   4.595  14.307
   89SOPE   HN110090   2.574   4.684  14.297
   89SOPE   HN210091   2.566   4.530  14.373
   89SOPE   HN310092   2.501   4.553  14.211
   89SOPE   C1210093   2.382   4.637  14.357
   89SOPE  H12A10094   2.393   4.737  14.404
   89SOPE  H12B10095   2.352   4.564  14.435
   89SOPE   C1110096   2.278   4.642  14.243
   89SOPE  H11A10097   2.188   4.697  14.279
   89SOPE  H11B10098   2.244   4.537  14.222
   89SOPE     P10099   2.374   4.626  14.001
   89SOPE   O1310100   2.441   4.505  14.055
   89SOPE   O1410101   2.451   4.720  13.917
   89SOPE   O1210102   2.329   4.709  14.127
   89SOPE   O1110103   2.232   4.589  13.943
   89SOPE    C110104   2.143   4.692  13.895
   89SOPE    HA10105   2.176   4.794  13.925
   89SOPE    HB10106   2.041   4.678  13.938
   89SOPE    C210107   2.137   4.688  13.741
   89SOPE    HS10108   2.069   4.605  13.711
   89SOPE   O2110109   2.269   4.671  13.691
   89SOPE   C2110110   2.299   4.563  13.625
   89SOPE   O2210111   2.226   4.468  13.602
   89SOPE   C2210112   2.441   4.584  13.571
   89SOPE   H2R10113   2.506   4.608  13.659
   89SOPE   H2S10114   2.443   4.672  13.505
   89SOPE    C310115   2.083   4.819  13.680
   89SOPE    HX10116   2.152   4.904  13.703
   89SOPE    HY10117   1.987   4.842  13.730
   89SOPE   O3110118   2.062   4.800  13.538
   89SOPE   C3110119   2.172   4.816  13.464
   89SOPE   O3210120   2.275   4.867  13.502
   89SOPE   C3210121   2.145   4.761  13.323
   89SOPE   H2X10122   2.079   4.831  13.269
   89SOPE   H2Y10123   2.090   4.665  13.336
   89SOPE   C2310124   2.496   4.460  13.498
   89SOPE   H3R10125   2.484   4.372  13.565
   89SOPE   H3S10126   2.605   4.476  13.483
   89SOPE   C2410127   2.431   4.429  13.362
   89SOPE   H4R10128   2.415   4.320  13.356
   89SOPE   H4S10129   2.328   4.471  13.358
   89SOPE   C2510130   2.513   4.476  13.241
   89SOPE   H5R10131   2.526   4.586  13.245
   89SOPE   H5S10132   2.615   4.433  13.244
   89SOPE   C2610133   2.450   4.437  13.106
   89SOPE   H6R10134   2.445   4.326  13.098
   89SOPE   H6S10135   2.346   4.475  13.103
   89SOPE   C2710136   2.530   4.493  12.987
   89SOPE   H7R10137   2.546   4.601  13.003
   89SOPE   H7S10138   2.631   4.446  12.987
   89SOPE   C2810139   2.465   4.468  12.849
   89SOPE   H8R10140   2.536   4.508  12.773
   89SOPE   H8S10141   2.459   4.358  12.834
   89SOPE   C2910142   2.328   4.528  12.826
   89SOPE   H9110143   2.274   4.560  12.917
   89SOPE  C21010144   2.270   4.547  12.706
   89SOPE  H10110145   2.168   4.589  12.702
   89SOPE  C21110146   2.331   4.513  12.572
   89SOPE  H11R10147   2.434   4.475  12.584
   89SOPE  H11S10148   2.338   4.606  12.511
   89SOPE  C21210149   2.253   4.407  12.491
   89SOPE  H12R10150   2.146   4.437  12.481
   89SOPE  H12S10151   2.257   4.311  12.547
   89SOPE  C21310152   2.309   4.377  12.352
   89SOPE  H13R10153   2.258   4.289  12.308
   89SOPE  H13S10154   2.416   4.350  12.361
   89SOPE  C21410155   2.294   4.493  12.252
   89SOPE  H14R10156   2.345   4.462  12.158
   89SOPE  H14S10157   2.346   4.583  12.291
   89SOPE  C21510158   2.146   4.525  12.224
   89SOPE  H15R10159   2.104   4.581  12.310
   89SOPE  H15S10160   2.090   4.429  12.216
   89SOPE  C21610161   2.123   4.607  12.095
   89SOPE  H16R10162   2.170   4.707  12.107
   89SOPE  H16S10163   2.013   4.623  12.084
   89SOPE  C21710164   2.176   4.541  11.967
   89SOPE  H17R10165   2.287   4.542  11.970
   89SOPE  H17S10166   2.146   4.604  11.880
   89SOPE  C21810167   2.133   4.397  11.943
   89SOPE  H18R10168   2.170   4.361  11.845
   89SOPE  H18S10169   2.022   4.393  11.943
   89SOPE  H18T10170   2.172   4.330  12.023
   89SOPE   C3310171   2.273   4.730  13.241
   89SOPE   H3X10172   2.246   4.673  13.148
   89SOPE   H3Y10173   2.335   4.664  13.303
   89SOPE   C3410174   2.362   4.849  13.205
   89SOPE   H4X10175   2.468   4.823  13.227
   89SOPE   H4Y10176   2.336   4.934  13.271
   89SOPE   C3510177   2.354   4.896  13.059
   89SOPE   H5X10178   2.363   5.007  13.068
   89SOPE   H5Y10179   2.257   4.871  13.011
   89SOPE   C3610180   2.471   4.859  12.968
   89SOPE   H6X10181   2.454   4.763  12.916
   89SOPE   H6Y10182   2.563   4.850  13.031
   89SOPE   C3710183   2.495   4.969  12.864
   89SOPE   H7X10184   2.476   5.070  12.909
   89SOPE   H7Y10185   2.423   4.958  12.780
   89SOPE   C3810186   2.639   4.968  12.817
   89SOPE   H8X10187   2.662   4.872  12.767
   89SOPE   H8Y10188   2.705   4.973  12.907
   89SOPE   C3910189   2.673   5.087  12.728
   89SOPE   H9X10190   2.779   5.075  12.695
   89SOPE   H9Y10191   2.665   5.182  12.785
   89SOPE  C31010192   2.588   5.098  12.601
   89SOPE  H10X10193   2.641   5.168  12.533
   89SOPE  H10Y10194   2.488   5.140  12.623
   89SOPE  C31110195   2.578   4.967  12.525
   89SOPE  H11X10196   2.493   4.906  12.564
   89SOPE  H11Y10197   2.672   4.910  12.542
   89SOPE  C31210198   2.564   4.994  12.376
   89SOPE  H12X10199   2.655   5.048  12.341
   89SOPE  H12Y10200   2.477   5.061  12.358
   89SOPE  C31310201   2.548   4.866  12.293
   89SOPE  H13X10202   2.568   4.894  12.187
   89SOPE  H13Y10203   2.441   4.834  12.299
   89SOPE  C31410204   2.633   4.746  12.337
   89SOPE  H14X10205   2.601   4.656  12.280
   89SOPE  H14Y10206   2.610   4.723  12.443
   89SOPE  C31510207   2.786   4.760  12.323
   89SOPE  H15X10208   2.832   4.695  12.400
   89SOPE  H15Y10209   2.818   4.864  12.346
   89SOPE  C31610210   2.841   4.715  12.187
   89SOPE  H16X10211   2.940   4.667  12.201
   89SOPE  H16Y10212   2.774   4.637  12.144
   89SOPE  C31710213   2.855   4.832  12.089
   89SOPE  H17X10214   2.953   4.882  12.107
   89SOPE  H17Y10215   2.775   4.904  12.112
   89SOPE  C31810216   2.844   4.796  11.941
   89SOPE  H18X10217   2.820   4.885  11.879
   89SOPE  H18Y10218   2.939   4.752  11.904
   89SOPE  H18Z10219   2.762   4.723  11.924
   90SOPE     N10220   0.343   2.719  14.354
   90SOPE   HN110221   0.360   2.688  14.450
   90SOPE   HN210222   0.314   2.639  14.293
   90SOPE   HN310223   0.431   2.761  14.310
   90SOPE   C1210224   0.236   2.825  14.352
   90SOPE  H12A10225   0.287   2.923  14.360
   90SOPE  H12B10226   0.169   2.811  14.439
   90SOPE   C1110227   0.156   2.815  14.221
   90SOPE  H11A10228   0.093   2.907  14.213
   90SOPE  H11B10229   0.086   2.728  14.223
   90SOPE     P10230   0.284   2.681  14.030
   90SOPE   O1310231   0.250   2.567  14.119
   90SOPE   O1410232   0.427   2.696  13.999
   90SOPE   O1210233   0.243   2.810  14.110
   90SOPE   O1110234   0.189   2.684  13.902
   90SOPE    C110235   0.076   2.773  13.899
   90SOPE    HA10236   0.112   2.878  13.913
   90SOPE    HB10237   0.001   2.750  13.979
   90SOPE    C210238   0.002   2.771  13.762
   90SOPE    HS10239  -0.053   2.674  13.754
   90SOPE   O2110240   0.099   2.789  13.658
   90SOPE   C2110241   0.147   2.677  13.611
   90SOPE   O2210242   0.085   2.572  13.594
   90SOPE   C2210243   0.293   2.706  13.578
   90SOPE   H2R10244   0.331   2.759  13.669
   90SOPE   H2S10245   0.297   2.776  13.493
   90SOPE    C310246  -0.101   2.884  13.743
   90SOPE    HX10247  -0.048   2.979  13.770
   90SOPE    HY10248  -0.189   2.872  13.810
   90SOPE   O3110249  -0.142   2.880  13.604
   90SOPE   C3110250  -0.121   2.991  13.536
   90SOPE   O3210251  -0.135   3.104  13.579
   90SOPE   C3210252  -0.076   2.955  13.393
   90SOPE   H2X10253  -0.166   2.954  13.328
   90SOPE   H2Y10254  -0.030   2.854  13.394
   90SOPE   C2310255   0.381   2.583  13.558
   90SOPE   H3R10256   0.373   2.521  13.651
   90SOPE   H3S10257   0.488   2.615  13.550
   90SOPE   C2410258   0.347   2.494  13.438
   90SOPE   H4R10259   0.427   2.420  13.423
   90SOPE   H4S10260   0.255   2.437  13.465
   90SOPE   C2510261   0.328   2.567  13.305
   90SOPE   H5R10262   0.348   2.675  13.319
   90SOPE   H5S10263   0.402   2.528  13.232
   90SOPE   C2610264   0.186   2.546  13.251
   90SOPE   H6R10265   0.155   2.448  13.294
   90SOPE   H6S10266   0.117   2.622  13.294
   90SOPE   C2710267   0.171   2.530  13.098
   90SOPE   H7R10268   0.267   2.557  13.050
   90SOPE   H7S10269   0.154   2.422  13.079
   90SOPE   C2810270   0.058   2.611  13.031
   90SOPE   H8R10271  -0.023   2.623  13.105
   90SOPE   H8S10272   0.099   2.712  13.011
   90SOPE   C2910273   0.001   2.553  12.904
   90SOPE   H9110274  -0.033   2.448  12.912
   90SOPE  C21010275  -0.011   2.615  12.784
   90SOPE  H10110276  -0.061   2.560  12.702
   90SOPE  C21110277   0.031   2.756  12.749
   90SOPE  H11R10278   0.073   2.809  12.837
   90SOPE  H11S10279  -0.057   2.815  12.716
   90SOPE  C21210280   0.139   2.764  12.638
   90SOPE  H12R10281   0.182   2.866  12.637
   90SOPE  H12S10282   0.091   2.748  12.539
   90SOPE  C21310283   0.253   2.664  12.658
   90SOPE  H13R10284   0.210   2.561  12.659
   90SOPE  H13S10285   0.299   2.683  12.757
   90SOPE  C21410286   0.362   2.665  12.551
   90SOPE  H14R10287   0.447   2.600  12.580
   90SOPE  H14S10288   0.398   2.767  12.541
   90SOPE  C21510289   0.308   2.625  12.415
   90SOPE  H15R10290   0.236   2.701  12.380
   90SOPE  H15S10291   0.255   2.529  12.431
   90SOPE  C21610292   0.410   2.600  12.304
   90SOPE  H16R10293   0.350   2.554  12.223
   90SOPE  H16S10294   0.485   2.525  12.336
   90SOPE  C21710295   0.471   2.728  12.246
   90SOPE  H17R10296   0.558   2.758  12.308
   90SOPE  H17S10297   0.394   2.808  12.252
   90SOPE  C21810298   0.517   2.716  12.101
   90SOPE  H18R10299   0.595   2.638  12.091
   90SOPE  H18S10300   0.559   2.813  12.066
   90SOPE  H18T10301   0.431   2.690  12.035
   90SOPE   C3310302   0.025   3.060  13.342
   90SOPE   H3X10303   0.112   3.065  13.410
   90SOPE   H3Y10304  -0.028   3.158  13.341
   90SOPE   C3410305   0.076   3.037  13.199
   90SOPE   H4X10306   0.133   3.128  13.168
   90SOPE   H4Y10307  -0.009   3.028  13.128
   90SOPE   C3510308   0.170   2.918  13.184
   90SOPE   H5X10309   0.110   2.827  13.170
   90SOPE   H5Y10310   0.226   2.903  13.279
   90SOPE   C3610311   0.272   2.938  13.069
   90SOPE   H6X10312   0.336   3.024  13.095
   90SOPE   H6Y10313   0.219   2.964  12.975
   90SOPE   C3710314   0.361   2.815  13.045
   90SOPE   H7X10315   0.312   2.747  12.972
   90SOPE   H7Y10316   0.368   2.761  13.142
   90SOPE   C3810317   0.506   2.841  13.002
   90SOPE   H8X10318   0.557   2.742  13.010
   90SOPE   H8Y10319   0.556   2.909  13.074
   90SOPE   C3910320   0.519   2.894  12.859
   90SOPE   H9X10321   0.549   3.001  12.864
   90SOPE   H9Y10322   0.420   2.890  12.809
   90SOPE  C31010323   0.621   2.815  12.775
   90SOPE  H10X10324   0.568   2.753  12.700
   90SOPE  H10Y10325   0.671   2.741  12.839
   90SOPE  C31110326   0.728   2.902  12.706
   90SOPE  H11X10327   0.800   2.834  12.653
   90SOPE  H11Y10328   0.784   2.959  12.783
   90SOPE  C31210329   0.677   2.999  12.600
   90SOPE  H12X10330   0.759   3.024  12.528
   90SOPE  H12Y10331   0.643   3.091  12.650
   90SOPE  C31310332   0.559   2.942  12.526
   90SOPE  H13X10333   0.478   2.931  12.603
   90SOPE  H13Y10334   0.587   2.842  12.486
   90SOPE  C31410335   0.497   3.030  12.420
   90SOPE  H14X10336   0.508   2.983  12.321
   90SOPE  H14Y10337   0.555   3.124  12.417
   90SOPE  C31510338   0.350   3.061  12.452
   90SOPE  H15X10339   0.347   3.120  12.546
   90SOPE  H15Y10340   0.297   2.966  12.471
   90SOPE  C31610341   0.276   3.138  12.343
   90SOPE  H16X10342   0.330   3.233  12.324
   90SOPE  H16Y10343   0.175   3.164  12.380
   90SOPE  C31710344   0.262   3.060  12.211
   90SOPE  H17X10345   0.360   3.018  12.181
   90SOPE  H17Y10346   0.235   3.130  12.130
   90SOPE  C31810347   0.157   2.949  12.217
   90SOPE  H18X10348   0.180   2.870  12.143
   90SOPE  H18Y10349   0.056   2.988  12.196
   90SOPE  H18Z10350   0.155   2.901  12.317
   91SOPE     N10351   4.149   4.550  14.314
   91SOPE   HN110352   4.066   4.546  14.376
   91SOPE   HN210353   4.121   4.518  14.217
   91SOPE   HN310354   4.228   4.488  14.346
   91SOPE   C1210355   4.203   4.690  14.298
   91SOPE  H12A10356   4.296   4.682  14.238
   91SOPE  H12B10357   4.228   4.730  14.398
   91SOPE   C1110358   4.103   4.782  14.225
   91SOPE  H11A10359   4.157   4.870  14.181
   91SOPE  H11B10360   4.030   4.822  14.299
   91SOPE     P10361   4.098   4.641  14.002
   91SOPE   O1310362   4.147   4.510  14.052
   91SOPE   O1410363   4.200   4.733  13.945
   91SOPE   O1210364   4.031   4.711  14.126
   91SOPE   O1110365   3.975   4.618  13.906
   91SOPE    C110366   3.844   4.591  13.960
   91SOPE    HA10367   3.825   4.640  14.058
   91SOPE    HB10368   3.833   4.481  13.976
   91SOPE    C210369   3.730   4.640  13.865
   91SOPE    HS10370   3.636   4.593  13.898
   91SOPE   O2110371   3.754   4.607  13.727
   91SOPE   C2110372   3.811   4.492  13.699
   91SOPE   O2210373   3.779   4.385  13.749
   91SOPE   C2210374   3.924   4.514  13.598
   91SOPE   H2R10375   4.018   4.518  13.658
   91SOPE   H2S10376   3.911   4.613  13.549
   91SOPE    C310377   3.707   4.795  13.878
   91SOPE    HX10378   3.657   4.812  13.975
   91SOPE    HY10379   3.634   4.826  13.800
   91SOPE   O3110380   3.828   4.876  13.875
   91SOPE   C3110381   3.887   4.883  13.755
   91SOPE   O3210382   3.845   4.836  13.651
   91SOPE   C3210383   4.014   4.968  13.761
   91SOPE   H2X10384   4.096   4.898  13.788
   91SOPE   H2Y10385   4.005   5.044  13.841
   91SOPE   C2310386   3.939   4.402  13.492
   91SOPE   H3R10387   3.953   4.306  13.545
   91SOPE   H3S10388   4.032   4.421  13.435
   91SOPE   C2410389   3.824   4.392  13.390
   91SOPE   H4R10390   3.838   4.299  13.330
   91SOPE   H4S10391   3.726   4.382  13.443
   91SOPE   C2510392   3.818   4.512  13.294
   91SOPE   H5R10393   3.795   4.603  13.353
   91SOPE   H5S10394   3.918   4.526  13.248
   91SOPE   C2610395   3.712   4.499  13.182
   91SOPE   H6R10396   3.613   4.493  13.232
   91SOPE   H6S10397   3.711   4.594  13.123
   91SOPE   C2710398   3.725   4.379  13.086
   91SOPE   H7R10399   3.726   4.285  13.145
   91SOPE   H7S10400   3.634   4.377  13.022
   91SOPE   C2810401   3.848   4.380  12.993
   91SOPE   H8R10402   3.940   4.380  13.054
   91SOPE   H8S10403   3.847   4.285  12.935
   91SOPE   C2910404   3.844   4.500  12.902
   91SOPE   H9110405   3.863   4.595  12.954
   91SOPE  C21010406   3.815   4.506  12.771
   91SOPE  H10110407   3.820   4.604  12.722
   91SOPE  C21110408   3.779   4.393  12.679
   91SOPE  H11R10409   3.669   4.393  12.661
   91SOPE  H11S10410   3.805   4.293  12.720
   91SOPE  C21210411   3.849   4.412  12.543
   91SOPE  H12R10412   3.839   4.516  12.506
   91SOPE  H12S10413   3.796   4.347  12.468
   91SOPE  C21310414   3.997   4.372  12.544
   91SOPE  H13R10415   4.030   4.350  12.648
   91SOPE  H13S10416   4.060   4.455  12.505
   91SOPE  C21410417   4.018   4.249  12.457
   91SOPE  H14R10418   3.988   4.274  12.352
   91SOPE  H14S10419   3.949   4.170  12.493
   91SOPE  C21510420   4.160   4.194  12.458
   91SOPE  H15R10421   4.192   4.179  12.564
   91SOPE  H15S10422   4.231   4.265  12.411
   91SOPE  C21610423   4.162   4.058  12.387
   91SOPE  H16R10424   4.097   3.994  12.450
   91SOPE  H16S10425   4.262   4.010  12.391
   91SOPE  C21710426   4.110   4.061  12.242
   91SOPE  H17R10427   4.004   4.094  12.240
   91SOPE  H17S10428   4.112   3.957  12.205
   91SOPE  C21810429   4.192   4.143  12.142
   91SOPE  H18R10430   4.290   4.092  12.126
   91SOPE  H18S10431   4.210   4.245  12.180
   91SOPE  H18T10432   4.140   4.149  12.044
   91SOPE   C3310433   4.044   5.035  13.624
   91SOPE   H3X10434   3.975   5.119  13.606
   91SOPE   H3Y10435   4.026   4.960  13.544
   91SOPE   C3410436   4.187   5.088  13.608
   91SOPE   H4X10437   4.255   5.025  13.670
   91SOPE   H4Y10438   4.191   5.192  13.649
   91SOPE   C3510439   4.237   5.085  13.463
   91SOPE   H5X10440   4.339   5.128  13.459
   91SOPE   H5Y10441   4.173   5.149  13.398
   91SOPE   C3610442   4.239   4.942  13.406
   91SOPE   H6X10443   4.142   4.919  13.357
   91SOPE   H6Y10444   4.250   4.871  13.491
   91SOPE   C3710445   4.355   4.916  13.310
   91SOPE   H7X10446   4.445   4.964  13.352
   91SOPE   H7Y10447   4.336   4.962  13.211
   91SOPE   C3810448   4.390   4.768  13.290
   91SOPE   H8X10449   4.360   4.708  13.378
   91SOPE   H8Y10450   4.501   4.761  13.280
   91SOPE   C3910451   4.334   4.708  13.160
   91SOPE   H9X10452   4.345   4.597  13.162
   91SOPE   H9Y10453   4.395   4.745  13.075
   91SOPE  C31010454   4.188   4.746  13.135
   91SOPE  H10X10455   4.180   4.855  13.114
   91SOPE  H10Y10456   4.129   4.726  13.227
   91SOPE  C31110457   4.124   4.669  13.019
   91SOPE  H11X10458   4.022   4.712  13.006
   91SOPE  H11Y10459   4.112   4.563  13.049
   91SOPE  C31210460   4.200   4.675  12.885
   91SOPE  H12X10461   4.134   4.623  12.811
   91SOPE  H12Y10462   4.294   4.616  12.892
   91SOPE  C31310463   4.233   4.816  12.834
   91SOPE  H13X10464   4.306   4.864  12.903
   91SOPE  H13Y10465   4.141   4.878  12.837
   91SOPE  C31410466   4.293   4.819  12.692
   91SOPE  H14X10467   4.397   4.779  12.695
   91SOPE  H14Y10468   4.298   4.925  12.658
   91SOPE  C31510469   4.214   4.736  12.588
   91SOPE  H15X10470   4.107   4.762  12.595
   91SOPE  H15Y10471   4.224   4.628  12.614
   91SOPE  C31610472   4.263   4.755  12.443
   91SOPE  H16X10473   4.373   4.743  12.439
   91SOPE  H16Y10474   4.238   4.858  12.409
   91SOPE  C31710475   4.198   4.653  12.348
   91SOPE  H17X10476   4.088   4.657  12.362
   91SOPE  H17Y10477   4.232   4.551  12.377
   91SOPE  C31810478   4.230   4.677  12.200
   91SOPE  H18X10479   4.173   4.606  12.136
   91SOPE  H18Y10480   4.338   4.662  12.180
   91SOPE  H18Z10481   4.203   4.780  12.171
   92SOPE     N10482   3.680   2.297   9.673
   92SOPE   HN110483   3.739   2.306   9.587
   92SOPE   HN210484   3.583   2.333   9.653
   92SOPE   HN310485   3.727   2.350   9.749
   92SOPE   C1210486   3.683   2.154   9.718
   92SOPE  H12A10487   3.615   2.095   9.653
   92SOPE  H12B10488   3.646   2.150   9.823
   92SOPE   C1110489   3.827   2.102   9.707
   92SOPE  H11A10490   3.856   2.099   9.599
   92SOPE  H11B10491   3.833   1.997   9.744
   92SOPE     P10492   3.954   2.173   9.928
   92SOPE   O1310493   4.082   2.242   9.949
   92SOPE   O1410494   3.944   2.030   9.961
   92SOPE   O1210495   3.920   2.189   9.773
   92SOPE   O1110496   3.834   2.252   9.996
   92SOPE    C110497   3.826   2.395   9.989
   92SOPE    HA10498   3.720   2.424   9.971
   92SOPE    HB10499   3.888   2.435   9.906
   92SOPE    C210500   3.872   2.472  10.118
   92SOPE    HS10501   3.900   2.574  10.082
   92SOPE   O2110502   3.983   2.405  10.182
   92SOPE   C2110503   4.056   2.488  10.255
   92SOPE   O2210504   4.029   2.606  10.271
   92SOPE   C2210505   4.182   2.421  10.311
   92SOPE   H2R10506   4.269   2.476  10.270
   92SOPE   H2S10507   4.186   2.316  10.275
   92SOPE    C310508   3.755   2.491  10.220
   92SOPE    HX10509   3.675   2.544  10.165
   92SOPE    HY10510   3.786   2.561  10.301
   92SOPE   O3110511   3.699   2.368  10.272
   92SOPE   C3110512   3.760   2.322  10.381
   92SOPE   O3210513   3.850   2.378  10.441
   92SOPE   C3210514   3.690   2.195  10.431
   92SOPE   H2X10515   3.590   2.188  10.383
   92SOPE   H2Y10516   3.675   2.208  10.540
   92SOPE   C2310517   4.189   2.425  10.466
   92SOPE   H3R10518   4.105   2.363  10.505
   92SOPE   H3S10519   4.174   2.529  10.502
   92SOPE   C2410520   4.323   2.372  10.518
   92SOPE   H4R10521   4.344   2.274  10.470
   92SOPE   H4S10522   4.403   2.443  10.486
   92SOPE   C2510523   4.328   2.354  10.671
   92SOPE   H5R10524   4.431   2.320  10.698
   92SOPE   H5S10525   4.310   2.452  10.722
   92SOPE   C2610526   4.227   2.250  10.721
   92SOPE   H6R10527   4.124   2.282  10.698
   92SOPE   H6S10528   4.247   2.155  10.665
   92SOPE   C2710529   4.236   2.217  10.871
   92SOPE   H7R10530   4.208   2.110  10.881
   92SOPE   H7S10531   4.342   2.227  10.904
   92SOPE   C2810532   4.141   2.300  10.960
   92SOPE   H8R10533   4.168   2.408  10.953
   92SOPE   H8S10534   4.037   2.289  10.922
   92SOPE   C2910535   4.153   2.249  11.101
   92SOPE   H9110536   4.232   2.172  11.112
   92SOPE  C21010537   4.085   2.285  11.212
   92SOPE  H10110538   4.112   2.235  11.306
   92SOPE  C21110539   3.976   2.388  11.228
   92SOPE  H11R10540   3.957   2.439  11.130
   92SOPE  H11S10541   4.010   2.467  11.299
   92SOPE  C21210542   3.842   2.330  11.279
   92SOPE  H12R10543   3.812   2.250  11.209
   92SOPE  H12S10544   3.764   2.408  11.275
   92SOPE  C21310545   3.845   2.271  11.422
   92SOPE  H13R10546   3.849   2.354  11.496
   92SOPE  H13S10547   3.937   2.212  11.435
   92SOPE  C21410548   3.726   2.178  11.455
   92SOPE  H14R10549   3.702   2.118  11.364
   92SOPE  H14S10550   3.638   2.241  11.479
   92SOPE  C21510551   3.752   2.077  11.570
   92SOPE  H15R10552   3.821   1.998  11.533
   92SOPE  H15S10553   3.656   2.028  11.597
   92SOPE  C21610554   3.815   2.138  11.696
   92SOPE  H16R10555   3.756   2.226  11.728
   92SOPE  H16S10556   3.916   2.172  11.669
   92SOPE  C21710557   3.832   2.038  11.812
   92SOPE  H17R10558   3.894   1.953  11.776
   92SOPE  H17S10559   3.732   1.998  11.839
   92SOPE  C21810560   3.898   2.101  11.936
   92SOPE  H18R10561   3.832   2.088  12.025
   92SOPE  H18S10562   3.915   2.209  11.921
   92SOPE  H18T10563   3.996   2.054  11.957
   92SOPE   C3310564   3.771   2.066  10.403
   92SOPE   H3X10565   3.781   2.052  10.293
   92SOPE   H3Y10566   3.713   1.980  10.442
   92SOPE   C3410567   3.911   2.062  10.466
   92SOPE   H4X10568   3.977   2.132  10.409
   92SOPE   H4Y10569   3.953   1.960  10.452
   92SOPE   C3510570   3.919   2.100  10.615
   92SOPE   H5X10571   3.891   2.206  10.629
   92SOPE   H5Y10572   4.026   2.089  10.647
   92SOPE   C3610573   3.835   2.012  10.707
   92SOPE   H6X10574   3.875   1.908  10.701
   92SOPE   H6Y10575   3.729   2.010  10.673
   92SOPE   C3710576   3.839   2.058  10.854
   92SOPE   H7X10577   3.780   2.151  10.867
   92SOPE   H7Y10578   3.944   2.081  10.881
   92SOPE   C3810579   3.785   1.948  10.946
   92SOPE   H8X10580   3.840   1.855  10.920
   92SOPE   H8Y10581   3.677   1.934  10.925
   92SOPE   C3910582   3.806   1.970  11.096
   92SOPE   H9X10583   3.736   1.904  11.153
   92SOPE   H9Y10584   3.780   2.074  11.121
   92SOPE  C31010585   3.949   1.935  11.136
   92SOPE  H10X10586   4.018   1.999  11.077
   92SOPE  H10Y10587   3.970   1.829  11.111
   92SOPE  C31110588   3.980   1.955  11.284
   92SOPE  H11X10589   3.926   1.880  11.346
   92SOPE  H11Y10590   3.945   2.055  11.313
   92SOPE  C31210591   4.131   1.946  11.311
   92SOPE  H12X10592   4.184   2.022  11.249
   92SOPE  H12Y10593   4.166   1.847  11.276
   92SOPE  C31310594   4.168   1.969  11.457
   92SOPE  H13X10595   4.176   1.870  11.507
   92SOPE  H13Y10596   4.089   2.027  11.509
   92SOPE  C31410597   4.303   2.039  11.477
   92SOPE  H14X10598   4.299   2.142  11.436
   92SOPE  H14Y10599   4.381   1.985  11.419
   92SOPE  C31510600   4.340   2.041  11.625
   92SOPE  H15X10601   4.445   2.006  11.636
   92SOPE  H15Y10602   4.275   1.970  11.682
   92SOPE  C31610603   4.328   2.180  11.687
   92SOPE  H16X10604   4.374   2.251  11.615
   92SOPE  H16Y10605   4.388   2.182  11.781
   92SOPE  C31710606   4.185   2.225  11.719
   92SOPE  H17X10607   4.184   2.280  11.816
   92SOPE  H17Y10608   4.123   2.134  11.735
   92SOPE  C31810609   4.121   2.314  11.613
   92SOPE  H18X10610   4.017   2.342  11.641
   92SOPE  H18Y10611   4.172   2.409  11.595
   92SOPE  H18Z10612   4.119   2.261  11.516
   93SOPE     N10613   3.887   4.060   9.616
   93SOPE   HN110614   3.897   4.134   9.690
   93SOPE   HN210615   3.981   4.022   9.602
   93SOPE   HN310616   3.846   4.102   9.531
   93SOPE   C1210617   3.803   3.952   9.679
   93SOPE  H12A10618   3.774   3.881   9.599
   93SOPE  H12B10619   3.713   4.001   9.720
   93SOPE   C1110620   3.882   3.881   9.790
   93SOPE  H11A10621   3.937   3.796   9.744
   93SOPE  H11B10622   3.812   3.836   9.864
   93SOPE     P10623   3.934   4.086   9.946
   93SOPE   O1310624   3.866   4.187   9.861
   93SOPE   O1410625   4.053   4.134  10.020
   93SOPE   O1210626   3.979   3.967   9.853
   93SOPE   O1110627   3.830   4.016  10.041
   93SOPE    C110628   3.690   4.044  10.027
   93SOPE    HA10629   3.645   3.976   9.951
   93SOPE    HB10630   3.670   4.149   9.995
   93SOPE    C210631   3.615   4.024  10.162
   93SOPE    HS10632   3.514   4.070  10.153
   93SOPE   O2110633   3.682   4.080  10.276
   93SOPE   C2110634   3.766   4.178  10.265
   93SOPE   O2210635   3.762   4.273  10.187
   93SOPE   C2210636   3.880   4.157  10.363
   93SOPE   H2R10637   3.970   4.132  10.303
   93SOPE   H2S10638   3.858   4.071  10.429
   93SOPE    C310639   3.596   3.871  10.186
   93SOPE    HX10640   3.527   3.834  10.107
   93SOPE    HY10641   3.542   3.856  10.283
   93SOPE   O3110642   3.721   3.796  10.177
   93SOPE   C3110643   3.795   3.809  10.290
   93SOPE   O3210644   3.748   3.849  10.394
   93SOPE   C3210645   3.938   3.754  10.273
   93SOPE   H2X10646   3.960   3.751  10.164
   93SOPE   H2Y10647   3.938   3.650  10.312
   93SOPE   C2310648   3.908   4.282  10.448
   93SOPE   H3R10649   3.888   4.376  10.393
   93SOPE   H3S10650   4.016   4.281  10.474
   93SOPE   C2410651   3.828   4.276  10.577
   93SOPE   H4R10652   3.722   4.251  10.552
   93SOPE   H4S10653   3.865   4.192  10.640
   93SOPE   C2510654   3.828   4.405  10.661
   93SOPE   H5R10655   3.926   4.416  10.711
   93SOPE   H5S10656   3.809   4.493  10.596
   93SOPE   C2610657   3.717   4.389  10.766
   93SOPE   H6R10658   3.620   4.392  10.712
   93SOPE   H6S10659   3.735   4.286  10.801
   93SOPE   C2710660   3.713   4.488  10.884
   93SOPE   H7R10661   3.813   4.534  10.894
   93SOPE   H7S10662   3.643   4.571  10.857
   93SOPE   C2810663   3.669   4.431  11.023
   93SOPE   H8R10664   3.738   4.472  11.099
   93SOPE   H8S10665   3.573   4.480  11.047
   93SOPE   C2910666   3.656   4.280  11.042
   93SOPE   H9110667   3.642   4.224  10.949
   93SOPE  C21010668   3.643   4.205  11.152
   93SOPE  H10110669   3.628   4.097  11.137
   93SOPE  C21110670   3.637   4.239  11.298
   93SOPE  H11R10671   3.634   4.349  11.310
   93SOPE  H11S10672   3.729   4.204  11.349
   93SOPE  C21210673   3.512   4.174  11.363
   93SOPE  H12R10674   3.436   4.146  11.287
   93SOPE  H12S10675   3.461   4.245  11.430
   93SOPE  C21310676   3.538   4.051  11.450
   93SOPE  H13R10677   3.585   3.974  11.386
   93SOPE  H13S10678   3.440   4.010  11.485
   93SOPE  C21410679   3.627   4.070  11.574
   93SOPE  H14R10680   3.582   4.140  11.647
   93SOPE  H14S10681   3.726   4.111  11.543
   93SOPE  C21510682   3.649   3.933  11.637
   93SOPE  H15R10683   3.673   3.866  11.551
   93SOPE  H15S10684   3.555   3.896  11.684
   93SOPE  C21610685   3.767   3.917  11.734
   93SOPE  H16R10686   3.862   3.947  11.684
   93SOPE  H16S10687   3.774   3.808  11.756
   93SOPE  C21710688   3.753   3.991  11.866
   93SOPE  H17R10689   3.660   3.959  11.917
   93SOPE  H17S10690   3.745   4.101  11.846
   93SOPE  C21810691   3.873   3.965  11.957
   93SOPE  H18R10692   3.920   4.060  11.991
   93SOPE  H18S10693   3.950   3.905  11.904
   93SOPE  H18T10694   3.841   3.907  12.047
   93SOPE   C3310695   4.050   3.836  10.345
   93SOPE   H3X10696   4.055   3.938  10.303
   93SOPE   H3Y10697   4.148   3.787  10.324
   93SOPE   C3410698   4.037   3.842  10.499
   93SOPE   H4X10699   4.053   3.742  10.543
   93SOPE   H4Y10700   3.935   3.877  10.524
   93SOPE   C3510701   4.124   3.946  10.569
   93SOPE   H5X10702   4.094   4.046  10.531
   93SOPE   H5Y10703   4.230   3.929  10.543
   93SOPE   C3610704   4.111   3.945  10.723
   93SOPE   H6X10705   4.172   3.861  10.763
   93SOPE   H6Y10706   4.005   3.928  10.752
   93SOPE   C3710707   4.157   4.078  10.783
   93SOPE   H7X10708   4.081   4.156  10.762
   93SOPE   H7Y10709   4.251   4.107  10.732
   93SOPE   C3810710   4.189   4.076  10.933
   93SOPE   H8X10711   4.246   4.169  10.956
   93SOPE   H8Y10712   4.257   3.991  10.951
   93SOPE   C3910713   4.070   4.067  11.028
   93SOPE   H9X10714   4.109   4.067  11.133
   93SOPE   H9Y10715   4.019   3.969  11.012
   93SOPE  C31010716   3.967   4.180  11.016
   93SOPE  H10X10717   3.895   4.169  11.100
   93SOPE  H10Y10718   3.911   4.166  10.921
   93SOPE  C31110719   4.022   4.324  11.020
   93SOPE  H11X10720   3.945   4.393  10.981
   93SOPE  H11Y10721   4.107   4.331  10.949
   93SOPE  C31210722   4.065   4.374  11.159
   93SOPE  H12X10723   4.149   4.444  11.143
   93SOPE  H12Y10724   4.101   4.291  11.223
   93SOPE  C31310725   3.962   4.464  11.228
   93SOPE  H13X10726   3.878   4.402  11.266
   93SOPE  H13Y10727   3.922   4.535  11.153
   93SOPE  C31410728   4.023   4.549  11.341
   93SOPE  H14X10729   4.022   4.656  11.311
   93SOPE  H14Y10730   4.129   4.520  11.358
   93SOPE  C31510731   3.949   4.534  11.473
   93SOPE  H15X10732   3.846   4.573  11.459
   93SOPE  H15Y10733   3.999   4.598  11.549
   93SOPE  C31610734   3.945   4.389  11.522
   93SOPE  H16X10735   4.021   4.328  11.469
   93SOPE  H16Y10736   3.846   4.343  11.499
   93SOPE  C31710737   3.971   4.381  11.672
   93SOPE  H17X10738   3.894   4.442  11.723
   93SOPE  H17Y10739   4.068   4.429  11.694
   93SOPE  C31810740   3.971   4.238  11.726
   93SOPE  H18X10741   4.054   4.180  11.680
   93SOPE  H18Y10742   3.875   4.189  11.701
   93SOPE  H18Z10743   3.984   4.238  11.836
   94SOPE     N10744   1.260   4.800  10.011
   94SOPE   HN110745   1.318   4.881  10.045
   94SOPE   HN210746   1.211   4.837   9.925
   94SOPE   HN310747   1.190   4.775  10.083
   94SOPE   C1210748   1.357   4.692   9.968
   94SOPE  H12A10749   1.300   4.615   9.913
   94SOPE  H12B10750   1.403   4.648  10.060
   94SOPE   C1110751   1.470   4.748   9.878
   94SOPE  H11A10752   1.532   4.665   9.839
   94SOPE  H11B10753   1.541   4.811   9.935
   94SOPE     P10754   1.379   4.969   9.779
   94SOPE   O1310755   1.232   4.978   9.780
   94SOPE   O1410756   1.452   5.050   9.680
   94SOPE   O1210757   1.415   4.816   9.766
   94SOPE   O1110758   1.419   5.006   9.929
   94SOPE    C110759   1.358   5.114  10.003
   94SOPE    HA10760   1.256   5.137   9.967
   94SOPE    HB10761   1.419   5.206   9.991
   94SOPE    C210762   1.344   5.086  10.158
   94SOPE    HS10763   1.390   5.172  10.214
   94SOPE   O2110764   1.408   4.961  10.194
   94SOPE   C2110765   1.540   4.975  10.202
   94SOPE   O2210766   1.602   5.078  10.190
   94SOPE   C2210767   1.603   4.839  10.227
   94SOPE   H2R10768   1.668   4.818  10.139
   94SOPE   H2S10769   1.524   4.761  10.235
   94SOPE    C310770   1.195   5.081  10.205
   94SOPE    HX10771   1.136   5.037  10.122
   94SOPE    HY10772   1.155   5.185  10.215
   94SOPE   O3110773   1.173   5.000  10.323
   94SOPE   C3110774   1.177   5.067  10.439
   94SOPE   O3210775   1.203   5.186  10.448
   94SOPE   C3210776   1.137   4.978  10.557
   94SOPE   H2X10777   1.229   4.961  10.616
   94SOPE   H2Y10778   1.099   4.880  10.521
   94SOPE   C2310779   1.690   4.841  10.354
   94SOPE   H3R10780   1.758   4.929  10.353
   94SOPE   H3S10781   1.753   4.750  10.355
   94SOPE   C2410782   1.607   4.845  10.483
   94SOPE   H4R10783   1.536   4.931  10.483
   94SOPE   H4S10784   1.547   4.751  10.489
   94SOPE   C2510785   1.698   4.855  10.606
   94SOPE   H5R10786   1.786   4.790  10.589
   94SOPE   H5S10787   1.735   4.959  10.618
   94SOPE   C2610788   1.629   4.807  10.734
   94SOPE   H6R10789   1.573   4.713  10.713
   94SOPE   H6S10790   1.707   4.779  10.808
   94SOPE   C2710791   1.534   4.910  10.797
   94SOPE   H7R10792   1.459   4.943  10.723
   94SOPE   H7S10793   1.481   4.858  10.880
   94SOPE   C2810794   1.601   5.034  10.859
   94SOPE   H8R10795   1.640   5.100  10.778
   94SOPE   H8S10796   1.521   5.091  10.911
   94SOPE   C2910797   1.714   5.000  10.952
   94SOPE   H9110798   1.808   4.974  10.902
   94SOPE  C21010799   1.713   4.998  11.087
   94SOPE  H10110800   1.805   4.964  11.135
   94SOPE  C21110801   1.601   5.030  11.182
   94SOPE  H11R10802   1.556   5.128  11.157
   94SOPE  H11S10803   1.640   5.041  11.285
   94SOPE  C21210804   1.487   4.927  11.184
   94SOPE  H12R10805   1.445   4.914  11.082
   94SOPE  H12S10806   1.406   4.968  11.248
   94SOPE  C21310807   1.529   4.790  11.240
   94SOPE  H13R10808   1.614   4.749  11.183
   94SOPE  H13S10809   1.443   4.720  11.227
   94SOPE  C21410810   1.563   4.795  11.390
   94SOPE  H14R10811   1.483   4.854  11.441
   94SOPE  H14S10812   1.659   4.848  11.406
   94SOPE  C21510813   1.570   4.655  11.452
   94SOPE  H15R10814   1.653   4.599  11.405
   94SOPE  H15S10815   1.475   4.602  11.428
   94SOPE  C21610816   1.586   4.656  11.604
   94SOPE  H16R10817   1.681   4.709  11.631
   94SOPE  H16S10818   1.595   4.551  11.640
   94SOPE  C21710819   1.470   4.723  11.678
   94SOPE  H17R10820   1.373   4.689  11.634
   94SOPE  H17S10821   1.474   4.833  11.661
   94SOPE  C21810822   1.471   4.694  11.828
   94SOPE  H18R10823   1.399   4.760  11.881
   94SOPE  H18S10824   1.572   4.713  11.870
   94SOPE  H18T10825   1.444   4.588  11.848
   94SOPE   C3310826   1.031   5.046  10.648
   94SOPE   H3X10827   0.936   5.057  10.591
   94SOPE   H3Y10828   1.066   5.149  10.675
   94SOPE   C3410829   1.000   4.973  10.781
   94SOPE   H4X10830   1.093   4.964  10.841
   94SOPE   H4Y10831   0.965   4.870  10.758
   94SOPE   C3510832   0.893   5.047  10.865
   94SOPE   H5X10833   0.804   5.059  10.800
   94SOPE   H5Y10834   0.931   5.149  10.888
   94SOPE   C3610835   0.847   4.978  10.996
   94SOPE   H6X10836   0.890   4.875  11.002
   94SOPE   H6Y10837   0.736   4.966  10.990
   94SOPE   C3710838   0.877   5.055  11.127
   94SOPE   H7X10839   0.872   5.164  11.104
   94SOPE   H7Y10840   0.981   5.033  11.157
   94SOPE   C3810841   0.782   5.026  11.248
   94SOPE   H8X10842   0.676   5.044  11.219
   94SOPE   H8Y10843   0.808   5.097  11.329
   94SOPE   C3910844   0.798   4.883  11.301
   94SOPE   H9X10845   0.907   4.875  11.318
   94SOPE   H9Y10846   0.767   4.812  11.222
   94SOPE  C31010847   0.737   4.836  11.436
   94SOPE  H10X10848   0.626   4.846  11.433
   94SOPE  H10Y10849   0.775   4.900  11.518
   94SOPE  C31110850   0.776   4.688  11.464
   94SOPE  H11X10851   0.885   4.676  11.445
   94SOPE  H11Y10852   0.725   4.623  11.391
   94SOPE  C31210853   0.752   4.634  11.606
   94SOPE  H12X10854   0.651   4.663  11.643
   94SOPE  H12Y10855   0.826   4.684  11.672
   94SOPE  C31310856   0.767   4.479  11.627
   94SOPE  H13X10857   0.672   4.426  11.620
   94SOPE  H13Y10858   0.798   4.471  11.731
   94SOPE  C31410859   0.865   4.403  11.533
   94SOPE  H14X10860   0.962   4.451  11.537
   94SOPE  H14Y10861   0.825   4.424  11.431
   94SOPE  C31510862   0.877   4.247  11.540
   94SOPE  H15X10863   0.887   4.220  11.433
   94SOPE  H15Y10864   0.779   4.209  11.575
   94SOPE  C31610865   0.992   4.157  11.603
   94SOPE  H16X10866   0.961   4.056  11.571
   94SOPE  H16Y10867   0.994   4.152  11.712
   94SOPE  C31710868   1.134   4.161  11.542
   94SOPE  H17X10869   1.114   4.262  11.513
   94SOPE  H17Y10870   1.141   4.101  11.449
   94SOPE  C31810871   1.271   4.160  11.615
   94SOPE  H18X10872   1.300   4.067  11.664
   94SOPE  H18Y10873   1.284   4.238  11.692
   94SOPE  H18Z10874   1.350   4.181  11.539
   95SAPI   C1210875   0.598   0.949  14.425
   95SAPI    H210876   0.628   1.027  14.351
   95SAPI    O210877   0.717   0.893  14.479
   95SAPI   HO210878   0.731   0.818  14.419
   95SAPI   C1310879   0.503   1.013  14.525
   95SAPI    H310880   0.413   1.045  14.467
   95SAPI    O310881   0.556   1.131  14.585
   95SAPI   HO310882   0.529   1.210  14.537
   95SAPI   C1410883   0.457   0.911  14.627
   95SAPI    H410884   0.546   0.875  14.685
   95SAPI    O410885   0.369   0.979  14.718
   95SAPI   HO410886   0.385   1.073  14.700
   95SAPI   C1510887   0.387   0.794  14.559
   95SAPI    H510888   0.295   0.831  14.507
   95SAPI    O510889   0.346   0.698  14.658
   95SAPI   HO510890   0.281   0.738  14.719
   95SAPI   C1610891   0.479   0.730  14.455
   95SAPI    H610892   0.567   0.683  14.504
   95SAPI    O610893   0.411   0.631  14.377
   95SAPI   HO610894   0.414   0.670  14.288
   95SAPI   C1110895   0.521   0.838  14.358
   95SAPI    H110896   0.425   0.883  14.320
   95SAPI     P10897   0.574   0.849  14.107
   95SAPI   O1310898   0.634   0.984  14.107
   95SAPI   O1410899   0.431   0.826  14.082
   95SAPI   O1210900   0.602   0.778  14.255
   95SAPI   O1110901   0.660   0.753  14.019
   95SAPI    C110902   0.800   0.742  14.034
   95SAPI    HA10903   0.846   0.839  14.065
   95SAPI    HB10904   0.822   0.667  14.113
   95SAPI    C210905   0.855   0.692  13.899
   95SAPI    HS10906   0.949   0.636  13.917
   95SAPI   O2110907   0.880   0.797  13.805
   95SAPI   C2110908   0.970   0.886  13.840
   95SAPI   O2210909   1.038   0.884  13.942
   95SAPI   C2210910   0.975   0.995  13.733
   95SAPI   H2R10911   0.875   1.043  13.727
   95SAPI   H2S10912   1.049   1.071  13.766
   95SAPI    C310913   0.753   0.596  13.832
   95SAPI    HX10914   0.658   0.652  13.816
   95SAPI    HY10915   0.731   0.511  13.899
   95SAPI   O3110916   0.811   0.549  13.710
   95SAPI   C3110917   0.759   0.599  13.599
   95SAPI   O3210918   0.647   0.644  13.587
   95SAPI   C3210919   0.864   0.594  13.490
   95SAPI   H2X10920   0.880   0.489  13.462
   95SAPI   H2Y10921   0.959   0.634  13.530
   95SAPI   C2310922   1.016   0.940  13.594
   95SAPI   H3R10923   0.957   0.849  13.570
   95SAPI   H3S10924   1.124   0.913  13.595
   95SAPI   C2410925   0.986   1.044  13.485
   95SAPI   H4R10926   1.035   1.137  13.519
   95SAPI   H4S10927   0.876   1.064  13.484
   95SAPI   C2510928   1.039   1.013  13.348
   95SAPI   H5R10929   1.143   0.978  13.344
   95SAPI   C2610930   0.973   1.030  13.232
   95SAPI   H6R10931   1.027   1.011  13.138
   95SAPI   C2710932   0.833   1.083  13.213
   95SAPI   H7R10933   0.828   1.142  13.119
   95SAPI   H7S10934   0.806   1.154  13.294
   95SAPI   C2810935   0.732   0.971  13.211
   95SAPI   H8R10936   0.694   0.941  13.310
   95SAPI   C2910937   0.683   0.907  13.103
   95SAPI   H9R10938   0.612   0.825  13.118
   95SAPI  C21010939   0.720   0.933  12.960
   95SAPI  H10R10940   0.746   0.836  12.912
   95SAPI  H10S10941   0.810   0.997  12.951
   95SAPI  C21110942   0.603   1.000  12.893
   95SAPI  H11R10943   0.583   1.104  12.925
   95SAPI  C21210944   0.521   0.944  12.803
   95SAPI  H12R10945   0.437   1.003  12.765
   95SAPI  C21310946   0.532   0.802  12.752
   95SAPI  H13R10947   0.498   0.730  12.830
   95SAPI  H13S10948   0.638   0.775  12.732
   95SAPI  C21410949   0.447   0.785  12.630
   95SAPI  H14R10950   0.340   0.773  12.650
   95SAPI  C21510951   0.491   0.787  12.502
   95SAPI  H15R10952   0.420   0.772  12.420
   95SAPI  C21610953   0.635   0.806  12.463
   95SAPI  H16R10954   0.696   0.727  12.513
   95SAPI  H16S10955   0.673   0.904  12.500
   95SAPI  C21710956   0.659   0.794  12.312
   95SAPI  H17R10957   0.621   0.696  12.276
   95SAPI  H17S10958   0.769   0.794  12.296
   95SAPI  C21810959   0.600   0.906  12.225
   95SAPI  H18R10960   0.489   0.902  12.233
   95SAPI  H18S10961   0.624   0.887  12.118
   95SAPI  C21910962   0.650   1.047  12.258
   95SAPI  H19R10963   0.608   1.077  12.357
   95SAPI  H19S10964   0.607   1.114  12.181
   95SAPI  C22010965   0.802   1.068  12.261
   95SAPI  H20R10966   0.849   1.003  12.338
   95SAPI  H20S10967   0.826   1.174  12.286
   95SAPI  H20T10968   0.847   1.044  12.163
   95SAPI   C3310969   0.822   0.676  13.367
   95SAPI   H3X10970   0.823   0.784  13.394
   95SAPI   H3Y10971   0.717   0.650  13.337
   95SAPI   C3410972   0.911   0.653  13.245
   95SAPI   H4X10973   0.890   0.735  13.173
   95SAPI   H4Y10974   0.882   0.559  13.194
   95SAPI   C3510975   1.061   0.647  13.274
   95SAPI   H5X10976   1.084   0.563  13.344
   95SAPI   H5Y10977   1.092   0.741  13.323
   95SAPI   C3610978   1.142   0.627  13.146
   95SAPI   H6X10979   1.122   0.527  13.103
   95SAPI   H6Y10980   1.249   0.625  13.176
   95SAPI   C3710981   1.114   0.734  13.040
   95SAPI   H7X10982   1.211   0.768  12.997
   95SAPI   H7Y10983   1.067   0.823  13.086
   95SAPI   C3810984   1.027   0.681  12.926
   95SAPI   H8X10985   0.927   0.651  12.965
   95SAPI   H8Y10986   1.077   0.589  12.890
   95SAPI   C3910987   1.009   0.776  12.806
   95SAPI   H9X10988   1.107   0.821  12.779
   95SAPI   H9Y10989   0.941   0.861  12.828
   95SAPI  C31010990   0.955   0.693  12.688
   95SAPI  H10X10991   0.845   0.681  12.698
   95SAPI  H10Y10992   1.000   0.592  12.699
   95SAPI  C31110993   0.991   0.739  12.547
   95SAPI  H11X10994   1.099   0.768  12.542
   95SAPI  H11Y10995   0.931   0.829  12.519
   95SAPI  C31210996   0.964   0.624  12.448
   95SAPI  H12X10997   0.856   0.599  12.457
   95SAPI  H12Y10998   1.019   0.532  12.478
   95SAPI  C31310999   0.996   0.653  12.302
   95SAPI  H13X11000   1.104   0.637  12.281
   95SAPI  H13Y11001   0.975   0.761  12.283
   95SAPI  C31411002   0.910   0.565  12.210
   95SAPI  H14X11003   0.803   0.571  12.243
   95SAPI  H14Y11004   0.941   0.459  12.222
   95SAPI  C31511005   0.914   0.602  12.061
   95SAPI  H15X11006   0.842   0.534  12.011
   95SAPI  H15Y11007   1.016   0.583  12.022
   95SAPI  C31611008   0.872   0.746  12.028
   95SAPI  H16X11009   0.933   0.818  12.088
   95SAPI  H16Y11010   0.766   0.758  12.057
   95SAPI  C31711011   0.887   0.786  11.881
   95SAPI  H17X11012   0.804   0.741  11.821
   95SAPI  H17Y11013   0.983   0.744  11.842
   95SAPI  C31811014   0.889   0.938  11.862
   95SAPI  H18X11015   0.900   0.965  11.754
   95SAPI  H18Y11016   0.974   0.982  11.918
   95SAPI  H18Z11017   0.795   0.983  11.900
   96SAPI   C1211018   2.078   4.854   9.513
   96SAPI    H211019   2.079   4.964   9.531
   96SAPI    O211020   1.948   4.808   9.541
   96SAPI   HO211021   1.935   4.819   9.636
   96SAPI   C1311022   2.103   4.828   9.367
   96SAPI    H311023   2.206   4.861   9.341
   96SAPI    O311024   2.013   4.905   9.287
   96SAPI   HO311025   1.924   4.879   9.313
   96SAPI   C1411026   2.098   4.677   9.342
   96SAPI    H411027   2.004   4.636   9.387
   96SAPI    O411028   2.084   4.641   9.206
   96SAPI   HO411029   1.990   4.653   9.188
   96SAPI   C1511030   2.212   4.612   9.420
   96SAPI    H511031   2.307   4.664   9.392
   96SAPI    O511032   2.236   4.473   9.394
   96SAPI   HO511033   2.230   4.428   9.480
   96SAPI   C1611034   2.186   4.637   9.568
   96SAPI    H611035   2.085   4.594   9.593
   96SAPI    O611036   2.280   4.569   9.650
   96SAPI   HO611037   2.248   4.594   9.739
   96SAPI   C1111038   2.183   4.786   9.599
   96SAPI    H111039   2.285   4.828   9.577
   96SAPI     P11040   2.158   4.942   9.819
   96SAPI   O1311041   2.049   5.029   9.772
   96SAPI   O1411042   2.293   5.001   9.807
   96SAPI   O1211043   2.154   4.799   9.738
   96SAPI   O1111044   2.133   4.890   9.966
   96SAPI    C111045   2.044   4.953  10.058
   96SAPI    HA11046   1.964   5.011  10.007
   96SAPI    HB11047   1.993   4.875  10.118
   96SAPI    C211048   2.123   5.045  10.154
   96SAPI    HS11049   2.183   5.117  10.093
   96SAPI   O2111050   2.206   4.964  10.240
   96SAPI   C2111051   2.330   4.943  10.201
   96SAPI   O2211052   2.387   4.992  10.105
   96SAPI   C2211053   2.393   4.843  10.299
   96SAPI   H2R11054   2.331   4.838  10.391
   96SAPI   H2S11055   2.389   4.745  10.249
   96SAPI    C311056   2.028   5.130  10.242
   96SAPI    HX11057   1.964   5.062  10.304
   96SAPI    HY11058   1.959   5.187  10.176
   96SAPI   O3111059   2.107   5.224  10.319
   96SAPI   C3111060   2.131   5.189  10.443
   96SAPI   O3211061   2.074   5.102  10.506
   96SAPI   C3211062   2.245   5.273  10.495
   96SAPI   H2X11063   2.210   5.378  10.506
   96SAPI   H2Y11064   2.328   5.272  10.422
   96SAPI   C2311065   2.540   4.876  10.338
   96SAPI   H3R11066   2.603   4.880  10.247
   96SAPI   H3S11067   2.578   4.790  10.398
   96SAPI   C2411068   2.553   5.009  10.416
   96SAPI   H4R11069   2.452   5.039  10.452
   96SAPI   H4S11070   2.583   5.088  10.343
   96SAPI   C2511071   2.647   5.012  10.535
   96SAPI   H5R11072   2.718   5.096  10.535
   96SAPI   C2611073   2.643   4.929  10.641
   96SAPI   H6R11074   2.717   4.943  10.722
   96SAPI   C2711075   2.545   4.817  10.665
   96SAPI   H7R11076   2.589   4.723  10.624
   96SAPI   H7S11077   2.453   4.835  10.605
   96SAPI   C2811078   2.510   4.792  10.810
   96SAPI   H8R11079   2.595   4.763  10.874
   96SAPI   C2911080   2.388   4.800  10.868
   96SAPI   H9R11081   2.380   4.776  10.975
   96SAPI  C21011082   2.257   4.837  10.800
   96SAPI  H10R11083   2.265   4.819  10.691
   96SAPI  H10S11084   2.243   4.947  10.808
   96SAPI  C21111085   2.126   4.776  10.846
   96SAPI  H11R11086   2.068   4.731  10.764
   96SAPI  C21211087   2.074   4.770  10.970
   96SAPI  H12R11088   1.975   4.722  10.982
   96SAPI  C21311089   2.131   4.824  11.099
   96SAPI  H13R11090   2.233   4.784  11.115
   96SAPI  H13S11091   2.074   4.780  11.184
   96SAPI  C21411092   2.136   4.975  11.111
   96SAPI  H14R11093   2.200   5.025  11.036
   96SAPI  C21511094   2.071   5.050  11.202
   96SAPI  H15R11095   2.087   5.159  11.202
   96SAPI  C21611096   1.978   4.998  11.309
   96SAPI  H16R11097   1.927   4.906  11.274
   96SAPI  H16S11098   1.898   5.072  11.331
   96SAPI  C21711099   2.043   4.955  11.442
   96SAPI  H17R11100   2.078   5.044  11.499
   96SAPI  H17S11101   2.130   4.891  11.417
   96SAPI  C21811102   1.944   4.872  11.526
   96SAPI  H18R11103   1.913   4.784  11.465
   96SAPI  H18S11104   1.852   4.932  11.545
   96SAPI  C21911105   1.999   4.820  11.659
   96SAPI  H19R11106   2.095   4.766  11.641
   96SAPI  H19S11107   1.927   4.746  11.700
   96SAPI  C22011108   2.021   4.929  11.764
   96SAPI  H20R11109   1.926   4.983  11.784
   96SAPI  H20S11110   2.097   5.003  11.729
   96SAPI  H20T11111   2.056   4.885  11.860
   96SAPI   C3311112   2.291   5.217  10.630
   96SAPI   H3X11113   2.324   5.111  10.621
   96SAPI   H3Y11114   2.206   5.220  10.702
   96SAPI   C3411115   2.405   5.299  10.689
   96SAPI   H4X11116   2.378   5.408  10.680
   96SAPI   H4Y11117   2.499   5.283  10.632
   96SAPI   C3511118   2.422   5.267  10.837
   96SAPI   H5X11119   2.324   5.276  10.888
   96SAPI   H5Y11120   2.489   5.341  10.883
   96SAPI   C3611121   2.486   5.132  10.870
   96SAPI   H6X11122   2.581   5.120  10.813
   96SAPI   H6Y11123   2.416   5.052  10.843
   96SAPI   C3711124   2.514   5.134  11.019
   96SAPI   H7X11125   2.420   5.170  11.067
   96SAPI   H7Y11126   2.594   5.211  11.035
   96SAPI   C3811127   2.559   5.009  11.093
   96SAPI   H8X11128   2.642   4.959  11.039
   96SAPI   H8Y11129   2.475   4.936  11.102
   96SAPI   C3911130   2.605   5.055  11.232
   96SAPI   H9X11131   2.684   5.132  11.219
   96SAPI   H9Y11132   2.649   4.974  11.291
   96SAPI  C31011133   2.494   5.118  11.316
   96SAPI  H10X11134   2.440   5.198  11.263
   96SAPI  H10Y11135   2.544   5.166  11.402
   96SAPI  C31111136   2.391   5.019  11.370
   96SAPI  H11X11137   2.343   4.962  11.287
   96SAPI  H11Y11138   2.311   5.077  11.422
   96SAPI  C31211139   2.456   4.921  11.468
   96SAPI  H12X11140   2.529   4.979  11.528
   96SAPI  H12Y11141   2.512   4.844  11.410
   96SAPI  C31311142   2.357   4.852  11.562
   96SAPI  H13X11143   2.283   4.796  11.501
   96SAPI  H13Y11144   2.303   4.927  11.624
   96SAPI  C31411145   2.426   4.749  11.651
   96SAPI  H14X11146   2.480   4.678  11.584
   96SAPI  H14Y11147   2.348   4.692  11.707
   96SAPI  C31511148   2.528   4.808  11.748
   96SAPI  H15X11149   2.598   4.876  11.693
   96SAPI  H15Y11150   2.591   4.726  11.788
   96SAPI  C31611151   2.467   4.890  11.862
   96SAPI  H16X11152   2.395   4.965  11.823
   96SAPI  H16Y11153   2.552   4.944  11.909
   96SAPI  C31711154   2.399   4.809  11.972
   96SAPI  H17X11155   2.305   4.767  11.932
   96SAPI  H17Y11156   2.371   4.879  12.055
   96SAPI  C31811157   2.487   4.698  12.028
   96SAPI  H18X11158   2.589   4.736  12.049
   96SAPI  H18Y11159   2.496   4.614  11.957
   96SAPI  H18Z11160   2.444   4.659  12.122
   97SOD    SOD11161   0.048   1.731   8.609
   98SOD    SOD11162   1.943   1.790  15.391
   99SOD    SOD11163   4.071   3.837   9.138
  100SOD    SOD11164   4.825   0.894   8.772
  101SOD    SOD11165   1.558   4.235   8.704
  102SOD    SOD11166   0.417   3.328   9.421
  103SOD    SOD11167   4.533   2.966  15.501
  104SOD    SOD11168   3.043   1.114  14.890
  105SOD    SOD11169   1.324   0.491  15.181
  106SOD    SOD11170   2.897   2.595   8.353
  107SOD    SOD11171   4.708   4.347   9.223
  108SOD    SOD11172   1.622   3.887  15.129
  109SOD    SOD11173   0.551   0.449   9.066
  110SOD    SOD11174   4.894   0.125   8.561
  111SOD    SOD11175   1.386   3.149  13.994
  112SOD    SOD11176   3.371   2.956  15.461
  113SOD    SOD11177   4.751   4.428  14.390
  114CLA    CLA11178   2.992   1.620   8.058
  115CLA    CLA11179   5.066   4.363   8.093
  116CLA    CLA11180   0.513   3.697  15.443
  117CLA    CLA11181   4.318   3.354  15.149
  118CLA    CLA11182   3.533   3.065  15.259
  119CLA    CLA11183   5.050   4.869   8.030
  120CLA    CLA11184   4.111   1.510   8.470
  121TIP3   OH211185   3.434   3.574  14.020
  121TIP3    H111186   3.366   3.568  14.088
  121TIP3    H211187   3.450   3.669  14.011
  122TIP3   OH211188   3.158   3.197  14.000
  122TIP3    H111189   3.169   3.120  14.057
  122TIP3    H211190   3.137   3.162  13.913
  123TIP3   OH211191   3.898   2.626  14.088
  123TIP3    H111192   3.811   2.630  14.134
  123TIP3    H211193   3.897   2.716  14.050
  124TIP3   OH211194   3.366   2.721  14.134
  124TIP3    H111195   3.279   2.767  14.143
  124TIP3    H211196   3.375   2.721  14.037
  125TIP3   OH211197   3.571   2.382  13.993
  125TIP3    H111198   3.517   2.300  13.998
  125TIP3    H211199   3.564   2.396  13.895
  126TIP3   OH211200   3.698   2.908  14.075
  126TIP3    H111201   3.650   2.987  14.047
  126TIP3    H211202   3.652   2.882  14.157
  127TIP3   OH211203   3.640   2.613  14.187
  127TIP3    H111204   3.557   2.666  14.190
  127TIP3    H211205   3.606   2.536  14.138
  128TIP3   OH211206   1.787   3.326  13.865
  128TIP3    H111207   1.821   3.283  13.946
  128TIP3    H211208   1.837   3.410  13.862
  129TIP3   OH211209   1.968   1.170  14.090
  129TIP3    H111210   2.022   1.249  14.074
  129TIP3    H211211   1.906   1.170  14.015
  130TIP3   OH211212   2.049   1.497  14.048
  130TIP3    H111213   2.145   1.488  14.041
  130TIP3    H211214   2.041   1.594  14.060
  131TIP3   OH211215   1.112   2.524  14.043
  131TIP3    H111216   1.204   2.523  14.073
  131TIP3    H211217   1.078   2.440  14.077
  132TIP3   OH211218   0.811   2.656  13.989
  132TIP3    H111219   0.722   2.614  13.991
  132TIP3    H211220   0.857   2.588  13.937
  133TIP3   OH211221   0.992   2.720  14.185
  133TIP3    H111222   1.051   2.649  14.153
  133TIP3    H211223   0.920   2.703  14.121
  134TIP3   OH211224   2.350   0.979  14.073
  134TIP3    H111225   2.279   1.040  14.095
  134TIP3    H211226   2.428   1.031  14.098
  135TIP3   OH211227   1.123   1.299  14.254
  135TIP3    H111228   1.154   1.368  14.195
  135TIP3    H211229   1.040   1.271  14.212
  136TIP3   OH211230  -0.065   3.878  14.206
  136TIP3    H111231   0.010   3.905  14.152
  136TIP3    H211232  -0.115   3.821  14.146
  137TIP3   OH211233  -0.017   4.202  13.950
  137TIP3    H111234  -0.082   4.273  13.943
  137TIP3    H211235   0.020   4.225  14.035
  138TIP3   OH211236   3.519   5.122  14.055
  138TIP3    H111237   3.597   5.161  14.012
  138TIP3    H211238   3.523   5.159  14.146
  139TIP3   OH211239   0.713   0.253  14.007
  139TIP3    H111240   0.785   0.241  13.943
  139TIP3    H211241   0.724   0.344  14.038
  140TIP3   OH211242   0.228   5.169  14.055
  140TIP3    H111243   0.312   5.125  14.075
  140TIP3    H211244   0.249   5.260  14.084
  141TIP3   OH211245  -0.076   0.203  13.979
  141TIP3    H111246  -0.165   0.244  13.979
  141TIP3    H211247  -0.041   0.234  13.895
  142TIP3   OH211248   2.209   2.135   9.960
  142TIP3    H111249   2.159   2.215   9.942
  142TIP3    H211250   2.298   2.176   9.971
  143TIP3   OH211251   2.386   1.717  10.015
  143TIP3    H111252   2.387   1.814  10.006
  143TIP3    H211253   2.291   1.705  10.032
  144TIP3   OH211254   3.464   2.376  10.098
  144TIP3    H111255   3.404   2.452  10.111
  144TIP3    H211256   3.495   2.361  10.188
  145TIP3   OH211257   3.288   2.519   9.759
  145TIP3    H111258   3.237   2.540   9.837
  145TIP3    H211259   3.336   2.602   9.743
  146TIP3   OH211260   3.505   2.754   9.973
  146TIP3    H111261   3.521   2.705   9.890
  146TIP3    H211262   3.592   2.795   9.985
  147TIP3   OH211263   3.249   1.228  10.013
  147TIP3    H111264   3.194   1.233   9.933
  147TIP3    H211265   3.215   1.148  10.055
  148TIP3   OH211266   1.907   4.032   9.909
  148TIP3    H111267   1.961   3.976   9.853
  148TIP3    H211268   1.843   4.065   9.843
  149TIP3   OH211269   2.271   4.252   9.943
  149TIP3    H111270   2.324   4.317   9.892
  149TIP3    H211271   2.303   4.275  10.032
  150TIP3   OH211272   2.656   4.509  10.033
  150TIP3    H111273   2.725   4.454  10.078
  150TIP3    H211274   2.581   4.452  10.055
  151TIP3   OH211275   2.449   4.427   9.840
  151TIP3    H111276   2.418   4.444   9.749
  151TIP3    H211277   2.517   4.494   9.851
  152TIP3   OH211278   1.000   0.929   9.951
  152TIP3    H111279   1.064   0.945   9.882
  152TIP3    H211280   1.033   0.989  10.020
  153TIP3   OH211281   1.120   1.387  10.047
  153TIP3    H111282   1.143   1.475  10.083
  153TIP3    H211283   1.029   1.402  10.017
  154TIP3   OH211284   4.070   1.169   9.988
  154TIP3    H111285   4.132   1.191   9.917
  154TIP3    H211286   3.986   1.192   9.947
  155TIP3   OH211287   1.429   0.573   9.973
  155TIP3    H111288   1.436   0.655   9.922
  155TIP3    H211289   1.370   0.519   9.917
  156TIP3   OH211290   4.415   3.659   9.960
  156TIP3    H111291   4.399   3.723   9.891
  156TIP3    H211292   4.463   3.714  10.023
  157TIP3   OH211293   4.823   3.967  10.001
  157TIP3    H111294   4.743   3.973   9.943
  157TIP3    H211295   4.815   4.051  10.049
  158TIP3   OH211296   0.328   4.168   9.907
  158TIP3    H111297   0.279   4.122   9.977
  158TIP3    H211298   0.364   4.090   9.860
  159TIP3   OH211299   0.192   0.790   9.974
  159TIP3    H111300   0.252   0.837  10.036
  159TIP3    H211301   0.254   0.747   9.914
  160TIP3   OH211302   0.534   0.916   9.784
  160TIP3    H111303   0.507   1.009   9.785
  160TIP3    H211304   0.504   0.886   9.870
  161TIP3   OH211305   1.036   0.552  10.006
  161TIP3    H111306   0.987   0.479  10.049
  161TIP3    H211307   0.965   0.615   9.993
  162TIP3   OH211308   0.637   0.235   9.982
  162TIP3    H111309   0.559   0.249  10.037
  162TIP3    H211310   0.616   0.280   9.899
  163TIP3   OH211311   4.769   1.218   9.906
  163TIP3    H111312   4.718   1.299   9.925
  163TIP3    H211313   4.704   1.165   9.857
  164TIP3   OH211314   5.049   0.776   9.974
  164TIP3    H111315   5.054   0.873   9.975
  164TIP3    H211316   5.105   0.760   9.898
  165TIP3   OH211317   4.972   1.042   9.953
  165TIP3    H111318   5.009   1.086   9.875
  165TIP3    H211319   4.886   1.090   9.959
  166TIP3   OH211320   4.811   0.625   9.976
  166TIP3    H111321   4.890   0.682   9.976
  166TIP3    H211322   4.758   0.674  10.041
  167TIP3   OH211323   1.109   1.014  14.652
  167TIP3    H111324   1.134   1.096  14.696
  167TIP3    H211325   1.040   1.047  14.594
  168TIP3   OH211326   1.014   0.948  15.037
  168TIP3    H111327   1.051   0.923  15.124
  168TIP3    H211328   0.962   0.867  15.017
  169TIP3   OH211329   0.208   0.918  15.157
  169TIP3    H111330   0.202   0.825  15.187
  169TIP3    H211331   0.277   0.949  15.217
  170TIP3   OH211332   1.330   1.266  14.891
  170TIP3    H111333   1.314   1.183  14.939
  170TIP3    H211334   1.362   1.320  14.964
  171TIP3   OH211335   0.297   1.415  15.010
  171TIP3    H111336   0.249   1.331  15.002
  171TIP3    H211337   0.386   1.388  14.981
  172TIP3   OH211338  -0.070   0.734  14.615
  172TIP3    H111339  -0.131   0.809  14.604
  172TIP3    H211340  -0.060   0.707  14.521
  173TIP3   OH211341   0.087   0.957  14.784
  173TIP3    H111342   0.103   0.866  14.819
  173TIP3    H211343   0.156   0.955  14.716
  174TIP3   OH211344   1.066   1.755  14.873
  174TIP3    H111345   1.146   1.699  14.880
  174TIP3    H211346   1.011   1.714  14.941
  175TIP3   OH211347   0.808   1.239  15.098
  175TIP3    H111348   0.825   1.166  15.038
  175TIP3    H211349   0.899   1.270  15.114
  176TIP3   OH211350   1.694   0.296  15.093
  176TIP3    H111351   1.705   0.367  15.159
  176TIP3    H211352   1.768   0.317  15.032
  177TIP3   OH211353   1.172   0.641  15.109
  177TIP3    H111354   1.090   0.589  15.120
  177TIP3    H211355   1.162   0.670  15.015
  178TIP3   OH211356   0.459   0.484  14.806
  178TIP3    H111357   0.436   0.552  14.739
  178TIP3    H211358   0.438   0.405  14.751
  179TIP3   OH211359   1.243   0.429  14.637
  179TIP3    H111360   1.290   0.444  14.722
  179TIP3    H211361   1.286   0.496  14.582
  180TIP3   OH211362   0.173   0.715  14.877
  180TIP3    H111363   0.215   0.690  14.961
  180TIP3    H211364   0.167   0.627  14.837
  181TIP3   OH211365   1.711   0.489  15.328
  181TIP3    H111366   1.667   0.576  15.331
  181TIP3    H211367   1.777   0.499  15.398
  182TIP3   OH211368   0.391   0.367  15.210
  182TIP3    H111369   0.353   0.422  15.137
  182TIP3    H211370   0.312   0.359  15.268
  183TIP3   OH211371   1.098   1.302  14.577
  183TIP3    H111372   1.075   1.333  14.488
  183TIP3    H211373   1.053   1.368  14.634
  184TIP3   OH211374   0.602   1.118  15.235
  184TIP3    H111375   0.540   1.185  15.272
  184TIP3    H211376   0.668   1.176  15.189
  185TIP3   OH211377   1.423   0.496  14.842
  185TIP3    H111378   1.428   0.414  14.893
  185TIP3    H211379   1.508   0.537  14.868
  186TIP3   OH211380   0.328   0.565  15.031
  186TIP3    H111381   0.396   0.620  15.077
  186TIP3    H211382   0.378   0.537  14.950
  187TIP3   OH211383   0.471   1.351  15.286
  187TIP3    H111384   0.443   1.410  15.215
  187TIP3    H211385   0.385   1.339  15.332
  188TIP3   OH211386   1.407   1.424  15.104
  188TIP3    H111387   1.311   1.434  15.122
  188TIP3    H211388   1.423   1.511  15.061
  189TIP3   OH211389   1.435   0.296  15.190
  189TIP3    H111390   1.385   0.214  15.170
  189TIP3    H211391   1.525   0.268  15.161
  190TIP3   OH211392   0.759   0.156  14.966
  190TIP3    H111393   0.759   0.069  15.006
  190TIP3    H211394   0.667   0.187  14.990
  191TIP3   OH211395   1.280   1.599  14.750
  191TIP3    H111396   1.320   1.529  14.694
  191TIP3    H211397   1.345   1.670  14.740
  192TIP3   OH211398   1.393   1.387  14.587
  192TIP3    H111399   1.326   1.347  14.529
  192TIP3    H211400   1.383   1.330  14.665
  193TIP3   OH211401   1.528   1.277  15.463
  193TIP3    H111402   1.507   1.205  15.399
  193TIP3    H211403   1.541   1.352  15.402
  194TIP3   OH211404   1.702   0.910  15.196
  194TIP3    H111405   1.663   0.991  15.233
  194TIP3    H211406   1.785   0.945  15.158
  195TIP3   OH211407   1.344   0.844  15.407
  195TIP3    H111408   1.373   0.930  15.442
  195TIP3    H211409   1.264   0.870  15.357
  196TIP3   OH211410   0.609   1.383  14.958
  196TIP3    H111411   0.605   1.366  14.861
  196TIP3    H211412   0.689   1.336  14.987
  197TIP3   OH211413   0.550   0.929  15.053
  197TIP3    H111414   0.535   0.978  14.971
  197TIP3    H211415   0.564   0.999  15.121
  198TIP3   OH211416   1.158   1.497  15.140
  198TIP3    H111417   1.148   1.570  15.203
  198TIP3    H211418   1.111   1.424  15.187
  199TIP3   OH211419   0.607   1.369  15.520
  199TIP3    H111420   0.532   1.416  15.563
  199TIP3    H211421   0.567   1.357  15.431
  200TIP3   OH211422   0.323   0.963  15.466
  200TIP3    H111423   0.309   1.035  15.530
  200TIP3    H211424   0.230   0.935  15.448
  201TIP3   OH211425   1.027   1.556  14.663
  201TIP3    H111426   1.103   1.579  14.721
  201TIP3    H211427   0.976   1.638  14.660
  202TIP3   OH211428   0.427   1.541  15.622
  202TIP3    H111429   0.435   1.588  15.535
  202TIP3    H211430   0.333   1.517  15.618
  203TIP3   OH211431   1.590   0.113  14.290
  203TIP3    H111432   1.500   0.104  14.326
  203TIP3    H211433   1.580   0.200  14.251
  204TIP3   OH211434   0.012   1.197  15.367
  204TIP3    H111435  -0.060   1.203  15.303
  204TIP3    H211436   0.050   1.111  15.345
  205TIP3   OH211437   0.014   1.518  14.965
  205TIP3    H111438   0.086   1.469  15.008
  205TIP3    H211439  -0.029   1.556  15.044
  206TIP3   OH211440   1.794   1.513  15.613
  206TIP3    H111441   1.790   1.415  15.608
  206TIP3    H211442   1.704   1.530  15.645
  207TIP3   OH211443   0.875   1.476  15.504
  207TIP3    H111444   0.888   1.562  15.549
  207TIP3    H211445   0.777   1.465  15.499
  208TIP3   OH211446   0.955   1.824  14.438
  208TIP3    H111447   0.948   1.851  14.344
  208TIP3    H211448   0.940   1.911  14.481
  209TIP3   OH211449   0.320   1.750  14.671
  209TIP3    H111450   0.346   1.725  14.762
  209TIP3    H211451   0.254   1.680  14.653
  210TIP3   OH211452   1.248   1.779  14.227
  210TIP3    H111453   1.192   1.708  14.195
  210TIP3    H211454   1.239   1.767  14.324
  211TIP3   OH211455   1.205   1.749  14.494
  211TIP3    H111456   1.112   1.781  14.491
  211TIP3    H211457   1.194   1.667  14.544
  212TIP3   OH211458   1.436   0.687  15.645
  212TIP3    H111459   1.403   0.719  15.560
  212TIP3    H211460   1.435   0.589  15.635
  213TIP3   OH211461   0.242   1.336  15.424
  213TIP3    H111462   0.242   1.304  15.517
  213TIP3    H211463   0.151   1.303  15.401
  214TIP3   OH211464   0.516   0.245  15.022
  214TIP3    H111465   0.433   0.207  14.987
  214TIP3    H211466   0.481   0.302  15.094
  215TIP3   OH211467   0.942   0.176  15.411
  215TIP3    H111468   0.898   0.170  15.498
  215TIP3    H211469   0.875   0.133  15.356
  216TIP3   OH211470   1.268   0.560  15.418
  216TIP3    H111471   1.230   0.532  15.505
  216TIP3    H211472   1.230   0.650  15.409
  217TIP3   OH211473   0.537   0.684  15.148
  217TIP3    H111474   0.517   0.712  15.240
  217TIP3    H211475   0.544   0.773  15.103
  218TIP3   OH211476   0.981   0.719  14.499
  218TIP3    H111477   0.965   0.814  14.493
  218TIP3    H211478   1.058   0.706  14.442
  219TIP3   OH211479   0.898   0.810  15.728
  219TIP3    H111480   0.880   0.715  15.715
  219TIP3    H211481   0.991   0.802  15.760
  220TIP3   OH211482   1.163   0.730  14.846
  220TIP3    H111483   1.139   0.800  14.782
  220TIP3    H211484   1.136   0.651  14.797
  221TIP3   OH211485   0.217   0.689  15.292
  221TIP3    H111486   0.253   0.718  15.377
  221TIP3    H211487   0.219   0.592  15.297
  222TIP3   OH211488  -0.084   0.281  14.785
  222TIP3    H111489  -0.008   0.327  14.827
  222TIP3    H211490  -0.057   0.284  14.691
  223TIP3   OH211491   0.106   0.406  14.340
  223TIP3    H111492   0.192   0.446  14.322
  223TIP3    H211493   0.053   0.441  14.267
  224TIP3   OH211494   1.108   0.855  15.268
  224TIP3    H111495   1.141   0.775  15.220
  224TIP3    H211496   1.042   0.815  15.328
  225TIP3   OH211497   0.729   0.504  14.801
  225TIP3    H111498   0.633   0.480  14.806
  225TIP3    H211499   0.768   0.454  14.875
  226TIP3   OH211500   1.194   0.346  15.042
  226TIP3    H111501   1.109   0.333  15.088
  226TIP3    H211502   1.181   0.292  14.962
  227TIP3   OH211503   1.490   1.936  15.723
  227TIP3    H111504   1.498   2.032  15.706
  227TIP3    H211505   1.553   1.928  15.796
  228TIP3   OH211506   0.212   1.225  15.676
  228TIP3    H111507   0.294   1.203  15.728
  228TIP3    H211508   0.140   1.192  15.734
  229TIP3   OH211509   0.887   0.714  14.980
  229TIP3    H111510   0.922   0.690  14.893
  229TIP3    H211511   0.795   0.685  14.973
  230TIP3   OH211512   0.371   0.329  14.601
  230TIP3    H111513   0.333   0.241  14.616
  230TIP3    H211514   0.449   0.309  14.548
  231TIP3   OH211515   0.741   0.529  15.214
  231TIP3    H111516   0.664   0.585  15.189
  231TIP3    H211517   0.812   0.593  15.218
  232TIP3   OH211518   1.498   1.111  15.258
  232TIP3    H111519   1.534   1.144  15.173
  232TIP3    H211520   1.416   1.071  15.224
  233TIP3   OH211521   1.139   0.508  14.289
  233TIP3    H111522   1.075   0.533  14.221
  233TIP3    H211523   1.226   0.518  14.244
  234TIP3   OH211524   0.920   1.220  15.446
  234TIP3    H111525   0.919   1.187  15.536
  234TIP3    H211526   0.909   1.317  15.461
  235TIP3   OH211527   0.064   0.929  15.426
  235TIP3    H111528   0.041   0.943  15.520
  235TIP3    H211529  -0.014   0.877  15.397
  236TIP3   OH211530   0.648   0.924  15.636
  236TIP3    H111531   0.637   0.919  15.539
  236TIP3    H211532   0.735   0.879  15.647
  237TIP3   OH211533   1.211   1.423  15.502
  237TIP3    H111534   1.127   1.445  15.462
  237TIP3    H211535   1.194   1.463  15.591
  238TIP3   OH211536   1.774   1.223  15.574
  238TIP3    H111537   1.690   1.245  15.528
  238TIP3    H211538   1.831   1.210  15.497
  239TIP3   OH211539   1.539   1.500  14.355
  239TIP3    H111540   1.502   1.493  14.445
  239TIP3    H211541   1.580   1.413  14.349
  240TIP3   OH211542   1.319   1.021  15.059
  240TIP3    H111543   1.229   0.989  15.041
  240TIP3    H211544   1.375   0.966  15.000
  241TIP3   OH211545   0.545   1.452  14.698
  241TIP3    H111546   0.611   1.510  14.657
  241TIP3    H211547   0.462   1.489  14.664
  242TIP3   OH211548   0.742   1.643  15.289
  242TIP3    H111549   0.801   1.712  15.252
  242TIP3    H211550   0.796   1.611  15.362
  243TIP3   OH211551   0.586   1.736  14.600
  243TIP3    H111552   0.493   1.749  14.627
  243TIP3    H211553   0.619   1.826  14.608
  244TIP3   OH211554   1.056   1.245  15.203
  244TIP3    H111555   1.003   1.213  15.280
  244TIP3    H211556   1.104   1.165  15.178
  245TIP3   OH211557   1.390   1.661  15.475
  245TIP3    H111558   1.307   1.612  15.461
  245TIP3    H211559   1.386   1.728  15.402
  246TIP3   OH211560   0.164   0.386  15.371
  246TIP3    H111561   0.087   0.441  15.396
  246TIP3    H211562   0.120   0.298  15.379
  247TIP3   OH211563   0.120   1.605  15.219
  247TIP3    H111564   0.198   1.557  15.250
  247TIP3    H211565   0.075   1.626  15.301
  248TIP3   OH211566   0.755   1.467  14.083
  248TIP3    H111567   0.713   1.410  14.017
  248TIP3    H211568   0.695   1.457  14.159
  249TIP3   OH211569   0.596   1.361  14.309
  249TIP3    H111570   0.601   1.271  14.271
  249TIP3    H211571   0.685   1.382  14.339
  250TIP3   OH211572   1.044   0.413  15.316
  250TIP3    H111573   1.086   0.424  15.403
  250TIP3    H211574   1.001   0.325  15.330
  251TIP3   OH211575   1.108   0.293  14.443
  251TIP3    H111576   1.103   0.375  14.388
  251TIP3    H211577   1.168   0.329  14.514
  252TIP3   OH211578   0.841   1.555  14.343
  252TIP3    H111579   0.858   1.628  14.404
  252TIP3    H211580   0.900   1.575  14.269
  253TIP3   OH211581   0.849   0.484  14.550
  253TIP3    H111582   0.887   0.573  14.535
  253TIP3    H211583   0.805   0.499  14.636
  254TIP3   OH211584   0.969   0.678  15.415
  254TIP3    H111585   0.891   0.695  15.471
  254TIP3    H211586   0.970   0.581  15.408
  255TIP3   OH211587   0.952   0.186  14.628
  255TIP3    H111588   0.909   0.269  14.650
  255TIP3    H211589   1.016   0.220  14.561
  256TIP3   OH211590   0.547   0.406  14.241
  256TIP3    H111591   0.495   0.467  14.295
  256TIP3    H211592   0.619   0.381  14.301
  257TIP3   OH211593   1.513   0.453  15.534
  257TIP3    H111594   1.424   0.450  15.494
  257TIP3    H211595   1.569   0.429  15.458
  258TIP3   OH211596   1.417   0.818  14.896
  258TIP3    H111597   1.331   0.771  14.889
  258TIP3    H211598   1.469   0.761  14.954
  259TIP3   OH211599   0.081   0.671  14.119
  259TIP3    H111600   0.159   0.728  14.132
  259TIP3    H211601   0.091   0.655  14.023
  260TIP3   OH211602   1.464   1.700  15.050
  260TIP3    H111603   1.458   1.770  14.983
  260TIP3    H211604   1.559   1.706  15.075
  261TIP3   OH211605   0.262   0.188  14.921
  261TIP3    H111606   0.239   0.154  14.832
  261TIP3    H211607   0.255   0.107  14.976
  262TIP3   OH211608   0.138   1.560  14.610
  262TIP3    H111609   0.052   1.596  14.638
  262TIP3    H211610   0.144   1.593  14.518
  263TIP3   OH211611   0.063   1.843  15.726
  263TIP3    H111612   0.131   1.827  15.797
  263TIP3    H211613   0.052   1.753  15.692
  264TIP3   OH211614   0.496   1.692  15.834
  264TIP3    H111615   0.567   1.634  15.865
  264TIP3    H211616   0.485   1.659  15.742
  265TIP3   OH211617   0.978   1.624  14.085
  265TIP3    H111618   0.901   1.562  14.087
  265TIP3    H211619   1.012   1.604  13.996
  266TIP3   OH211620   1.145   1.520  15.738
  266TIP3    H111621   1.116   1.442  15.790
  266TIP3    H211622   1.229   1.541  15.785
  267TIP3   OH211623   1.361   1.526  14.036
  267TIP3    H111624   1.431   1.527  14.103
  267TIP3    H211625   1.368   1.613  13.997
  268TIP3   OH211626  -0.037   1.161  15.799
  268TIP3    H111627  -0.030   1.065  15.794
  268TIP3    H211628  -0.108   1.178  15.735
  269TIP3   OH211629   0.694   1.183  15.687
  269TIP3    H111630   0.668   1.241  15.611
  269TIP3    H211631   0.683   1.091  15.653
  270TIP3   OH211632   1.285   1.173  15.520
  270TIP3    H111633   1.372   1.217  15.532
  270TIP3    H211634   1.232   1.252  15.494
  271TIP3   OH211635   0.056   0.898  15.729
  271TIP3    H111636   0.140   0.908  15.776
  271TIP3    H211637   0.037   0.806  15.753
  272TIP3   OH211638   0.512   0.802  15.377
  272TIP3    H111639   0.454   0.869  15.422
  272TIP3    H211640   0.596   0.851  15.368
  273TIP3   OH211641   1.033   1.099  15.813
  273TIP3    H111642   1.099   1.039  15.775
  273TIP3    H211643   0.963   1.040  15.846
  274TIP3   OH211644   0.555   0.611  15.562
  274TIP3    H111645   0.566   0.523  15.520
  274TIP3    H211646   0.542   0.669  15.484
  275TIP3   OH211647   0.608   0.368  15.377
  275TIP3    H111648   0.661   0.411  15.305
  275TIP3    H211649   0.524   0.350  15.329
  276TIP3   OH211650   0.754   0.940  15.365
  276TIP3    H111651   0.845   0.974  15.374
  276TIP3    H211652   0.706   1.016  15.324
  277TIP3   OH211653   1.163   0.696  15.844
  277TIP3    H111654   1.198   0.610  15.872
  277TIP3    H211655   1.242   0.739  15.808
  278TIP3   OH211656   1.249   0.967  15.699
  278TIP3    H111657   1.252   1.033  15.625
  278TIP3    H211658   1.335   0.925  15.690
  279TIP3   OH211659   0.366   0.690  15.836
  279TIP3    H111660   0.331   0.603  15.806
  279TIP3    H211661   0.428   0.709  15.762
  280TIP3   OH211662   0.690   0.101  15.315
  280TIP3    H111663   0.651   0.183  15.347
  280TIP3    H211664   0.616   0.057  15.269
  281TIP3   OH211665   0.815   0.548  15.693
  281TIP3    H111666   0.795   0.495  15.772
  281TIP3    H211667   0.753   0.507  15.632
  282TIP3   OH211668   1.130   0.465  15.638
  282TIP3    H111669   1.041   0.492  15.668
  282TIP3    H211670   1.159   0.408  15.714
  283TIP3   OH211671   1.215   0.309  15.855
  283TIP3    H111672   1.228   0.216  15.826
  283TIP3    H211673   1.227   0.309  15.951
  284TIP3   OH211674   0.230   0.460  15.780
  284TIP3    H111675   0.207   0.390  15.715
  284TIP3    H211676   0.206   0.413  15.864
  285TIP3   OH211677   0.743   0.074  15.607
  285TIP3    H111678   0.687   0.027  15.672
  285TIP3    H211679   0.686   0.078  15.528
  286TIP3   OH211680   0.793   0.272  15.842
  286TIP3    H111681   0.813   0.182  15.814
  286TIP3    H211682   0.695   0.274  15.836
  287TIP3   OH211683  -0.043   1.928  14.582
  287TIP3    H111684  -0.114   1.878  14.540
  287TIP3    H211685  -0.030   1.879  14.665
  288TIP3   OH211686   0.029   1.741  14.800
  288TIP3    H111687   0.048   1.647  14.824
  288TIP3    H211688   0.086   1.783  14.869
  289TIP3   OH211689   1.714   1.798  15.089
  289TIP3    H111690   1.761   1.826  15.169
  289TIP3    H211691   1.685   1.882  15.051
  290TIP3   OH211692   1.742   1.696  15.391
  290TIP3    H111693   1.683   1.631  15.345
  290TIP3    H211694   1.736   1.660  15.482
  291TIP3   OH211695   1.613   1.291  15.896
  291TIP3    H111696   1.520   1.265  15.876
  291TIP3    H211697   1.602   1.374  15.944
  292TIP3   OH211698   1.689   1.190  14.420
  292TIP3    H111699   1.782   1.217  14.411
  292TIP3    H211700   1.698   1.122  14.491
  293TIP3   OH211701   1.700   0.973  14.593
  293TIP3    H111702   1.635   0.904  14.617
  293TIP3    H211703   1.750   0.980  14.677
  294TIP3   OH211704   1.667   1.193  15.058
  294TIP3    H111705   1.750   1.140  15.055
  294TIP3    H211706   1.701   1.282  15.040
  295TIP3   OH211707   1.570   1.504  15.310
  295TIP3    H111708   1.494   1.551  15.350
  295TIP3    H211709   1.529   1.464  15.229
  296TIP3   OH211710   1.522   0.782  14.638
  296TIP3    H111711   1.483   0.696  14.612
  296TIP3    H211712   1.484   0.799  14.727
  297TIP3   OH211713   0.092   1.115  15.010
  297TIP3    H111714   0.083   1.071  14.923
  297TIP3    H211715   0.141   1.045  15.060
  298TIP3   OH211716   1.602   0.965  15.585
  298TIP3    H111717   1.652   0.883  15.604
  298TIP3    H211718   1.675   1.030  15.576
  299TIP3   OH211719   1.721   0.728  15.647
  299TIP3    H111720   1.633   0.686  15.638
  299TIP3    H211721   1.780   0.653  15.626
  300TIP3   OH211722   1.429   0.567  14.480
  300TIP3    H111723   1.463   0.479  14.509
  300TIP3    H211724   1.466   0.573  14.391
  301TIP3   OH211725   1.589   0.601  15.071
  301TIP3    H111726   1.683   0.610  15.042
  301TIP3    H211727   1.600   0.645  15.158
  302TIP3   OH211728   1.569   0.711  15.323
  302TIP3    H111729   1.488   0.750  15.362
  302TIP3    H211730   1.615   0.793  15.294
  303TIP3   OH211731  -0.016   0.562  15.757
  303TIP3    H111732   0.071   0.530  15.729
  303TIP3    H211733  -0.068   0.479  15.747
  304TIP3   OH211734   1.854   0.082  15.876
  304TIP3    H111735   1.803  -0.001  15.867
  304TIP3    H211736   1.826   0.130  15.797
  305TIP3   OH211737   1.523   0.325  14.518
  305TIP3    H111738   1.555   0.274  14.595
  305TIP3    H211739   1.464   0.261  14.474
  306TIP3   OH211740   0.136   0.424  14.850
  306TIP3    H111741   0.211   0.362  14.846
  306TIP3    H211742   0.133   0.443  14.945
  307TIP3   OH211743  -0.040   0.700  15.057
  307TIP3    H111744  -0.008   0.711  14.966
  307TIP3    H211745   0.017   0.761  15.105
  308TIP3   OH211746   1.668   0.246  15.704
  308TIP3    H111747   1.599   0.313  15.721
  308TIP3    H211748   1.655   0.230  15.607
  309TIP3   OH211749  -0.004   0.258  14.533
  309TIP3    H111750  -0.091   0.279  14.496
  309TIP3    H211751   0.053   0.306  14.468
  310TIP3   OH211752   1.469   1.823  14.681
  310TIP3    H111753   1.441   1.872  14.600
  310TIP3    H211754   1.428   1.879  14.748
  311TIP3   OH211755   0.001   0.152  15.318
  311TIP3    H111756  -0.034   0.066  15.347
  311TIP3    H211757  -0.058   0.185  15.247
  312TIP3   OH211758   0.147   1.484  15.707
  312TIP3    H111759   0.158   1.387  15.703
  312TIP3    H211760   0.169   1.507  15.798
  313TIP3   OH211761   0.478   1.651  15.374
  313TIP3    H111762   0.467   1.737  15.328
  313TIP3    H211763   0.566   1.626  15.340
  314TIP3   OH211764   0.868   1.748  15.591
  314TIP3    H111765   0.882   1.730  15.686
  314TIP3    H211766   0.957   1.783  15.571
  315TIP3   OH211767   1.106   1.858  15.590
  315TIP3    H111768   1.190   1.849  15.542
  315TIP3    H211769   1.131   1.896  15.677
  316TIP3   OH211770   1.621   0.141  15.457
  316TIP3    H111771   1.528   0.148  15.432
  316TIP3    H211772   1.628   0.045  15.472
  317TIP3   OH211773   0.224   1.940  15.335
  317TIP3    H111774   0.152   1.982  15.283
  317TIP3    H211775   0.196   1.965  15.425
  318TIP3   OH211776   0.467   1.885  15.236
  318TIP3    H111777   0.381   1.911  15.279
  318TIP3    H211778   0.451   1.914  15.145
  319TIP3   OH211779   0.919   1.828  15.170
  319TIP3    H111780   0.880   1.867  15.089
  319TIP3    H211781   0.925   1.910  15.225
  320TIP3   OH211782   1.125   1.702  15.311
  320TIP3    H111783   1.059   1.739  15.248
  320TIP3    H211784   1.189   1.775  15.313
  321TIP3   OH211785   1.418   1.841  15.281
  321TIP3    H111786   1.428   1.934  15.252
  321TIP3    H211787   1.421   1.795  15.195
  322TIP3   OH211788   0.170   1.787  15.026
  322TIP3    H111789   0.130   1.733  15.097
  322TIP3    H211790   0.253   1.738  15.005
  323TIP3   OH211791   0.379   1.668  14.919
  323TIP3    H111792   0.361   1.579  14.954
  323TIP3    H211793   0.474   1.680  14.941
  324TIP3   OH211794   0.630   1.672  15.008
  324TIP3    H111795   0.654   1.578  14.995
  324TIP3    H211796   0.639   1.680  15.105
  325TIP3   OH211797   0.934   0.342  14.920
  325TIP3    H111798   0.866   0.278  14.951
  325TIP3    H211799   0.979   0.283  14.859
  326TIP3   OH211800   1.472   0.096  14.878
  326TIP3    H111801   1.547   0.117  14.817
  326TIP3    H211802   1.397   0.131  14.827
  327TIP3   OH211803   1.665   0.193  14.704
  327TIP3    H111804   1.726   0.147  14.646
  327TIP3    H211805   1.723   0.268  14.732
  328TIP3   OH211806   0.230   0.110  14.654
  328TIP3    H111807   0.153   0.152  14.611
  328TIP3    H211808   0.211   0.015  14.640
  329TIP3   OH211809   0.686   0.212  14.707
  329TIP3    H111810   0.755   0.165  14.658
  329TIP3    H211811   0.721   0.209  14.798
  330TIP3   OH211812   1.193   0.137  14.808
  330TIP3    H111813   1.155   0.144  14.719
  330TIP3    H211814   1.196   0.040  14.821
  331TIP3   OH211815   1.344   0.172  14.370
  331TIP3    H111816   1.255   0.212  14.362
  331TIP3    H211817   1.333   0.108  14.444
  332TIP3   OH211818   0.075   1.732  14.396
  332TIP3    H111819   0.049   1.740  14.303
  332TIP3    H211820   0.086   1.830  14.411
  333TIP3   OH211821   0.316   0.240  14.140
  333TIP3    H111822   0.294   0.304  14.071
  333TIP3    H211823   0.402   0.278  14.167
  334TIP3   OH211824   0.757   0.298  14.383
  334TIP3    H111825   0.844   0.262  14.403
  334TIP3    H211826   0.764   0.382  14.434
  335TIP3   OH211827   0.955   1.900  14.176
  335TIP3    H111828   0.978   1.974  14.115
  335TIP3    H211829   0.989   1.822  14.128
  336TIP3   OH211830   0.153   0.222  15.649
  336TIP3    H111831   0.105   0.155  15.599
  336TIP3    H211832   0.240   0.178  15.661
  337TIP3   OH211833   0.382   0.096  15.750
  337TIP3    H111834   0.450   0.160  15.778
  337TIP3    H211835   0.385   0.033  15.823
  338TIP3   OH211836   1.268   5.246  15.751
  338TIP3    H111837   1.209   5.204  15.817
  338TIP3    H211838   1.321   5.172  15.716
  339TIP3   OH211839   1.573   1.680  15.660
  339TIP3    H111840   1.517   1.658  15.581
  339TIP3    H211841   1.545   1.773  15.674
  340TIP3   OH211842   2.996   1.046  14.671
  340TIP3    H111843   2.983   1.138  14.638
  340TIP3    H211844   2.936   1.004  14.606
  341TIP3   OH211845   2.884   0.955  15.011
  341TIP3    H111846   2.910   0.905  15.092
  341TIP3    H211847   2.826   0.890  14.969
  342TIP3   OH211848   2.105   0.918  15.151
  342TIP3    H111849   2.087   0.832  15.194
  342TIP3    H211850   2.197   0.934  15.178
  343TIP3   OH211851   3.227   1.250  14.892
  343TIP3    H111852   3.321   1.225  14.902
  343TIP3    H211853   3.229   1.335  14.942
  344TIP3   OH211854   2.185   1.440  15.018
  344TIP3    H111855   2.155   1.350  14.996
  344TIP3    H211856   2.281   1.425  15.008
  345TIP3   OH211857   1.895   0.739  14.559
  345TIP3    H111858   1.893   0.832  14.534
  345TIP3    H211859   1.802   0.713  14.547
  346TIP3   OH211860   1.894   0.967  14.788
  346TIP3    H111861   1.935   0.880  14.806
  346TIP3    H211862   1.970   1.019  14.759
  347TIP3   OH211863   2.950   1.773  14.835
  347TIP3    H111864   3.023   1.713  14.804
  347TIP3    H211865   2.935   1.735  14.923
  348TIP3   OH211866   2.710   1.167  15.112
  348TIP3    H111867   2.755   1.085  15.083
  348TIP3    H211868   2.786   1.222  15.139
  349TIP3   OH211869   3.559   0.290  15.091
  349TIP3    H111870   3.572   0.357  15.161
  349TIP3    H211871   3.628   0.319  15.030
  350TIP3   OH211872   3.066   0.658  15.121
  350TIP3    H111873   3.080   0.562  15.135
  350TIP3    H211874   3.043   0.656  15.026
  351TIP3   OH211875   2.371   0.458  14.790
  351TIP3    H111876   2.374   0.540  14.737
  351TIP3    H211877   2.316   0.401  14.733
  352TIP3   OH211878   3.083   0.455  14.687
  352TIP3    H111879   3.163   0.447  14.744
  352TIP3    H211880   3.118   0.514  14.619
  353TIP3   OH211881   2.009   0.736  14.868
  353TIP3    H111882   2.083   0.708  14.925
  353TIP3    H211883   2.029   0.679  14.790
  354TIP3   OH211884   2.533   0.856  14.818
  354TIP3    H111885   2.596   0.796  14.861
  354TIP3    H211886   2.479   0.792  14.766
  355TIP3   OH211887   3.595   0.452  15.317
  355TIP3    H111888   3.549   0.534  15.294
  355TIP3    H211889   3.611   0.468  15.412
  356TIP3   OH211890   2.275   0.346  15.191
  356TIP3    H111891   2.229   0.369  15.109
  356TIP3    H211892   2.207   0.382  15.253
  357TIP3   OH211893   2.933   1.293  14.596
  357TIP3    H111894   2.839   1.282  14.575
  357TIP3    H211895   2.934   1.388  14.620
  358TIP3   OH211896   2.471   1.108  15.215
  358TIP3    H111897   2.418   1.179  15.257
  358TIP3    H211898   2.545   1.159  15.176
  359TIP3   OH211899   3.291   0.456  14.856
  359TIP3    H111900   3.307   0.398  14.932
  359TIP3    H211901   3.376   0.501  14.847
  360TIP3   OH211902   2.210   0.574  14.997
  360TIP3    H111903   2.276   0.621  15.053
  360TIP3    H211904   2.268   0.536  14.926
  361TIP3   OH211905   2.366   1.330  15.310
  361TIP3    H111906   2.344   1.398  15.245
  361TIP3    H211907   2.277   1.316  15.351
  362TIP3   OH211908   1.947   1.308  14.371
  362TIP3    H111909   1.889   1.350  14.306
  362TIP3    H211910   1.975   1.381  14.429
  363TIP3   OH211911   3.286   1.467  15.049
  363TIP3    H111912   3.194   1.493  15.076
  363TIP3    H211913   3.323   1.556  15.038
  364TIP3   OH211914   3.283   0.310  15.258
  364TIP3    H111915   3.199   0.350  15.229
  364TIP3    H211916   3.332   0.310  15.175
  365TIP3   OH211917   2.622   0.145  14.877
  365TIP3    H111918   2.670   0.081  14.932
  365TIP3    H211919   2.563   0.185  14.946
  366TIP3   OH211920   3.156   1.616  14.766
  366TIP3    H111921   3.160   1.549  14.695
  366TIP3    H211922   3.226   1.678  14.734
  367TIP3   OH211923   3.229   1.446  14.578
  367TIP3    H111924   3.239   1.393  14.496
  367TIP3    H211925   3.232   1.377  14.646
  368TIP3   OH211926   3.396   1.271  15.468
  368TIP3    H111927   3.402   1.203  15.397
  368TIP3    H211928   3.397   1.350  15.411
  369TIP3   OH211929   2.847   1.007  14.432
  369TIP3    H111930   2.789   1.029  14.356
  369TIP3    H211931   2.927   0.983  14.380
  370TIP3   OH211932   2.886   0.766  14.226
  370TIP3    H111933   2.945   0.843  14.221
  370TIP3    H211934   2.912   0.712  14.149
  371TIP3   OH211935   3.598   0.922  15.203
  371TIP3    H111936   3.564   1.003  15.243
  371TIP3    H211937   3.653   0.957  15.131
  372TIP3   OH211938   3.235   0.962  14.524
  372TIP3    H111939   3.155   0.953  14.579
  372TIP3    H211940   3.294   0.891  14.557
  373TIP3   OH211941   3.199   0.807  15.416
  373TIP3    H111942   3.186   0.895  15.455
  373TIP3    H211943   3.120   0.803  15.358
  374TIP3   OH211944   2.379   1.068  14.707
  374TIP3    H111945   2.329   1.045  14.625
  374TIP3    H211946   2.429   0.987  14.727
  375TIP3   OH211947   2.481   1.399  14.961
  375TIP3    H111948   2.485   1.402  14.863
  375TIP3    H211949   2.540   1.325  14.982
  376TIP3   OH211950   2.403   0.901  15.058
  376TIP3    H111951   2.444   0.914  14.969
  376TIP3    H211952   2.445   0.973  15.111
  377TIP3   OH211953   3.041   1.511  15.145
  377TIP3    H111954   3.027   1.587  15.204
  377TIP3    H211955   3.009   1.436  15.199
  378TIP3   OH211956   2.503   1.363  15.535
  378TIP3    H111957   2.433   1.421  15.575
  378TIP3    H211958   2.464   1.353  15.445
  379TIP3   OH211959   3.073   0.938  14.304
  379TIP3    H111960   3.154   0.933  14.359
  379TIP3    H211961   3.101   0.989  14.226
  380TIP3   OH211962   2.204   0.986  15.441
  380TIP3    H111963   2.207   1.039  15.523
  380TIP3    H211964   2.109   0.963  15.438
  381TIP3   OH211965   2.847   1.569  14.651
  381TIP3    H111966   2.877   1.640  14.711
  381TIP3    H211967   2.799   1.623  14.587
  382TIP3   OH211968   2.326   1.557  15.586
  382TIP3    H111969   2.327   1.583  15.491
  382TIP3    H211970   2.230   1.540  15.598
  383TIP3   OH211971   3.487   0.082  14.285
  383TIP3    H111972   3.390   0.096  14.282
  383TIP3    H211973   3.517   0.174  14.285
  384TIP3   OH211974   2.240   0.962  14.494
  384TIP3    H111975   2.228   1.038  14.432
  384TIP3    H211976   2.243   0.886  14.435
  385TIP3   OH211977   1.907   1.204  15.341
  385TIP3    H111978   1.872   1.198  15.250
  385TIP3    H211979   1.940   1.112  15.352
  386TIP3   OH211980   1.871   1.480  15.041
  386TIP3    H111981   1.954   1.453  14.998
  386TIP3    H211982   1.875   1.577  15.036
  387TIP3   OH211983   3.687   1.516  15.607
  387TIP3    H111984   3.659   1.422  15.611
  387TIP3    H211985   3.609   1.557  15.651
  388TIP3   OH211986   2.781   1.491  15.477
  388TIP3    H111987   2.807   1.561  15.540
  388TIP3    H211988   2.698   1.459  15.514
  389TIP3   OH211989   2.810   1.859  14.435
  389TIP3    H111990   2.721   1.838  14.403
  389TIP3    H211991   2.796   1.938  14.491
  390TIP3   OH211992   2.166   1.750  14.697
  390TIP3    H111993   2.211   1.744  14.785
  390TIP3    H211994   2.110   1.671  14.696
  391TIP3   OH211995   3.116   1.788  14.431
  391TIP3    H111996   3.037   1.790  14.486
  391TIP3    H211997   3.186   1.763  14.494
  392TIP3   OH211998   3.324   0.677  15.625
  392TIP3    H111999   3.289   0.725  15.547
  392TIP3    H212000   3.333   0.585  15.594
  393TIP3   OH212001   2.125   1.328  15.426
  393TIP3    H112002   2.134   1.285  15.513
  393TIP3    H212003   2.036   1.296  15.400
  394TIP3   OH212004   2.443   0.205  15.050
  394TIP3    H112005   2.362   0.183  14.999
  394TIP3    H212006   2.398   0.249  15.125
  395TIP3   OH212007   2.852   0.159  15.420
  395TIP3    H112008   2.799   0.177  15.499
  395TIP3    H212009   2.778   0.145  15.357
  396TIP3   OH212010   3.113   0.521  15.456
  396TIP3    H112011   3.065   0.503  15.540
  396TIP3    H212012   3.126   0.618  15.460
  397TIP3   OH212013   2.405   0.661  15.160
  397TIP3    H112014   2.355   0.686  15.240
  397TIP3    H212015   2.407   0.750  15.118
  398TIP3   OH212016   2.340   0.711  14.689
  398TIP3    H112017   2.248   0.694  14.663
  398TIP3    H212018   2.381   0.724  14.600
  399TIP3   OH212019   2.921   0.768  14.555
  399TIP3    H112020   2.851   0.827  14.521
  399TIP3    H212021   2.970   0.753  14.473
  400TIP3   OH212022   2.801   0.788  15.709
  400TIP3    H112023   2.774   0.694  15.722
  400TIP3    H212024   2.888   0.786  15.757
  401TIP3   OH212025   3.026   0.690  14.848
  401TIP3    H112026   3.006   0.756  14.780
  401TIP3    H212027   3.020   0.609  14.794
  402TIP3   OH212028   2.096   0.680  15.275
  402TIP3    H112029   2.145   0.702  15.356
  402TIP3    H212030   2.095   0.581  15.279
  403TIP3   OH212031   2.376   0.388  13.972
  403TIP3    H112032   2.371   0.394  14.070
  403TIP3    H212033   2.302   0.445  13.946
  404TIP3   OH212034   1.831   0.400  14.751
  404TIP3    H112035   1.902   0.420  14.815
  404TIP3    H212036   1.871   0.430  14.668
  405TIP3   OH212037   1.882   0.510  14.273
  405TIP3    H112038   1.935   0.485  14.196
  405TIP3    H212039   1.829   0.585  14.239
  406TIP3   OH212040   2.960   0.849  15.265
  406TIP3    H112041   3.003   0.773  15.219
  406TIP3    H212042   2.894   0.799  15.319
  407TIP3   OH212043   2.668   0.458  14.752
  407TIP3    H112044   2.577   0.438  14.782
  407TIP3    H212045   2.720   0.435  14.831
  408TIP3   OH212046   2.084   0.573  14.669
  408TIP3    H112047   2.034   0.617  14.597
  408TIP3    H212048   2.130   0.500  14.622
  409TIP3   OH212049   2.435   0.676  14.450
  409TIP3    H112050   2.515   0.618  14.449
  409TIP3    H212051   2.417   0.688  14.354
  410TIP3   OH212052   3.068   0.387  15.075
  410TIP3    H112053   2.990   0.365  15.128
  410TIP3    H212054   3.052   0.337  14.993
  411TIP3   OH212055   2.363   0.735  14.204
  411TIP3    H112056   2.276   0.720  14.169
  411TIP3    H212057   2.386   0.815  14.153
  412TIP3   OH212058   3.393   1.911  15.724
  412TIP3    H112059   3.428   1.955  15.644
  412TIP3    H212060   3.454   1.943  15.792
  413TIP3   OH212061   2.140   1.159  15.643
  413TIP3    H112062   2.218   1.191  15.696
  413TIP3    H212063   2.075   1.148  15.715
  414TIP3   OH212064   2.755   0.711  14.945
  414TIP3    H112065   2.813   0.661  14.885
  414TIP3    H212066   2.727   0.641  15.007
  415TIP3   OH212067   2.226   0.335  14.593
  415TIP3    H112068   2.181   0.255  14.622
  415TIP3    H212069   2.286   0.305  14.523
  416TIP3   OH212070   2.666   0.553  15.168
  416TIP3    H112071   2.580   0.601  15.166
  416TIP3    H212072   2.718   0.604  15.230
  417TIP3   OH212073   3.408   1.146  15.235
  417TIP3    H112074   3.461   1.199  15.172
  417TIP3    H212075   3.360   1.091  15.172
  418TIP3   OH212076   2.778   1.185  15.434
  418TIP3    H112077   2.826   1.186  15.518
  418TIP3    H212078   2.751   1.278  15.427
  419TIP3   OH212079   2.175   1.144  14.901
  419TIP3    H112080   2.241   1.129  14.830
  419TIP3    H212081   2.197   1.074  14.963
  420TIP3   OH212082   1.938   0.928  15.432
  420TIP3    H112083   1.935   0.914  15.530
  420TIP3    H212084   1.861   0.877  15.403
  421TIP3   OH212085   2.536   0.910  15.633
  421TIP3    H112086   2.523   0.925  15.538
  421TIP3    H212087   2.623   0.866  15.636
  422TIP3   OH212088   3.085   1.443  15.490
  422TIP3    H112089   2.999   1.466  15.451
  422TIP3    H212090   3.070   1.470  15.584
  423TIP3   OH212091   3.645   1.236  15.579
  423TIP3    H112092   3.555   1.244  15.540
  423TIP3    H212093   3.698   1.227  15.498
  424TIP3   OH212094   3.449   1.513  14.346
  424TIP3    H112095   3.448   1.456  14.424
  424TIP3    H212096   3.541   1.500  14.315
  425TIP3   OH212097   3.183   0.987  15.050
  425TIP3    H112098   3.161   0.940  15.131
  425TIP3    H212099   3.228   0.917  14.995
  426TIP3   OH212100   2.414   1.489  14.702
  426TIP3    H112101   2.439   1.573  14.658
  426TIP3    H212102   2.323   1.480  14.671
  427TIP3   OH212103   2.596   1.258  14.670
  427TIP3    H112104   2.532   1.328  14.652
  427TIP3    H212105   2.541   1.177  14.677
  428TIP3   OH212106   2.625   1.677  15.323
  428TIP3    H112107   2.687   1.740  15.284
  428TIP3    H212108   2.685   1.627  15.382
  429TIP3   OH212109   2.397   1.728  14.554
  429TIP3    H112110   2.307   1.748  14.586
  429TIP3    H212111   2.449   1.798  14.598
  430TIP3   OH212112   2.952   1.239  15.214
  430TIP3    H112113   2.900   1.213  15.293
  430TIP3    H212114   3.009   1.161  15.203
  431TIP3   OH212115   3.156   1.301  14.205
  431TIP3    H112116   3.195   1.277  14.292
  431TIP3    H212117   3.069   1.258  14.205
  432TIP3   OH212118   3.244   1.676  15.508
  432TIP3    H112119   3.177   1.612  15.475
  432TIP3    H212120   3.268   1.729  15.428
  433TIP3   OH212121   3.644   1.841  14.233
  433TIP3    H112122   3.694   1.814  14.154
  433TIP3    H212123   3.613   1.929  14.207
  434TIP3   OH212124   2.086   0.410  15.366
  434TIP3    H112125   2.015   0.432  15.428
  434TIP3    H212126   2.083   0.312  15.374
  435TIP3   OH212127   3.281   1.211  14.437
  435TIP3    H112128   3.260   1.118  14.462
  435TIP3    H212129   3.374   1.200  14.405
  436TIP3   OH212130   2.017   1.602  15.271
  436TIP3    H112131   1.943   1.541  15.255
  436TIP3    H212132   2.093   1.540  15.279
  437TIP3   OH212133   2.224   1.172  14.321
  437TIP3    H112134   2.130   1.197  14.327
  437TIP3    H212135   2.267   1.253  14.294
  438TIP3   OH212136   2.899   0.412  15.339
  438TIP3    H112137   2.983   0.438  15.382
  438TIP3    H212138   2.892   0.320  15.368
  439TIP3   OH212139   2.990   0.336  14.455
  439TIP3    H112140   3.038   0.384  14.386
  439TIP3    H212141   3.043   0.354  14.534
  440TIP3   OH212142   2.648   0.521  14.490
  440TIP3    H112143   2.743   0.538  14.488
  440TIP3    H212144   2.639   0.498  14.585
  441TIP3   OH212145   2.826   0.668  15.414
  441TIP3    H112146   2.795   0.673  15.506
  441TIP3    H212147   2.838   0.571  15.400
  442TIP3   OH212148   2.804   0.207  14.609
  442TIP3    H112149   2.781   0.282  14.666
  442TIP3    H212150   2.862   0.249  14.542
  443TIP3   OH212151   2.544   1.684  14.329
  443TIP3    H112152   2.495   1.735  14.262
  443TIP3    H212153   2.481   1.693  14.404
  444TIP3   OH212154   2.421   0.297  14.262
  444TIP3    H112155   2.486   0.353  14.307
  444TIP3    H212156   2.486   0.234  14.222
  445TIP3   OH212157   3.381   0.427  15.513
  445TIP3    H112158   3.285   0.432  15.501
  445TIP3    H212159   3.403   0.385  15.428
  446TIP3   OH212160   3.290   0.787  14.896
  446TIP3    H112161   3.223   0.717  14.908
  446TIP3    H212162   3.364   0.751  14.949
  447TIP3   OH212163   1.938   0.729  14.039
  447TIP3    H112164   1.844   0.748  14.021
  447TIP3    H212165   1.950   0.648  13.989
  448TIP3   OH212166   3.372   1.729  15.081
  448TIP3    H112167   3.364   1.799  15.013
  448TIP3    H212168   3.469   1.724  15.088
  449TIP3   OH212169   2.177   0.163  14.930
  449TIP3    H112170   2.119   0.140  14.855
  449TIP3    H212171   2.181   0.076  14.974
  450TIP3   OH212172   2.020   1.530  14.567
  450TIP3    H112173   1.933   1.546  14.606
  450TIP3    H212174   2.019   1.589  14.489
  451TIP3   OH212175   1.927   1.800  15.692
  451TIP3    H112176   2.011   1.788  15.743
  451TIP3    H212177   1.880   1.719  15.719
  452TIP3   OH212178   2.399   1.657  15.855
  452TIP3    H112179   2.488   1.620  15.869
  452TIP3    H212180   2.383   1.625  15.764
  453TIP3   OH212181   3.037   1.535  15.736
  453TIP3    H112182   3.012   1.474  15.808
  453TIP3    H212183   3.117   1.577  15.777
  454TIP3   OH212184   1.987   1.163  15.869
  454TIP3    H112185   1.994   1.069  15.889
  454TIP3    H212186   1.901   1.163  15.822
  455TIP3   OH212187   2.614   1.186  15.704
  455TIP3    H112188   2.589   1.238  15.624
  455TIP3    H212189   2.625   1.094  15.671
  456TIP3   OH212190   3.148   1.170  15.503
  456TIP3    H112191   3.243   1.197  15.500
  456TIP3    H212192   3.111   1.261  15.497
  457TIP3   OH212193   1.992   0.895  15.705
  457TIP3    H112194   2.079   0.855  15.718
  457TIP3    H212195   1.945   0.856  15.782
  458TIP3   OH212196   2.351   0.773  15.388
  458TIP3    H112197   2.310   0.856  15.425
  458TIP3    H212198   2.444   0.804  15.382
  459TIP3   OH212199   2.936   1.069  15.829
  459TIP3    H112200   2.990   1.001  15.781
  459TIP3    H212201   2.857   1.017  15.853
  460TIP3   OH212202   2.454   0.569  15.541
  460TIP3    H112203   2.467   0.493  15.481
  460TIP3    H212204   2.396   0.628  15.489
  461TIP3   OH212205   2.521   0.352  15.321
  461TIP3    H112206   2.578   0.408  15.262
  461TIP3    H212207   2.433   0.364  15.280
  462TIP3   OH212208   2.612   0.939  15.364
  462TIP3    H112209   2.704   0.969  15.364
  462TIP3    H212210   2.566   1.009  15.312
  463TIP3   OH212211   3.032   0.723  15.850
  463TIP3    H112212   3.052   0.630  15.868
  463TIP3    H212213   3.117   0.754  15.817
  464TIP3   OH212214   3.134   0.945  15.686
  464TIP3    H112215   3.149   1.023  15.627
  464TIP3    H212216   3.224   0.912  15.695
  465TIP3   OH212217   2.306   0.630  15.791
  465TIP3    H112218   2.218   0.590  15.795
  465TIP3    H212219   2.333   0.611  15.698
  466TIP3   OH212220   2.590   0.098  15.361
  466TIP3    H112221   2.562   0.193  15.355
  466TIP3    H212222   2.513   0.059  15.314
  467TIP3   OH212223   2.688   0.540  15.748
  467TIP3    H112224   2.671   0.465  15.808
  467TIP3    H212225   2.624   0.524  15.677
  468TIP3   OH212226   2.968   0.459  15.679
  468TIP3    H112227   2.878   0.441  15.712
  468TIP3    H212228   3.022   0.407  15.741
  469TIP3   OH212229   3.132   0.312  15.863
  469TIP3    H112230   3.119   0.217  15.838
  469TIP3    H212231   3.142   0.311  15.959
  470TIP3   OH212232   2.098   0.430  15.757
  470TIP3    H112233   2.092   0.357  15.692
  470TIP3    H212234   2.097   0.382  15.842
  471TIP3   OH212235   2.648   0.137  15.620
  471TIP3    H112236   2.589   0.101  15.689
  471TIP3    H212237   2.609   0.102  15.538
  472TIP3   OH212238   2.655   0.290  15.873
  472TIP3    H112239   2.679   0.204  15.835
  472TIP3    H212240   2.558   0.286  15.860
  473TIP3   OH212241   1.785   1.862  14.610
  473TIP3    H112242   1.700   1.819  14.627
  473TIP3    H212243   1.841   1.822  14.680
  474TIP3   OH212244   1.866   1.710  14.829
  474TIP3    H112245   1.782   1.674  14.861
  474TIP3    H212246   1.897   1.764  14.904
  475TIP3   OH212247   3.647   1.771  15.075
  475TIP3    H112248   3.658   1.788  15.171
  475TIP3    H212249   3.730   1.807  15.041
  476TIP3   OH212250   3.605   1.711  15.381
  476TIP3    H112251   3.559   1.633  15.344
  476TIP3    H212252   3.643   1.675  15.462
  477TIP3   OH212253   3.485   1.298  15.910
  477TIP3    H112254   3.392   1.281  15.886
  477TIP3    H212255   3.484   1.382  15.957
  478TIP3   OH212256   3.542   1.150  14.391
  478TIP3    H112257   3.627   1.195  14.403
  478TIP3    H212258   3.538   1.089  14.469
  479TIP3   OH212259   3.591   0.990  14.603
  479TIP3    H112260   3.536   0.911  14.624
  479TIP3    H212261   3.662   0.979  14.670
  480TIP3   OH212262   3.552   1.218  15.027
  480TIP3    H112263   3.626   1.154  15.027
  480TIP3    H212264   3.601   1.302  15.025
  481TIP3   OH212265   3.442   1.499  15.295
  481TIP3    H112266   3.370   1.563  15.310
  481TIP3    H212267   3.411   1.459  15.211
  482TIP3   OH212268   3.660   0.975  14.207
  482TIP3    H112269   3.597   0.914  14.247
  482TIP3    H212270   3.640   1.057  14.256
  483TIP3   OH212271   3.410   0.781  14.651
  483TIP3    H112272   3.387   0.691  14.626
  483TIP3    H212273   3.374   0.791  14.742
  484TIP3   OH212274   1.896   1.051  15.072
  484TIP3    H112275   1.888   1.013  14.982
  484TIP3    H212276   1.983   1.013  15.099
  485TIP3   OH212277   3.486   0.967  15.568
  485TIP3    H112278   3.526   0.885  15.605
  485TIP3    H212279   3.562   1.028  15.568
  486TIP3   OH212280   3.597   0.735  15.648
  486TIP3    H112281   3.530   0.666  15.627
  486TIP3    H212282   3.681   0.685  15.639
  487TIP3   OH212283   3.473   0.645  15.046
  487TIP3    H112284   3.570   0.646  15.034
  487TIP3    H212285   3.471   0.669  15.141
  488TIP3   OH212286   3.432   0.706  15.321
  488TIP3    H112287   3.337   0.723  15.342
  488TIP3    H212288   3.470   0.795  15.335
  489TIP3   OH212289   1.864   0.508  15.619
  489TIP3    H112290   1.952   0.505  15.661
  489TIP3    H212291   1.818   0.447  15.680
  490TIP3   OH212292   3.731   0.089  15.870
  490TIP3    H112293   3.671   0.027  15.826
  490TIP3    H212294   3.754   0.148  15.797
  491TIP3   OH212295   3.383   0.308  14.523
  491TIP3    H112296   3.436   0.255  14.585
  491TIP3    H212297   3.331   0.243  14.473
  492TIP3   OH212298   1.996   0.354  15.007
  492TIP3    H112299   2.060   0.284  14.984
  492TIP3    H212300   2.047   0.435  14.988
  493TIP3   OH212301   1.851   0.666  15.065
  493TIP3    H112302   1.902   0.685  14.983
  493TIP3    H212303   1.918   0.688  15.131
  494TIP3   OH212304   3.635   0.328  15.744
  494TIP3    H112305   3.541   0.353  15.760
  494TIP3    H212306   3.628   0.285  15.657
  495TIP3   OH212307   3.662   0.268  14.142
  495TIP3    H112308   3.641   0.195  14.081
  495TIP3    H212309   3.747   0.306  14.112
  496TIP3   OH212310   1.851   0.318  14.469
  496TIP3    H112311   1.754   0.320  14.470
  496TIP3    H212312   1.867   0.381  14.395
  497TIP3   OH212313   3.316   1.790  14.640
  497TIP3    H112314   3.385   1.755  14.578
  497TIP3    H212315   3.371   1.841  14.702
  498TIP3   OH212316   1.893   0.197  15.290
  498TIP3    H112317   1.815   0.194  15.346
  498TIP3    H212318   1.855   0.219  15.204
  499TIP3   OH212319   2.073   1.499  15.669
  499TIP3    H112320   1.977   1.507  15.655
  499TIP3    H212321   2.079   1.438  15.744
  500TIP3   OH212322   2.367   1.621  15.330
  500TIP3    H112323   2.357   1.718  15.312
  500TIP3    H212324   2.465   1.619  15.341
  501TIP3   OH212325   2.760   1.765  15.577
  501TIP3    H112326   2.759   1.716  15.663
  501TIP3    H212327   2.855   1.793  15.582
  502TIP3   OH212328   3.006   1.857  15.609
  502TIP3    H112329   3.090   1.839  15.565
  502TIP3    H212330   3.033   1.867  15.703
  503TIP3   OH212331   3.584   0.152  15.497
  503TIP3    H112332   3.500   0.157  15.450
  503TIP3    H212333   3.587   0.059  15.525
  504TIP3   OH212334   2.078   1.963  15.331
  504TIP3    H112335   2.030   2.031  15.279
  504TIP3    H212336   2.093   2.014  15.413
  505TIP3   OH212337   2.313   1.865  15.237
  505TIP3    H112338   2.219   1.885  15.248
  505TIP3    H212339   2.342   1.929  15.169
  506TIP3   OH212340   2.801   1.863  15.170
  506TIP3    H112341   2.727   1.900  15.119
  506TIP3    H212342   2.811   1.931  15.241
  507TIP3   OH212343   3.009   1.725  15.308
  507TIP3    H112344   2.958   1.777  15.244
  507TIP3    H212345   3.081   1.785  15.329
  508TIP3   OH212346   3.289   1.847  15.304
  508TIP3    H112347   3.301   1.941  15.286
  508TIP3    H212348   3.312   1.811  15.215
  509TIP3   OH212349   2.055   1.785  15.080
  509TIP3    H112350   2.050   1.719  15.152
  509TIP3    H212351   2.136   1.754  15.033
  510TIP3   OH212352   2.267   1.710  14.937
  510TIP3    H112353   2.238   1.618  14.947
  510TIP3    H212354   2.360   1.702  14.967
  511TIP3   OH212355   2.517   1.690  15.033
  511TIP3    H112356   2.551   1.603  15.006
  511TIP3    H212357   2.520   1.683  15.129
  512TIP3   OH212358   2.823   0.317  14.923
  512TIP3    H112359   2.741   0.266  14.910
  512TIP3    H212360   2.886   0.246  14.902
  513TIP3   OH212361   3.361   0.076  14.891
  513TIP3    H112362   3.434   0.137  14.872
  513TIP3    H212363   3.323   0.069  14.801
  514TIP3   OH212364   3.542   0.198  14.728
  514TIP3    H112365   3.588   0.132  14.675
  514TIP3    H212366   3.603   0.276  14.721
  515TIP3   OH212367   2.057   0.104  14.668
  515TIP3    H112368   2.007   0.124  14.587
  515TIP3    H212369   2.112   0.027  14.642
  516TIP3   OH212370   2.530   0.227  14.631
  516TIP3    H112371   2.610   0.222  14.576
  516TIP3    H212372   2.570   0.212  14.719
  517TIP3   OH212373   3.029   0.122  14.861
  517TIP3    H112374   3.093   0.171  14.808
  517TIP3    H212375   3.066   0.033  14.853
  518TIP3   OH212376   3.236   0.147  14.346
  518TIP3    H112377   3.204   0.188  14.261
  518TIP3    H212378   3.156   0.096  14.367
  519TIP3   OH212379   1.977   1.709  14.353
  519TIP3    H112380   2.038   1.700  14.279
  519TIP3    H212381   1.981   1.804  14.366
  520TIP3   OH212382   3.511   1.744  14.465
  520TIP3    H112383   3.479   1.673  14.405
  520TIP3    H212384   3.572   1.789  14.402
  521TIP3   OH212385   2.052   0.200  15.604
  521TIP3    H112386   1.999   0.120  15.614
  521TIP3    H212387   2.135   0.168  15.646
  522TIP3   OH212388   2.242   0.069  15.769
  522TIP3    H112389   2.316   0.129  15.787
  522TIP3    H212390   2.271  -0.012  15.815
  523TIP3   OH212391   2.098   1.788  14.054
  523TIP3    H112392   2.173   1.817  14.110
  523TIP3    H212393   2.123   1.841  13.974
  524TIP3   OH212394   3.129   5.236  15.785
  524TIP3    H112395   3.061   5.201  15.846
  524TIP3    H212396   3.182   5.156  15.768
  525TIP3   OH212397   3.464   1.650  15.668
  525TIP3    H112398   3.376   1.642  15.626
  525TIP3    H212399   3.466   1.747  15.686
  526TIP3   OH212400   4.835   1.062  14.696
  526TIP3    H112401   4.820   1.155  14.719
  526TIP3    H212402   4.778   1.044  14.619
  527TIP3   OH212403   4.749   0.948  15.067
  527TIP3    H112404   4.775   0.893  15.145
  527TIP3    H212405   4.721   0.880  15.002
  528TIP3   OH212406   3.957   0.903  15.158
  528TIP3    H112407   3.947   0.820  15.209
  528TIP3    H212408   4.030   0.946  15.205
  529TIP3   OH212409   4.106   1.396  14.982
  529TIP3    H112410   4.075   1.307  14.956
  529TIP3    H212411   4.201   1.377  14.982
  530TIP3   OH212412   3.769   0.713  14.529
  530TIP3    H112413   3.775   0.809  14.522
  530TIP3    H212414   3.678   0.700  14.561
  531TIP3   OH212415   3.764   0.940  14.799
  531TIP3    H112416   3.801   0.851  14.821
  531TIP3    H212417   3.846   0.991  14.791
  532TIP3   OH212418   4.838   1.763  14.882
  532TIP3    H112419   4.897   1.702  14.833
  532TIP3    H212420   4.832   1.718  14.968
  533TIP3   OH212421   4.604   1.217  15.115
  533TIP3    H112422   4.623   1.165  15.036
  533TIP3    H212423   4.689   1.211  15.161
  534TIP3   OH212424   4.886   0.610  15.077
  534TIP3    H112425   4.983   0.621  15.091
  534TIP3    H212426   4.882   0.623  14.980
  535TIP3   OH212427   4.274   0.432  14.837
  535TIP3    H112428   4.274   0.510  14.777
  535TIP3    H212429   4.225   0.368  14.781
  536TIP3   OH212430   4.977   0.512  14.690
  536TIP3    H112431   5.036   0.449  14.736
  536TIP3    H212432   5.039   0.581  14.657
  537TIP3   OH212433   3.899   0.724  14.873
  537TIP3    H112434   3.973   0.710  14.934
  537TIP3    H212435   3.933   0.679  14.793
  538TIP3   OH212436   4.384   0.863  14.817
  538TIP3    H112437   4.460   0.818  14.859
  538TIP3    H212438   4.342   0.785  14.773
  539TIP3   OH212439   4.151   0.337  15.200
  539TIP3    H112440   4.115   0.372  15.116
  539TIP3    H212441   4.075   0.356  15.260
  540TIP3   OH212442   4.819   1.325  14.566
  540TIP3    H112443   4.754   1.299  14.497
  540TIP3    H212444   4.782   1.409  14.600
  541TIP3   OH212445   4.351   1.123  15.205
  541TIP3    H112446   4.297   1.194  15.248
  541TIP3    H212447   4.429   1.170  15.171
  542TIP3   OH212448   4.098   0.560  15.012
  542TIP3    H112449   4.164   0.612  15.066
  542TIP3    H212450   4.158   0.517  14.946
  543TIP3   OH212451   4.234   1.351  15.308
  543TIP3    H112452   4.229   1.446  15.288
  543TIP3    H212453   4.140   1.335  15.333
  544TIP3   OH212454   4.514   0.143  14.895
  544TIP3    H112455   4.558   0.090  14.964
  544TIP3    H212456   4.449   0.190  14.954
  545TIP3   OH212457   5.007   1.617  14.718
  545TIP3    H112458   5.033   1.529  14.750
  545TIP3    H212459   5.080   1.671  14.757
  546TIP3   OH212460   4.728   0.982  14.434
  546TIP3    H112461   4.732   1.077  14.418
  546TIP3    H212462   4.695   0.954  14.345
  547TIP3   OH212463   4.719   0.891  14.174
  547TIP3    H112464   4.816   0.899  14.182
  547TIP3    H212465   4.709   0.820  14.109
  548TIP3   OH212466   5.025   0.979  14.534
  548TIP3    H112467   4.962   1.012  14.603
  548TIP3    H212468   5.110   1.011  14.567
  549TIP3   OH212469   5.041   0.745  15.415
  549TIP3    H112470   4.992   0.758  15.497
  549TIP3    H212471   4.972   0.767  15.348
  550TIP3   OH212472   4.240   1.050  14.695
  550TIP3    H112473   4.223   1.005  14.609
  550TIP3    H212474   4.292   0.980  14.741
  551TIP3   OH212475   4.389   1.370  14.950
  551TIP3    H112476   4.419   1.356  14.859
  551TIP3    H212477   4.458   1.330  15.005
  552TIP3   OH212478   4.276   0.914  15.064
  552TIP3    H112479   4.310   0.926  14.973
  552TIP3    H212480   4.308   0.995  15.109
  553TIP3   OH212481   4.946   1.515  15.122
  553TIP3    H112482   4.935   1.574  15.201
  553TIP3    H212483   4.967   1.430  15.162
  554TIP3   OH212484   4.420   1.358  15.505
  554TIP3    H112485   4.358   1.415  15.558
  554TIP3    H212486   4.368   1.353  15.422
  555TIP3   OH212487   4.987   0.918  14.259
  555TIP3    H112488   4.996   0.942  14.355
  555TIP3    H212489   5.023   0.996  14.214
  556TIP3   OH212490   4.072   0.996  15.436
  556TIP3    H112491   4.068   1.049  15.518
  556TIP3    H212492   3.981   0.959  15.436
  557TIP3   OH212493   4.712   1.573  14.630
  557TIP3    H112494   4.794   1.605  14.669
  557TIP3    H212495   4.650   1.631  14.676
  558TIP3   OH212496   4.262   1.542  15.626
  558TIP3    H112497   4.247   1.591  15.542
  558TIP3    H212498   4.168   1.518  15.644
  559TIP3   OH212499   4.197   0.898  14.465
  559TIP3    H112500   4.206   0.959  14.390
  559TIP3    H212501   4.189   0.814  14.417
  560TIP3   OH212502   3.774   1.189  15.345
  560TIP3    H112503   3.749   1.185  15.251
  560TIP3    H212504   3.812   1.099  15.359
  561TIP3   OH212505   3.764   1.474  15.041
  561TIP3    H112506   3.857   1.451  15.046
  561TIP3    H212507   3.766   1.565  15.071
  562TIP3   OH212508   4.680   1.467  15.467
  562TIP3    H112509   4.691   1.548  15.520
  562TIP3    H212510   4.590   1.439  15.488
  563TIP3   OH212511   4.710   1.893  14.410
  563TIP3    H112512   4.804   1.871  14.425
  563TIP3    H212513   4.694   1.954  14.484
  564TIP3   OH212514   4.069   1.770  14.651
  564TIP3    H112515   4.078   1.727  14.739
  564TIP3    H212516   4.000   1.712  14.610
  565TIP3   OH212517   4.933   1.746  14.487
  565TIP3    H112518   4.861   1.682  14.473
  565TIP3    H212519   4.974   1.712  14.569
  566TIP3   OH212520   3.992   1.337  15.416
  566TIP3    H112521   4.005   1.305  15.507
  566TIP3    H212522   3.911   1.286  15.392
  567TIP3   OH212523   4.324   0.190  15.068
  567TIP3    H112524   4.248   0.179  15.008
  567TIP3    H212525   4.276   0.241  15.136
  568TIP3   OH212526   4.718   0.114  15.451
  568TIP3    H112527   4.654   0.133  15.523
  568TIP3    H212528   4.657   0.106  15.376
  569TIP3   OH212529   5.095   0.483  15.439
  569TIP3    H112530   5.031   0.483  15.512
  569TIP3    H212531   5.092   0.577  15.413
  570TIP3   OH212532   4.728   0.350  14.161
  570TIP3    H112533   4.655   0.346  14.226
  570TIP3    H212534   4.690   0.315  14.078
  571TIP3   OH212535   4.289   0.671  15.162
  571TIP3    H112536   4.274   0.697  15.255
  571TIP3    H212537   4.281   0.761  15.121
  572TIP3   OH212538   4.251   0.655  14.696
  572TIP3    H112539   4.155   0.649  14.672
  572TIP3    H212540   4.294   0.647  14.607
  573TIP3   OH212541   4.829   0.741  14.518
  573TIP3    H112542   4.803   0.830  14.486
  573TIP3    H212543   4.896   0.712  14.453
  574TIP3   OH212544   4.739   0.754  15.674
  574TIP3    H112545   4.683   0.677  15.696
  574TIP3    H212546   4.811   0.741  15.739
  575TIP3   OH212547   4.872   0.718  14.822
  575TIP3    H112548   4.882   0.791  14.759
  575TIP3    H212549   4.899   0.642  14.766
  576TIP3   OH212550   3.967   0.671  15.295
  576TIP3    H112551   4.037   0.697  15.357
  576TIP3    H212552   3.982   0.575  15.290
  577TIP3   OH212553   3.700   0.421  14.732
  577TIP3    H112554   3.760   0.409  14.809
  577TIP3    H212555   3.751   0.389  14.656
  578TIP3   OH212556   3.777   0.534  14.294
  578TIP3    H112557   3.869   0.526  14.322
  578TIP3    H212558   3.738   0.577  14.372
  579TIP3   OH212559   4.819   0.783  15.275
  579TIP3    H112560   4.843   0.717  15.205
  579TIP3    H212561   4.756   0.731  15.330
  580TIP3   OH212562   4.543   0.466  14.764
  580TIP3    H112563   4.455   0.444  14.801
  580TIP3    H212564   4.598   0.453  14.843
  581TIP3   OH212565   3.981   0.602  14.646
  581TIP3    H112566   3.910   0.631  14.585
  581TIP3    H212567   4.012   0.518  14.609
  582TIP3   OH212568   4.344   0.587  14.448
  582TIP3    H112569   4.438   0.566  14.433
  582TIP3    H212570   4.322   0.629  14.363
  583TIP3   OH212571   5.012   0.279  15.093
  583TIP3    H112572   4.928   0.313  15.128
  583TIP3    H212573   4.986   0.242  15.007
  584TIP3   OH212574   4.005   1.176  15.642
  584TIP3    H112575   4.091   1.196  15.688
  584TIP3    H212576   3.953   1.140  15.715
  585TIP3   OH212577   4.626   0.731  14.927
  585TIP3    H112578   4.711   0.701  14.886
  585TIP3    H212579   4.619   0.669  15.001
  586TIP3   OH212580   4.119   0.337  14.643
  586TIP3    H112581   4.063   0.259  14.662
  586TIP3    H212582   4.157   0.317  14.556
  587TIP3   OH212583   4.537   0.555  15.148
  587TIP3    H112584   4.448   0.598  15.153
  587TIP3    H212585   4.581   0.583  15.230
  588TIP3   OH212586   4.618   1.233  14.407
  588TIP3    H112587   4.578   1.166  14.348
  588TIP3    H212588   4.565   1.220  14.489
  589TIP3   OH212589   4.958   0.466  14.230
  589TIP3    H112590   4.893   0.416  14.174
  589TIP3    H212591   4.956   0.552  14.189
  590TIP3   OH212592   4.679   1.160  15.435
  590TIP3    H112593   4.671   1.154  15.531
  590TIP3    H212594   4.664   1.255  15.421
  591TIP3   OH212595   5.077   0.680  14.355
  591TIP3    H112596   5.118   0.613  14.298
  591TIP3    H212597   5.070   0.757  14.295
  592TIP3   OH212598   4.084   1.128  14.917
  592TIP3    H112599   4.139   1.107  14.838
  592TIP3    H212600   4.096   1.049  14.972
  593TIP3   OH212601   3.816   0.934  15.441
  593TIP3    H112602   3.816   0.914  15.538
  593TIP3    H212603   3.742   0.879  15.410
  594TIP3   OH212604   4.503   0.915  15.620
  594TIP3    H112605   4.499   0.938  15.524
  594TIP3    H212606   4.585   0.861  15.620
  595TIP3   OH212607   5.003   1.482  15.476
  595TIP3    H112608   4.924   1.471  15.424
  595TIP3    H212609   4.966   1.519  15.559
  596TIP3   OH212610   5.033   1.015  15.114
  596TIP3    H112611   4.983   0.985  15.038
  596TIP3    H212612   5.111   1.061  15.075
  597TIP3   OH212613   4.283   1.471  14.677
  597TIP3    H112614   4.302   1.566  14.689
  597TIP3    H212615   4.187   1.476  14.663
  598TIP3   OH212616   4.451   1.217  14.621
  598TIP3    H112617   4.389   1.284  14.653
  598TIP3    H212618   4.410   1.136  14.659
  599TIP3   OH212619   4.527   1.648  15.318
  599TIP3    H112620   4.585   1.715  15.277
  599TIP3    H212621   4.597   1.589  15.354
  600TIP3   OH212622   4.322   1.763  14.569
  600TIP3    H112623   4.230   1.780  14.600
  600TIP3    H212624   4.366   1.845  14.602
  601TIP3   OH212625   4.877   1.198  15.249
  601TIP3    H112626   4.827   1.154  15.320
  601TIP3    H212627   4.908   1.124  15.193
  602TIP3   OH212628   5.040   1.323  14.196
  602TIP3    H112629   4.990   1.339  14.276
  602TIP3    H212630   4.971   1.327  14.127
  603TIP3   OH212631   3.944   0.409  15.355
  603TIP3    H112632   3.864   0.463  15.371
  603TIP3    H212633   3.907   0.317  15.364
  604TIP3   OH212634   3.933   1.616  15.243
  604TIP3    H112635   3.989   1.541  15.268
  604TIP3    H212636   3.894   1.640  15.329
  605TIP3   OH212637   4.760   0.375  15.376
  605TIP3    H112638   4.856   0.381  15.390
  605TIP3    H212639   4.745   0.281  15.397
  606TIP3   OH212640   4.896   0.355  14.477
  606TIP3    H112641   4.897   0.393  14.386
  606TIP3    H212642   4.896   0.435  14.533
  607TIP3   OH212643   4.652   0.529  14.524
  607TIP3    H112644   4.713   0.605  14.531
  607TIP3    H212645   4.613   0.530  14.614
  608TIP3   OH212646   4.670   0.633  15.437
  608TIP3    H112647   4.706   0.660  15.524
  608TIP3    H212648   4.696   0.539  15.436
  609TIP3   OH212649   4.707   0.224  14.617
  609TIP3    H112650   4.693   0.287  14.690
  609TIP3    H212651   4.769   0.277  14.562
  610TIP3   OH212652   4.249   0.333  14.245
  610TIP3    H112653   4.249   0.408  14.180
  610TIP3    H212654   4.312   0.373  14.308
  611TIP3   OH212655   4.042   0.148  14.940
  611TIP3    H112656   4.003   0.118  14.856
  611TIP3    H212657   4.037   0.067  14.996
  612TIP3   OH212658   3.883   1.613  14.554
  612TIP3    H112659   3.799   1.582  14.590
  612TIP3    H212660   3.864   1.596  14.458
  613TIP3   OH212661   3.797   1.805  15.694
  613TIP3    H112662   3.870   1.794  15.760
  613TIP3    H212663   3.781   1.711  15.673
  614TIP3   OH212664   4.291   1.647  15.878
  614TIP3    H112665   4.371   1.600  15.909
  614TIP3    H212666   4.286   1.612  15.788
  615TIP3   OH212667   4.958   1.557  15.725
  615TIP3    H112668   4.924   1.469  15.756
  615TIP3    H212669   5.053   1.546  15.743
  616TIP3   OH212670   3.834   1.206  15.872
  616TIP3    H112671   3.783   1.124  15.869
  616TIP3    H212672   3.795   1.247  15.794
  617TIP3   OH212673   4.499   1.182  15.698
  617TIP3    H112674   4.480   1.232  15.615
  617TIP3    H212675   4.504   1.087  15.669
  618TIP3   OH212676   4.999   1.165  15.564
  618TIP3    H112677   5.073   1.186  15.504
  618TIP3    H212678   4.925   1.207  15.517
  619TIP3   OH212679   3.874   0.896  15.707
  619TIP3    H112680   3.956   0.848  15.727
  619TIP3    H212681   3.819   0.861  15.780
  620TIP3   OH212682   4.234   0.795  15.386
  620TIP3    H112683   4.171   0.870  15.397
  620TIP3    H212684   4.319   0.844  15.389
  621TIP3   OH212685   4.827   1.050  15.828
  621TIP3    H112686   4.885   1.008  15.762
  621TIP3    H212687   4.805   0.979  15.891
  622TIP3   OH212688   4.348   0.575  15.557
  622TIP3    H112689   4.368   0.501  15.498
  622TIP3    H212690   4.354   0.650  15.497
  623TIP3   OH212691   4.397   0.359  15.335
  623TIP3    H112692   4.436   0.412  15.263
  623TIP3    H212693   4.306   0.343  15.303
  624TIP3   OH212694   4.480   0.947  15.357
  624TIP3    H112695   4.568   0.986  15.337
  624TIP3    H212696   4.423   1.008  15.304
  625TIP3   OH212697   4.960   0.676  15.880
  625TIP3    H112698   5.038   0.626  15.849
  625TIP3    H212699   5.001   0.745  15.933
  626TIP3   OH212700   4.165   0.677  15.831
  626TIP3    H112701   4.098   0.610  15.802
  626TIP3    H212702   4.211   0.703  15.748
  627TIP3   OH212703   4.445   0.088  15.359
  627TIP3    H112704   4.430   0.184  15.362
  627TIP3    H212705   4.355   0.051  15.340
  628TIP3   OH212706   4.585   0.506  15.753
  628TIP3    H112707   4.553   0.450  15.827
  628TIP3    H212708   4.504   0.508  15.699
  629TIP3   OH212709   4.849   0.459  15.652
  629TIP3    H112710   4.762   0.436  15.691
  629TIP3    H212711   4.912   0.422  15.717
  630TIP3   OH212712   5.031   0.350  15.840
  630TIP3    H112713   5.037   0.253  15.820
  630TIP3    H212714   5.020   0.350  15.936
  631TIP3   OH212715   3.987   0.455  15.766
  631TIP3    H112716   3.961   0.391  15.696
  631TIP3    H212717   3.980   0.400  15.847
  632TIP3   OH212718   4.513   0.123  15.639
  632TIP3    H112719   4.480   0.068  15.713
  632TIP3    H212720   4.460   0.094  15.563
  633TIP3   OH212721   4.526   0.267  15.917
  633TIP3    H112722   4.553   0.196  15.857
  633TIP3    H212723   4.431   0.274  15.893
  634TIP3   OH212724   3.665   1.916  14.640
  634TIP3    H112725   3.608   1.860  14.584
  634TIP3    H212726   3.708   1.846  14.695
  635TIP3   OH212727   3.770   1.733  14.810
  635TIP3    H112728   3.706   1.688  14.866
  635TIP3    H212729   3.839   1.759  14.875
  636TIP3   OH212730   3.774   1.064  15.051
  636TIP3    H112731   3.758   1.011  14.969
  636TIP3    H212732   3.855   1.018  15.083
  637TIP3   OH212733   3.754   0.519  15.611
  637TIP3    H112734   3.845   0.529  15.643
  637TIP3    H212735   3.717   0.457  15.677
  638TIP3   OH212736   3.829   0.350  14.964
  638TIP3    H112737   3.888   0.276  14.983
  638TIP3    H212738   3.888   0.426  14.977
  639TIP3   OH212739   3.741   0.650  15.074
  639TIP3    H112740   3.788   0.649  14.988
  639TIP3    H212741   3.813   0.666  15.136
  640TIP3   OH212742   3.734   0.303  14.479
  640TIP3    H112743   3.654   0.349  14.449
  640TIP3    H212744   3.772   0.274  14.395
  641TIP3   OH212745   3.777   0.196  15.283
  641TIP3    H112746   3.730   0.173  15.365
  641TIP3    H212747   3.709   0.240  15.230
  642TIP3   OH212748   3.980   1.488  15.657
  642TIP3    H112749   3.893   1.475  15.616
  642TIP3    H212750   3.972   1.428  15.731
  643TIP3   OH212751   4.256   1.634  15.357
  643TIP3    H112752   4.247   1.723  15.316
  643TIP3    H212753   4.354   1.623  15.348
  644TIP3   OH212754   4.674   1.770  15.592
  644TIP3    H112755   4.664   1.716  15.673
  644TIP3    H212756   4.767   1.797  15.596
  645TIP3   OH212757   4.934   1.872  15.604
  645TIP3    H112758   4.995   1.797  15.596
  645TIP3    H212759   4.950   1.900  15.696
  646TIP3   OH212760   3.983   1.955  15.324
  646TIP3    H112761   3.911   2.011  15.289
  646TIP3    H212762   3.966   1.961  15.419
  647TIP3   OH212763   4.207   1.864  15.227
  647TIP3    H112764   4.116   1.880  15.261
  647TIP3    H212765   4.217   1.940  15.166
  648TIP3   OH212766   4.701   1.834  15.168
  648TIP3    H112767   4.653   1.890  15.106
  648TIP3    H212768   4.710   1.894  15.245
  649TIP3   OH212769   4.890   1.704  15.312
  649TIP3    H112770   4.845   1.747  15.236
  649TIP3    H212771   4.929   1.779  15.358
  650TIP3   OH212772   3.929   1.784  15.028
  650TIP3    H112773   3.918   1.744  15.117
  650TIP3    H212774   4.012   1.740  14.999
  651TIP3   OH212775   4.149   1.667  14.885
  651TIP3    H112776   4.131   1.575  14.916
  651TIP3    H212777   4.238   1.680  14.925
  652TIP3   OH212778   4.382   1.672  15.010
  652TIP3    H112779   4.406   1.578  15.003
  652TIP3    H212780   4.401   1.689  15.104
  653TIP3   OH212781   4.721   0.318  14.913
  653TIP3    H112782   4.648   0.255  14.895
  653TIP3    H212783   4.795   0.255  14.928
  654TIP3   OH212784   3.942   0.131  14.655
  654TIP3    H112785   3.886   0.154  14.579
  654TIP3    H212786   3.952   0.035  14.642
  655TIP3   OH212787   3.856   0.139  14.274
  655TIP3    H112788   3.911   0.158  14.195
  655TIP3    H212789   3.767   0.157  14.240
  656TIP3   OH212790   4.425   0.200  14.650
  656TIP3    H112791   4.516   0.213  14.616
  656TIP3    H212792   4.449   0.180  14.743
  657TIP3   OH212793   4.906   0.121  14.882
  657TIP3    H112794   4.976   0.165  14.829
  657TIP3    H212795   4.895   0.040  14.830
  658TIP3   OH212796   3.995   0.276  14.072
  658TIP3    H112797   4.042   0.234  13.998
  658TIP3    H212798   4.069   0.317  14.120
  659TIP3   OH212799   4.512   0.378  14.353
  659TIP3    H112800   4.519   0.296  14.403
  659TIP3    H212801   4.576   0.432  14.406
  660TIP3   OH212802   3.915   0.169  15.630
  660TIP3    H112803   3.895   0.086  15.586
  660TIP3    H212804   4.009   0.154  15.655
  661TIP3   OH212805   4.154   0.082  15.755
  661TIP3    H112806   4.241   0.122  15.775
  661TIP3    H212807   4.149   0.009  15.818
  662TIP3   OH212808   5.028   0.079  15.816
  662TIP3    H112809   4.968   0.022  15.867
  662TIP3    H212810   5.113   0.033  15.818
  663TIP3   OH212811   1.158   2.925  14.659
  663TIP3    H112812   1.155   3.017  14.692
  663TIP3    H212813   1.093   2.933  14.587
  664TIP3   OH212814   1.034   2.788  14.992
  664TIP3    H112815   1.019   2.747  15.080
  664TIP3    H212816   0.951   2.766  14.947
  665TIP3   OH212817   0.240   2.835  15.168
  665TIP3    H112818   0.230   2.742  15.196
  665TIP3    H212819   0.318   2.865  15.217
  666TIP3   OH212820   1.325   3.139  14.892
  666TIP3    H112821   1.323   3.058  14.947
  666TIP3    H212822   1.349   3.209  14.956
  667TIP3   OH212823   0.287   3.260  14.972
  667TIP3    H112824   0.281   3.164  14.947
  667TIP3    H212825   0.377   3.253  15.009
  668TIP3   OH212826  -0.035   2.532  14.628
  668TIP3    H112827  -0.049   2.617  14.674
  668TIP3    H212828  -0.064   2.561  14.539
  669TIP3   OH212829   0.082   2.795  14.690
  669TIP3    H112830   0.114   2.737  14.762
  669TIP3    H212831   0.117   2.880  14.718
  670TIP3   OH212832   1.087   3.684  14.853
  670TIP3    H112833   1.138   3.617  14.801
  670TIP3    H212834   1.051   3.627  14.922
  671TIP3   OH212835   0.818   3.062  15.104
  671TIP3    H112836   0.862   3.031  15.024
  671TIP3    H212837   0.896   3.100  15.150
  672TIP3   OH212838   1.692   2.216  15.086
  672TIP3    H112839   1.699   2.285  15.155
  672TIP3    H212840   1.770   2.240  15.034
  673TIP3   OH212841   1.190   2.541  15.118
  673TIP3    H112842   1.199   2.445  15.133
  673TIP3    H212843   1.181   2.540  15.020
  674TIP3   OH212844   0.506   2.316  14.779
  674TIP3    H112845   0.491   2.406  14.745
  674TIP3    H212846   0.435   2.267  14.734
  675TIP3   OH212847   1.176   2.329  14.708
  675TIP3    H112848   1.239   2.293  14.774
  675TIP3    H212849   1.240   2.371  14.649
  676TIP3   OH212850   0.204   2.619  14.854
  676TIP3    H112851   0.192   2.551  14.923
  676TIP3    H212852   0.227   2.563  14.777
  677TIP3   OH212853   0.600   2.755  14.801
  677TIP3    H112854   0.678   2.709  14.837
  677TIP3    H212855   0.565   2.683  14.744
  678TIP3   OH212856   1.708   2.360  15.354
  678TIP3    H112857   1.677   2.451  15.332
  678TIP3    H212858   1.748   2.373  15.442
  679TIP3   OH212859   0.399   2.232  15.208
  679TIP3    H112860   0.369   2.292  15.136
  679TIP3    H212861   0.319   2.230  15.264
  680TIP3   OH212862   1.056   3.182  14.566
  680TIP3    H112863   1.069   3.199  14.471
  680TIP3    H212864   1.004   3.260  14.593
  681TIP3   OH212865   0.584   2.992  15.230
  681TIP3    H112866   0.527   3.066  15.263
  681TIP3    H212867   0.658   3.041  15.187
  682TIP3   OH212868   1.384   2.264  14.866
  682TIP3    H112869   1.343   2.240  14.951
  682TIP3    H212870   1.478   2.268  14.885
  683TIP3   OH212871   0.332   2.428  15.019
  683TIP3    H112872   0.380   2.503  15.061
  683TIP3    H212873   0.396   2.402  14.950
  684TIP3   OH212874   0.446   3.217  15.296
  684TIP3    H112875   0.419   3.306  15.267
  684TIP3    H212876   0.367   3.200  15.351
  685TIP3   OH212877   0.039   3.102  14.447
  685TIP3    H112878   0.065   3.147  14.364
  685TIP3    H212879   0.068   3.168  14.511
  686TIP3   OH212880   1.404   3.357  15.078
  686TIP3    H112881   1.310   3.362  15.105
  686TIP3    H212882   1.404   3.430  15.015
  687TIP3   OH212883   1.424   2.207  15.225
  687TIP3    H112884   1.356   2.260  15.180
  687TIP3    H212885   1.498   2.215  15.162
  688TIP3   OH212886   0.722   1.977  14.962
  688TIP3    H112887   0.699   1.884  14.954
  688TIP3    H212888   0.632   2.016  14.978
  689TIP3   OH212889   1.258   3.519  14.705
  689TIP3    H112890   1.289   3.436  14.662
  689TIP3    H212891   1.342   3.571  14.703
  690TIP3   OH212892   1.367   3.301  14.602
  690TIP3    H112893   1.369   3.234  14.531
  690TIP3    H212894   1.344   3.244  14.677
  691TIP3   OH212895   1.526   3.173  15.445
  691TIP3    H112896   1.528   3.094  15.386
  691TIP3    H212897   1.546   3.243  15.380
  692TIP3   OH212898   0.990   2.879  14.401
  692TIP3    H112899   0.911   2.936  14.395
  692TIP3    H212900   0.987   2.834  14.313
  693TIP3   OH212901   1.746   2.802  15.226
  693TIP3    H112902   1.689   2.878  15.245
  693TIP3    H212903   1.800   2.839  15.153
  694TIP3   OH212904   1.373   2.858  14.501
  694TIP3    H112905   1.293   2.875  14.555
  694TIP3    H212906   1.422   2.796  14.558
  695TIP3   OH212907   1.352   2.708  15.407
  695TIP3    H112908   1.326   2.796  15.438
  695TIP3    H212909   1.293   2.702  15.330
  696TIP3   OH212910   0.431   2.904  14.669
  696TIP3    H112911   0.488   2.931  14.596
  696TIP3    H212912   0.496   2.855  14.723
  697TIP3   OH212913   0.632   3.267  14.982
  697TIP3    H112914   0.637   3.251  14.887
  697TIP3    H212915   0.694   3.202  15.019
  698TIP3   OH212916   0.531   2.780  15.063
  698TIP3    H112917   0.543   2.799  14.968
  698TIP3    H212918   0.572   2.858  15.106
  699TIP3   OH212919   1.143   3.373  15.128
  699TIP3    H112920   1.114   3.434  15.198
  699TIP3    H212921   1.130   3.285  15.169
  700TIP3   OH212922   0.580   3.222  15.528
  700TIP3    H112923   0.533   3.293  15.577
  700TIP3    H212924   0.531   3.217  15.443
  701TIP3   OH212925   0.307   2.914  15.459
  701TIP3    H112926   0.286   2.961  15.541
  701TIP3    H212927   0.222   2.871  15.436
  702TIP3   OH212928   0.926   3.456  14.568
  702TIP3    H112929   0.985   3.527  14.597
  702TIP3    H212930   0.841   3.503  14.566
  703TIP3   OH212931   0.464   3.446  15.640
  703TIP3    H112932   0.466   3.527  15.582
  703TIP3    H212933   0.369   3.429  15.652
  704TIP3   OH212934   0.008   3.085  15.366
  704TIP3    H112935  -0.072   3.114  15.320
  704TIP3    H212936   0.051   3.033  15.296
  705TIP3   OH212937   0.019   3.363  14.948
  705TIP3    H112938   0.096   3.303  14.956
  705TIP3    H212939  -0.000   3.385  15.041
  706TIP3   OH212940   1.795   3.403  15.576
  706TIP3    H112941   1.788   3.307  15.590
  706TIP3    H212942   1.709   3.423  15.618
  707TIP3   OH212943   0.903   3.347  15.509
  707TIP3    H112944   0.909   3.438  15.544
  707TIP3    H212945   0.814   3.346  15.470
  708TIP3   OH212946   0.935   3.757  14.435
  708TIP3    H112947   0.932   3.782  14.340
  708TIP3    H212948   0.925   3.846  14.475
  709TIP3   OH212949   0.301   3.608  14.648
  709TIP3    H112950   0.319   3.568  14.737
  709TIP3    H212951   0.218   3.564  14.619
  710TIP3   OH212952   1.194   3.677  14.472
  710TIP3    H112953   1.101   3.700  14.451
  710TIP3    H212954   1.190   3.582  14.490
  711TIP3   OH212955   1.436   2.566  15.633
  711TIP3    H112956   1.398   2.621  15.561
  711TIP3    H212957   1.421   2.477  15.598
  712TIP3   OH212958   0.213   3.248  15.447
  712TIP3    H112959   0.217   3.203  15.533
  712TIP3    H212960   0.133   3.209  15.408
  713TIP3   OH212961   0.478   2.079  15.007
  713TIP3    H112962   0.382   2.077  14.989
  713TIP3    H212963   0.478   2.121  15.096
  714TIP3   OH212964   0.959   2.034  15.361
  714TIP3    H112965   0.986   2.007  15.451
  714TIP3    H212966   0.863   2.013  15.362
  715TIP3   OH212967   1.267   2.416  15.440
  715TIP3    H112968   1.215   2.395  15.521
  715TIP3    H212969   1.225   2.499  15.412
  716TIP3   OH212970   1.376   2.945  14.118
  716TIP3    H112971   1.318   2.869  14.099
  716TIP3    H212972   1.426   2.912  14.196
  717TIP3   OH212973   0.528   2.540  15.167
  717TIP3    H112974   0.451   2.560  15.224
  717TIP3    H212975   0.537   2.629  15.124
  718TIP3   OH212976   0.492   2.558  14.645
  718TIP3    H112977   0.399   2.535  14.623
  718TIP3    H212978   0.537   2.555  14.558
  719TIP3   OH212979   1.049   2.642  14.543
  719TIP3    H112980   1.015   2.722  14.500
  719TIP3    H212981   1.124   2.621  14.485
  720TIP3   OH212982   0.897   2.664  15.718
  720TIP3    H112983   0.878   2.567  15.726
  720TIP3    H212984   0.985   2.665  15.763
  721TIP3   OH212985   1.164   2.570  14.854
  721TIP3    H112986   1.140   2.659  14.821
  721TIP3    H212987   1.146   2.515  14.775
  722TIP3   OH212988   0.254   2.563  15.257
  722TIP3    H112989   0.289   2.600  15.340
  722TIP3    H212990   0.220   2.476  15.287
  723TIP3   OH212991   0.002   2.227  14.732
  723TIP3    H112992   0.045   2.254  14.815
  723TIP3    H212993   0.074   2.226  14.668
  724TIP3   OH212994   0.075   2.419  14.236
  724TIP3    H112995   0.151   2.469  14.193
  724TIP3    H212996   0.042   2.373  14.157
  725TIP3   OH212997   1.083   2.742  15.272
  725TIP3    H112998   1.132   2.675  15.222
  725TIP3    H212999   1.020   2.686  15.323
  726TIP3   OH213000   0.785   2.281  14.786
  726TIP3    H113001   0.687   2.294  14.782
  726TIP3    H213002   0.803   2.307  14.878
  727TIP3   OH213003   0.235   2.495  14.620
  727TIP3    H113004   0.137   2.502  14.610
  727TIP3    H213005   0.248   2.398  14.606
  728TIP3   OH213006   0.609   2.536  14.387
  728TIP3    H113007   0.694   2.499  14.422
  728TIP3    H213008   0.617   2.508  14.294
  729TIP3   OH213009   1.193   2.237  15.071
  729TIP3    H113010   1.123   2.230  15.137
  729TIP3    H213011   1.163   2.168  15.008
  730TIP3   OH213012   1.490   3.807  15.724
  730TIP3    H113013   1.525   3.895  15.700
  730TIP3    H213014   1.555   3.780  15.790
  731TIP3   OH213015   0.204   3.126  15.691
  731TIP3    H113016   0.291   3.102  15.732
  731TIP3    H213017   0.139   3.082  15.749
  732TIP3   OH213018   0.819   2.599  14.904
  732TIP3    H113019   0.908   2.563  14.882
  732TIP3    H213020   0.791   2.538  14.974
  733TIP3   OH213021   0.311   2.238  14.614
  733TIP3    H113022   0.280   2.153  14.654
  733TIP3    H213023   0.370   2.204  14.544
  734TIP3   OH213024   0.761   2.406  15.159
  734TIP3    H113025   0.676   2.456  15.160
  734TIP3    H213026   0.812   2.453  15.226
  735TIP3   OH213027   0.766   3.030  14.397
  735TIP3    H113028   0.715   3.085  14.335
  735TIP3    H213029   0.731   3.066  14.482
  736TIP3   OH213030   1.558   3.004  15.241
  736TIP3    H113031   1.600   3.062  15.174
  736TIP3    H213032   1.475   2.984  15.194
  737TIP3   OH213033   0.910   3.079  15.479
  737TIP3    H113034   0.865   3.066  15.564
  737TIP3    H213035   0.916   3.176  15.481
  738TIP3   OH213036   0.388   3.015  14.922
  738TIP3    H113037   0.401   2.983  14.831
  738TIP3    H213038   0.367   2.935  14.973
  739TIP3   OH213039   1.006   3.213  14.296
  739TIP3    H113040   0.942   3.278  14.331
  739TIP3    H213041   0.957   3.130  14.311
  740TIP3   OH213042   0.059   2.790  15.439
  740TIP3    H113043   0.045   2.811  15.533
  740TIP3    H213044  -0.032   2.765  15.413
  741TIP3   OH213045   0.662   2.798  15.628
  741TIP3    H113046   0.637   2.787  15.535
  741TIP3    H213047   0.743   2.743  15.633
  742TIP3   OH213048   1.206   3.329  15.488
  742TIP3    H113049   1.114   3.330  15.458
  742TIP3    H213050   1.188   3.363  15.579
  743TIP3   OH213051   1.760   3.115  15.570
  743TIP3    H113052   1.679   3.141  15.522
  743TIP3    H213053   1.825   3.113  15.498
  744TIP3   OH213054   1.575   3.425  14.385
  744TIP3    H113055   1.541   3.335  14.398
  744TIP3    H213056   1.603   3.427  14.293
  745TIP3   OH213057   1.295   2.906  15.052
  745TIP3    H113058   1.206   2.878  15.023
  745TIP3    H213059   1.349   2.838  15.008
  746TIP3   OH213060   0.541   3.348  14.655
  746TIP3    H113061   0.579   3.428  14.614
  746TIP3    H213062   0.454   3.380  14.683
  747TIP3   OH213063   0.665   3.112  14.634
  747TIP3    H113064   0.619   3.199  14.630
  747TIP3    H213065   0.646   3.079  14.722
  748TIP3   OH213066   0.720   3.525  15.292
  748TIP3    H113067   0.794   3.583  15.266
  748TIP3    H213068   0.699   3.557  15.382
  749TIP3   OH213069   0.567   3.601  14.566
  749TIP3    H113070   0.474   3.601  14.597
  749TIP3    H213071   0.591   3.693  14.587
  750TIP3   OH213072   1.056   3.115  15.219
  750TIP3    H113073   1.031   3.072  15.304
  750TIP3    H213074   1.116   3.048  15.182
  751TIP3   OH213075   1.294   3.231  14.192
  751TIP3    H113076   1.323   3.185  14.274
  751TIP3    H213077   1.200   3.239  14.218
  752TIP3   OH213078   1.400   3.537  15.471
  752TIP3    H113079   1.321   3.479  15.475
  752TIP3    H213080   1.372   3.608  15.408
  753TIP3   OH213081   1.740   3.668  14.208
  753TIP3    H113082   1.793   3.698  14.132
  753TIP3    H213083   1.672   3.738  14.215
  754TIP3   OH213084   0.183   2.332  15.381
  754TIP3    H113085   0.101   2.373  15.416
  754TIP3    H213086   0.193   2.259  15.446
  755TIP3   OH213087   1.391   3.111  14.412
  755TIP3    H113088   1.379   3.021  14.450
  755TIP3    H213089   1.489   3.110  14.404
  756TIP3   OH213090   0.124   3.477  15.233
  756TIP3    H113091   0.213   3.439  15.240
  756TIP3    H213092   0.128   3.541  15.308
  757TIP3   OH213093   0.677   3.267  14.259
  757TIP3    H113094   0.612   3.236  14.192
  757TIP3    H213095   0.643   3.356  14.277
  758TIP3   OH213096   1.039   2.292  15.363
  758TIP3    H113097   1.136   2.293  15.377
  758TIP3    H213098   1.015   2.197  15.371
  759TIP3   OH213099   1.093   2.200  14.468
  759TIP3    H113100   1.044   2.239  14.395
  759TIP3    H213101   1.177   2.249  14.465
  760TIP3   OH213102   0.811   2.448  14.551
  760TIP3    H113103   0.890   2.503  14.537
  760TIP3    H213104   0.835   2.393  14.628
  761TIP3   OH213105   0.958   2.558  15.426
  761TIP3    H113106   0.952   2.583  15.520
  761TIP3    H213107   0.970   2.461  15.430
  762TIP3   OH213108   0.913   2.077  14.630
  762TIP3    H113109   0.879   2.155  14.679
  762TIP3    H213110   0.977   2.124  14.572
  763TIP3   OH213111   0.664   3.560  14.312
  763TIP3    H113112   0.702   3.643  14.281
  763TIP3    H213113   0.621   3.586  14.397
  764TIP3   OH213114   1.489   2.291  15.512
  764TIP3    H113115   1.404   2.324  15.476
  764TIP3    H213116   1.550   2.315  15.439
  765TIP3   OH213117   1.409   2.689  14.916
  765TIP3    H113118   1.335   2.626  14.908
  765TIP3    H213119   1.474   2.638  14.970
  766TIP3   OH213120   1.493   3.654  15.072
  766TIP3    H113121   1.485   3.656  14.975
  766TIP3    H213122   1.577   3.607  15.085
  767TIP3   OH213123   0.219   2.038  14.968
  767TIP3    H113124   0.215   2.021  14.871
  767TIP3    H213125   0.189   1.950  15.000
  768TIP3   OH213126   0.134   3.366  14.515
  768TIP3    H113127   0.067   3.428  14.481
  768TIP3    H213128   0.197   3.366  14.442
  769TIP3   OH213129   0.041   3.757  15.755
  769TIP3    H113130   0.119   3.767  15.814
  769TIP3    H213131   0.064   3.670  15.718
  770TIP3   OH213132   0.548   3.562  15.871
  770TIP3    H113133   0.640   3.532  15.869
  770TIP3    H213134   0.511   3.516  15.794
  771TIP3   OH213135   1.130   3.426  15.726
  771TIP3    H113136   1.105   3.338  15.764
  771TIP3    H213137   1.213   3.446  15.776
  772TIP3   OH213138  -0.045   3.040  15.834
  772TIP3    H113139  -0.013   2.960  15.788
  772TIP3    H213140  -0.129   3.055  15.787
  773TIP3   OH213141   0.718   3.064  15.693
  773TIP3    H113142   0.678   3.119  15.621
  773TIP3    H213143   0.710   2.972  15.659
  774TIP3   OH213144   1.281   3.054  15.487
  774TIP3    H113145   1.369   3.096  15.495
  774TIP3    H213146   1.228   3.136  15.477
  775TIP3   OH213147   0.066   2.819  15.721
  775TIP3    H113148   0.159   2.791  15.713
  775TIP3    H213149   0.045   2.777  15.807
  776TIP3   OH213150   0.556   2.859  14.262
  776TIP3    H113151   0.650   2.848  14.283
  776TIP3    H213152   0.553   2.864  14.165
  777TIP3   OH213153   0.469   2.701  15.381
  777TIP3    H113154   0.444   2.794  15.403
  777TIP3    H213155   0.559   2.717  15.344
  778TIP3   OH213156   1.033   2.965  15.824
  778TIP3    H113157   1.089   2.904  15.772
  778TIP3    H213158   0.961   2.910  15.858
  779TIP3   OH213159   0.544   2.516  15.574
  779TIP3    H113160   0.582   2.437  15.532
  779TIP3    H213161   0.514   2.570  15.497
  780TIP3   OH213162   0.629   2.260  15.361
  780TIP3    H113163   0.681   2.289  15.283
  780TIP3    H213164   0.540   2.258  15.321
  781TIP3   OH213165   0.744   2.816  15.363
  781TIP3    H113166   0.834   2.848  15.381
  781TIP3    H213167   0.702   2.891  15.316
  782TIP3   OH213168   1.140   2.599  15.863
  782TIP3    H113169   1.163   2.506  15.856
  782TIP3    H213170   1.228   2.639  15.854
  783TIP3   OH213171   1.247   2.838  15.691
  783TIP3    H113172   1.238   2.903  15.618
  783TIP3    H213173   1.341   2.817  15.686
  784TIP3   OH213174   0.399   2.571  15.808
  784TIP3    H113175   0.355   2.487  15.786
  784TIP3    H213176   0.450   2.586  15.725
  785TIP3   OH213177   0.701   1.990  15.332
  785TIP3    H113178   0.668   2.082  15.343
  785TIP3    H213179   0.621   1.945  15.300
  786TIP3   OH213180   0.833   2.403  15.739
  786TIP3    H113181   0.770   2.397  15.813
  786TIP3    H213182   0.772   2.374  15.669
  787TIP3   OH213183   1.117   2.376  15.664
  787TIP3    H113184   1.023   2.372  15.693
  787TIP3    H213185   1.160   2.317  15.730
  788TIP3   OH213186   1.245   2.210  15.848
  788TIP3    H113187   1.222   2.116  15.837
  788TIP3    H213188   1.248   2.221  15.945
  789TIP3   OH213189   0.241   2.346  15.775
  789TIP3    H113190   0.233   2.278  15.706
  789TIP3    H213191   0.206   2.300  15.853
  790TIP3   OH213192   0.660   1.942  15.684
  790TIP3    H113193   0.709   1.860  15.661
  790TIP3    H213194   0.672   1.994  15.603
  791TIP3   OH213195   0.708   2.073  15.925
  791TIP3    H113196   0.700   2.004  15.857
  791TIP3    H213197   0.681   2.149  15.871
  792TIP3   OH213198   0.124   3.246  14.233
  792TIP3    H113199   0.209   3.255  14.186
  792TIP3    H213200   0.061   3.252  14.160
  793TIP3   OH213201  -0.023   3.795  14.587
  793TIP3    H113202  -0.101   3.766  14.535
  793TIP3    H213203  -0.031   3.737  14.665
  794TIP3   OH213204   0.034   3.591  14.818
  794TIP3    H113205   0.041   3.500  14.858
  794TIP3    H213206   0.093   3.642  14.877
  795TIP3   OH213207   1.772   3.718  15.135
  795TIP3    H113208   1.776   3.718  15.233
  795TIP3    H213209   1.852   3.667  15.112
  796TIP3   OH213210   1.713   3.624  15.394
  796TIP3    H113211   1.659   3.555  15.348
  796TIP3    H213212   1.759   3.566  15.459
  797TIP3   OH213213   1.587   3.206  15.854
  797TIP3    H113214   1.498   3.162  15.848
  797TIP3    H213215   1.575   3.270  15.925
  798TIP3   OH213216   1.658   3.084  14.397
  798TIP3    H113217   1.750   3.120  14.406
  798TIP3    H213218   1.671   2.999  14.441
  799TIP3   OH213219   1.750   2.841  14.606
  799TIP3    H113220   1.670   2.804  14.648
  799TIP3    H213221   1.806   2.863  14.683
  800TIP3   OH213222   1.688   3.129  15.053
  800TIP3    H113223   1.758   3.067  15.023
  800TIP3    H213224   1.717   3.215  15.017
  801TIP3   OH213225   1.567   3.403  15.288
  801TIP3    H113226   1.496   3.419  15.353
  801TIP3    H213227   1.515   3.383  15.206
  802TIP3   OH213228   1.522   2.684  14.659
  802TIP3    H113229   1.501   2.592  14.635
  802TIP3    H213230   1.491   2.690  14.753
  803TIP3   OH213231   0.079   2.975  15.016
  803TIP3    H113232   0.072   2.908  14.948
  803TIP3    H213233   0.146   2.935  15.077
  804TIP3   OH213234   1.592   2.879  15.580
  804TIP3    H113235   1.652   2.803  15.569
  804TIP3    H213236   1.653   2.956  15.576
  805TIP3   OH213237   1.710   2.606  15.645
  805TIP3    H113238   1.624   2.562  15.629
  805TIP3    H213239   1.771   2.528  15.652
  806TIP3   OH213240   1.406   2.398  14.496
  806TIP3    H113241   1.488   2.352  14.519
  806TIP3    H213242   1.429   2.435  14.409
  807TIP3   OH213243   1.590   2.538  15.054
  807TIP3    H113244   1.687   2.539  15.046
  807TIP3    H213245   1.587   2.559  15.150
  808TIP3   OH213246   1.589   2.600  15.319
  808TIP3    H113247   1.506   2.637  15.357
  808TIP3    H213248   1.641   2.682  15.302
  809TIP3   OH213249  -0.030   2.439  15.781
  809TIP3    H113250   0.036   2.413  15.715
  809TIP3    H213251  -0.086   2.359  15.784
  810TIP3   OH213252   1.875   2.049  15.896
  810TIP3    H113253   1.881   1.957  15.866
  810TIP3    H213254   1.818   2.089  15.826
  811TIP3   OH213255   1.602   2.191  14.486
  811TIP3    H113256   1.598   2.155  14.578
  811TIP3    H213257   1.520   2.155  14.448
  812TIP3   OH213258   0.098   2.278  14.995
  812TIP3    H113259   0.134   2.186  14.992
  812TIP3    H213260   0.172   2.331  15.027
  813TIP3   OH213261  -0.036   2.587  15.075
  813TIP3    H113262  -0.023   2.497  15.043
  813TIP3    H213263   0.050   2.616  15.108
  814TIP3   OH213264   1.705   2.152  15.708
  814TIP3    H113265   1.636   2.215  15.739
  814TIP3    H213266   1.676   2.136  15.616
  815TIP3   OH213267   0.020   2.236  14.437
  815TIP3    H113268  -0.077   2.227  14.432
  815TIP3    H213269   0.034   2.318  14.386
  816TIP3   OH213270   1.475   3.682  14.735
  816TIP3    H113271   1.525   3.695  14.651
  816TIP3    H213272   1.412   3.757  14.731
  817TIP3   OH213273  -0.035   2.047  15.302
  817TIP3    H113274  -0.041   2.111  15.373
  817TIP3    H213275  -0.064   2.097  15.223
  818TIP3   OH213276   0.164   3.426  15.756
  818TIP3    H113277   0.139   3.400  15.666
  818TIP3    H213278   0.149   3.343  15.803
  819TIP3   OH213279   0.414   3.481  15.251
  819TIP3    H113280   0.418   3.558  15.312
  819TIP3    H213281   0.509   3.458  15.249
  820TIP3   OH213282   0.863   3.638  15.598
  820TIP3    H113283   0.876   3.617  15.693
  820TIP3    H213284   0.953   3.674  15.579
  821TIP3   OH213285   1.102   3.756  15.587
  821TIP3    H113286   1.176   3.765  15.524
  821TIP3    H213287   1.144   3.790  15.670
  822TIP3   OH213288   1.606   2.033  15.478
  822TIP3    H113289   1.535   2.100  15.471
  822TIP3    H213290   1.558   1.950  15.488
  823TIP3   OH213291   0.160   3.704  15.396
  823TIP3    H113292   0.079   3.753  15.372
  823TIP3    H213293   0.221   3.778  15.412
  824TIP3   OH213294   0.424   3.837  15.189
  824TIP3    H113295   0.455   3.802  15.276
  824TIP3    H213296   0.387   3.756  15.151
  825TIP3   OH213297   0.943   3.749  15.160
  825TIP3    H113298   0.859   3.778  15.121
  825TIP3    H213299   0.950   3.813  15.234
  826TIP3   OH213300   1.136   3.598  15.284
  826TIP3    H113301   1.078   3.650  15.224
  826TIP3    H213302   1.214   3.655  15.289
  827TIP3   OH213303   1.370   3.738  15.291
  827TIP3    H113304   1.366   3.831  15.264
  827TIP3    H213305   1.408   3.696  15.210
  828TIP3   OH213306   0.195   3.662  15.033
  828TIP3    H113307   0.134   3.638  15.106
  828TIP3    H213308   0.243   3.577  15.022
  829TIP3   OH213309   0.388   3.497  14.881
  829TIP3    H113310   0.363   3.410  14.918
  829TIP3    H213311   0.460   3.527  14.942
  830TIP3   OH213312   0.609   3.554  15.031
  830TIP3    H113313   0.647   3.465  15.019
  830TIP3    H213314   0.636   3.572  15.122
  831TIP3   OH213315   1.006   2.076  14.955
  831TIP3    H113316   0.915   2.084  14.987
  831TIP3    H213317   0.990   2.079  14.859
  832TIP3   OH213318   1.469   1.963  14.927
  832TIP3    H113319   1.527   2.019  14.871
  832TIP3    H213320   1.382   1.980  14.887
  833TIP3   OH213321   1.656   2.069  14.730
  833TIP3    H113322   1.719   2.009  14.684
  833TIP3    H213323   1.719   2.135  14.767
  834TIP3   OH213324   0.233   2.000  14.695
  834TIP3    H113325   0.159   1.998  14.629
  834TIP3    H213326   0.271   1.910  14.680
  835TIP3   OH213327   0.118   2.011  14.341
  835TIP3    H113328   0.167   2.056  14.268
  835TIP3    H213329   0.067   2.088  14.376
  836TIP3   OH213330   0.639   2.011  14.675
  836TIP3    H113331   0.722   2.030  14.625
  836TIP3    H213332   0.670   2.025  14.767
  837TIP3   OH213333   1.226   1.977  14.793
  837TIP3    H113334   1.178   2.006  14.714
  837TIP3    H213335   1.156   1.924  14.839
  838TIP3   OH213336   1.370   1.972  14.456
  838TIP3    H113337   1.324   2.035  14.399
  838TIP3    H213338   1.303   1.900  14.459
  839TIP3   OH213339   0.069   3.604  14.376
  839TIP3    H113340  -0.000   3.558  14.322
  839TIP3    H213341   0.021   3.681  14.408
  840TIP3   OH213342   0.263   2.137  14.138
  840TIP3    H113343   0.179   2.123  14.086
  840TIP3    H213344   0.284   2.226  14.108
  841TIP3   OH213345   1.591   3.673  14.480
  841TIP3    H113346   1.583   3.578  14.453
  841TIP3    H213347   1.568   3.713  14.395
  842TIP3   OH213348   0.177   2.072  15.592
  842TIP3    H113349   0.129   1.999  15.636
  842TIP3    H213350   0.260   2.061  15.644
  843TIP3   OH213351   0.371   2.020  15.768
  843TIP3    H113352   0.465   2.034  15.748
  843TIP3    H213353   0.375   1.934  15.814
  844TIP3   OH213354   0.305   3.722  14.142
  844TIP3    H113355   0.263   3.693  14.223
  844TIP3    H213356   0.356   3.645  14.113
  845TIP3   OH213357   1.186   1.915  15.846
  845TIP3    H113358   1.155   1.874  15.928
  845TIP3    H213359   1.271   1.869  15.833
  846TIP3   OH213360   1.584   3.527  15.668
  846TIP3    H113361   1.518   3.536  15.596
  846TIP3    H213362   1.630   3.611  15.662
  847TIP3   OH213363   3.053   2.931  14.694
  847TIP3    H113364   3.060   2.992  14.770
  847TIP3    H213365   3.006   2.987  14.630
  848TIP3   OH213366   2.889   2.852  14.988
  848TIP3    H113367   2.894   2.802  15.072
  848TIP3    H213368   2.832   2.794  14.934
  849TIP3   OH213369   2.119   2.820  15.140
  849TIP3    H113370   2.109   2.737  15.190
  849TIP3    H213371   2.194   2.862  15.185
  850TIP3   OH213372   3.206   3.138  14.873
  850TIP3    H113373   3.201   3.060  14.931
  850TIP3    H213374   3.278   3.188  14.915
  851TIP3   OH213375   2.225   3.322  14.977
  851TIP3    H113376   2.185   3.234  14.980
  851TIP3    H213377   2.319   3.295  14.976
  852TIP3   OH213378   1.902   2.583  14.528
  852TIP3    H113379   1.839   2.652  14.556
  852TIP3    H213380   1.905   2.605  14.431
  853TIP3   OH213381   1.934   2.848  14.799
  853TIP3    H113382   1.964   2.755  14.817
  853TIP3    H213383   1.995   2.876  14.729
  854TIP3   OH213384   2.952   3.671  14.843
  854TIP3    H113385   3.026   3.609  14.824
  854TIP3    H213386   2.922   3.640  14.930
  855TIP3   OH213387   2.695   3.095  15.114
  855TIP3    H113388   2.721   3.079  15.023
  855TIP3    H213389   2.783   3.122  15.151
  856TIP3   OH213390   3.571   2.268  15.117
  856TIP3    H113391   3.582   2.325  15.195
  856TIP3    H213392   3.657   2.284  15.074
  857TIP3   OH213393   3.086   2.563  15.131
  857TIP3    H113394   3.096   2.473  15.169
  857TIP3    H213395   3.080   2.538  15.037
  858TIP3   OH213396   2.358   2.309  14.808
  858TIP3    H113397   2.364   2.385  14.747
  858TIP3    H213398   2.317   2.245  14.747
  859TIP3   OH213399   3.104   2.333  14.682
  859TIP3    H113400   3.164   2.308  14.755
  859TIP3    H213401   3.161   2.393  14.631
  860TIP3   OH213402   2.001   2.597  14.881
  860TIP3    H113403   2.062   2.545  14.938
  860TIP3    H213404   2.022   2.558  14.794
  861TIP3   OH213405   2.465   2.712  14.794
  861TIP3    H113406   2.552   2.680  14.826
  861TIP3    H213407   2.434   2.635  14.741
  862TIP3   OH213408   3.601   2.380  15.369
  862TIP3    H113409   3.530   2.446  15.350
  862TIP3    H213410   3.644   2.420  15.446
  863TIP3   OH213411   2.276   2.246  15.220
  863TIP3    H113412   2.237   2.294  15.144
  863TIP3    H213413   2.205   2.262  15.285
  864TIP3   OH213414   2.961   3.188  14.585
  864TIP3    H113415   2.938   3.205  14.491
  864TIP3    H213416   2.959   3.278  14.624
  865TIP3   OH213417   2.465   3.000  15.206
  865TIP3    H113418   2.406   3.071  15.241
  865TIP3    H213419   2.541   3.052  15.170
  866TIP3   OH213420   3.300   2.308  14.911
  866TIP3    H113421   3.372   2.244  14.897
  866TIP3    H213422   3.352   2.381  14.950
  867TIP3   OH213423   2.204   2.427  15.023
  867TIP3    H113424   2.269   2.487  15.068
  867TIP3    H213425   2.255   2.400  14.943
  868TIP3   OH213426   2.345   3.238  15.286
  868TIP3    H113427   2.329   3.328  15.255
  868TIP3    H213428   2.259   3.221  15.333
  869TIP3   OH213429   1.915   3.156  14.426
  869TIP3    H113430   1.936   3.186  14.337
  869TIP3    H213431   1.951   3.230  14.478
  870TIP3   OH213432   3.318   3.316  15.067
  870TIP3    H113433   3.221   3.331  15.072
  870TIP3    H213434   3.341   3.404  15.033
  871TIP3   OH213435   3.292   2.205  15.217
  871TIP3    H113436   3.214   2.248  15.175
  871TIP3    H213437   3.364   2.231  15.157
  872TIP3   OH213438   2.589   1.965  14.988
  872TIP3    H113439   2.557   1.874  14.999
  872TIP3    H213440   2.503   2.013  15.001
  873TIP3   OH213441   3.187   3.505  14.755
  873TIP3    H113442   3.180   3.445  14.680
  873TIP3    H213443   3.232   3.582  14.713
  874TIP3   OH213444   3.256   3.282  14.565
  874TIP3    H113445   3.237   3.215  14.497
  874TIP3    H213446   3.239   3.233  14.647
  875TIP3   OH213447   3.383   3.197  15.481
  875TIP3    H113448   3.426   3.202  15.391
  875TIP3    H213449   3.326   3.276  15.476
  876TIP3   OH213450   3.540   2.757  15.215
  876TIP3    H113451   3.534   2.855  15.213
  876TIP3    H213452   3.634   2.750  15.191
  877TIP3   OH213453   3.236   2.815  14.500
  877TIP3    H113454   3.191   2.874  14.563
  877TIP3    H213455   3.308   2.778  14.556
  878TIP3   OH213456   3.170   2.640  15.416
  878TIP3    H113457   3.163   2.685  15.503
  878TIP3    H213458   3.144   2.713  15.357
  879TIP3   OH213459   2.354   2.939  14.708
  879TIP3    H113460   2.293   2.910  14.637
  879TIP3    H213461   2.406   2.857  14.727
  880TIP3   OH213462   2.510   3.269  14.976
  880TIP3    H113463   2.514   3.247  14.882
  880TIP3    H213464   2.560   3.197  15.020
  881TIP3   OH213465   2.395   2.793  15.055
  881TIP3    H113466   2.414   2.802  14.960
  881TIP3    H213467   2.439   2.870  15.098
  882TIP3   OH213468   3.073   3.401  15.133
  882TIP3    H113469   3.039   3.465  15.197
  882TIP3    H213470   3.027   3.319  15.161
  883TIP3   OH213471   2.504   3.232  15.507
  883TIP3    H113472   2.448   3.296  15.558
  883TIP3    H213473   2.452   3.226  15.423
  884TIP3   OH213474   2.200   2.883  15.460
  884TIP3    H113475   2.199   2.935  15.543
  884TIP3    H213476   2.106   2.853  15.455
  885TIP3   OH213477   2.908   3.437  14.670
  885TIP3    H113478   2.909   3.520  14.721
  885TIP3    H213479   2.836   3.455  14.610
  886TIP3   OH213480   2.377   3.432  15.635
  886TIP3    H113481   2.360   3.488  15.556
  886TIP3    H213482   2.284   3.412  15.661
  887TIP3   OH213483   2.191   2.837  14.494
  887TIP3    H113484   2.155   2.916  14.452
  887TIP3    H213485   2.161   2.771  14.430
  888TIP3   OH213486   1.902   3.100  15.341
  888TIP3    H113487   1.844   3.087  15.264
  888TIP3    H213488   1.941   3.010  15.346
  889TIP3   OH213489   1.839   3.374  15.098
  889TIP3    H113490   1.846   3.283  15.130
  889TIP3    H213491   1.905   3.417  15.156
  890TIP3   OH213492   3.680   3.412  15.630
  890TIP3    H113493   3.668   3.318  15.610
  890TIP3    H213494   3.589   3.437  15.654
  891TIP3   OH213495   2.762   3.349  15.514
  891TIP3    H113496   2.770   3.432  15.565
  891TIP3    H213497   2.666   3.336  15.504
  892TIP3   OH213498   2.802   3.747  14.410
  892TIP3    H113499   2.810   3.760  14.314
  892TIP3    H213500   2.822   3.835  14.446
  893TIP3   OH213501   2.158   3.610  14.667
  893TIP3    H113502   2.191   3.578  14.755
  893TIP3    H213503   2.065   3.580  14.664
  894TIP3   OH213504   3.126   3.619  14.178
  894TIP3    H113505   3.123   3.559  14.102
  894TIP3    H213506   3.100   3.561  14.251
  895TIP3   OH213507   3.049   3.630  14.484
  895TIP3    H113508   2.959   3.664  14.471
  895TIP3    H213509   3.036   3.542  14.520
  896TIP3   OH213510   3.333   2.492  15.671
  896TIP3    H113511   3.281   2.466  15.593
  896TIP3    H213512   3.351   2.404  15.710
  897TIP3   OH213513   2.132   3.209  15.446
  897TIP3    H113514   2.143   3.157  15.528
  897TIP3    H213515   2.043   3.181  15.415
  898TIP3   OH213516   2.360   2.068  15.046
  898TIP3    H113517   2.269   2.061  15.012
  898TIP3    H213518   2.348   2.137  15.115
  899TIP3   OH213519   2.860   2.035  15.375
  899TIP3    H113520   2.891   1.989  15.456
  899TIP3    H213521   2.762   2.025  15.380
  900TIP3   OH213522   3.142   2.391  15.495
  900TIP3    H113523   3.085   2.387  15.576
  900TIP3    H213524   3.138   2.486  15.470
  901TIP3   OH213525   2.400   2.550  15.159
  901TIP3    H113526   2.360   2.578  15.245
  901TIP3    H213527   2.391   2.636  15.112
  902TIP3   OH213528   2.368   2.522  14.631
  902TIP3    H113529   2.271   2.529  14.649
  902TIP3    H213530   2.368   2.471  14.548
  903TIP3   OH213531   2.964   2.613  14.529
  903TIP3    H113532   2.968   2.701  14.488
  903TIP3    H213533   3.016   2.559  14.467
  904TIP3   OH213534   2.801   2.687  15.702
  904TIP3    H113535   2.779   2.591  15.700
  904TIP3    H213536   2.891   2.681  15.740
  905TIP3   OH213537   3.041   2.587  14.832
  905TIP3    H113538   3.035   2.660  14.766
  905TIP3    H213539   3.026   2.508  14.777
  906TIP3   OH213540   2.110   2.561  15.290
  906TIP3    H113541   2.156   2.589  15.371
  906TIP3    H213542   2.100   2.465  15.302
  907TIP3   OH213543   1.825   2.281  14.772
  907TIP3    H113544   1.895   2.287  14.840
  907TIP3    H213545   1.856   2.333  14.696
  908TIP3   OH213546   2.954   2.754  15.260
  908TIP3    H113547   3.009   2.684  15.215
  908TIP3    H213548   2.890   2.699  15.311
  909TIP3   OH213549   2.672   2.335  14.784
  909TIP3    H113550   2.578   2.334  14.807
  909TIP3    H213551   2.708   2.261  14.835
  910TIP3   OH213552   2.096   2.460  14.657
  910TIP3    H113553   2.034   2.503  14.593
  910TIP3    H213554   2.083   2.367  14.631
  911TIP3   OH213555   2.530   2.453  14.397
  911TIP3    H113556   2.613   2.444  14.451
  911TIP3    H213557   2.499   2.538  14.429
  912TIP3   OH213558   3.065   2.293  15.116
  912TIP3    H113559   2.997   2.270  15.182
  912TIP3    H213560   3.060   2.217  15.056
  913TIP3   OH213561   3.373   3.808  15.732
  913TIP3    H113562   3.398   3.862  15.655
  913TIP3    H213563   3.455   3.814  15.785
  914TIP3   OH213564   2.139   3.063  15.675
  914TIP3    H113565   2.218   3.082  15.730
  914TIP3    H213566   2.075   3.037  15.742
  915TIP3   OH213567   2.719   2.652  14.902
  915TIP3    H113568   2.790   2.594  14.871
  915TIP3    H213569   2.705   2.615  14.990
  916TIP3   OH213570   2.220   2.206  14.582
  916TIP3    H113571   2.166   2.143  14.634
  916TIP3    H213572   2.236   2.150  14.504
  917TIP3   OH213573   2.646   2.427  15.179
  917TIP3    H113574   2.562   2.473  15.159
  917TIP3    H213575   2.691   2.491  15.237
  918TIP3   OH213576   2.597   3.053  14.329
  918TIP3    H113577   2.506   3.023  14.325
  918TIP3    H213578   2.602   3.097  14.417
  919TIP3   OH213579   3.254   2.939  15.267
  919TIP3    H113580   3.325   2.999  15.235
  919TIP3    H213581   3.212   2.917  15.180
  920TIP3   OH213582   2.832   3.078  15.479
  920TIP3    H113583   2.792   3.058  15.565
  920TIP3    H213584   2.803   3.171  15.473
  921TIP3   OH213585   3.148   2.503  14.333
  921TIP3    H113586   3.219   2.529  14.394
  921TIP3    H213587   3.168   2.559  14.255
  922TIP3   OH213588   2.222   3.019  14.929
  922TIP3    H113589   2.266   2.994  14.844
  922TIP3    H213590   2.221   2.934  14.977
  923TIP3   OH213591   2.874   3.193  14.332
  923TIP3    H113592   2.815   3.268  14.317
  923TIP3    H213593   2.837   3.120  14.282
  924TIP3   OH213594   1.941   2.820  15.436
  924TIP3    H113595   1.925   2.805  15.532
  924TIP3    H213596   1.866   2.773  15.395
  925TIP3   OH213597   2.546   2.803  15.636
  925TIP3    H113598   2.519   2.794  15.542
  925TIP3    H213599   2.631   2.753  15.635
  926TIP3   OH213600   3.096   3.333  15.491
  926TIP3    H113601   3.025   3.375  15.440
  926TIP3    H213602   3.070   3.364  15.580
  927TIP3   OH213603   3.650   3.141  15.575
  927TIP3    H113604   3.566   3.152  15.526
  927TIP3    H213605   3.707   3.108  15.502
  928TIP3   OH213606   3.448   3.362  14.375
  928TIP3    H113607   3.401   3.335  14.457
  928TIP3    H213608   3.415   3.294  14.315
  929TIP3   OH213609   3.182   2.875  15.018
  929TIP3    H113610   3.090   2.856  14.990
  929TIP3    H213611   3.233   2.805  14.969
  930TIP3   OH213612   2.415   3.360  14.686
  930TIP3    H113613   2.433   3.452  14.658
  930TIP3    H213614   2.325   3.351  14.651
  931TIP3   OH213615   2.543   3.144  14.592
  931TIP3    H113616   2.498   3.225  14.625
  931TIP3    H213617   2.519   3.076  14.657
  932TIP3   OH213618   2.619   3.558  15.325
  932TIP3    H113619   2.682   3.614  15.277
  932TIP3    H213620   2.677   3.522  15.395
  933TIP3   OH213621   2.412   3.615  14.565
  933TIP3    H113622   2.315   3.619  14.583
  933TIP3    H213623   2.440   3.696  14.612
  934TIP3   OH213624   2.937   3.136  15.223
  934TIP3    H113625   2.904   3.096  15.306
  934TIP3    H213626   2.992   3.063  15.188
  935TIP3   OH213627   3.274   3.597  15.469
  935TIP3    H113628   3.187   3.566  15.441
  935TIP3    H213629   3.295   3.669  15.404
  936TIP3   OH213630   2.077   2.298  15.391
  936TIP3    H113631   1.992   2.342  15.405
  936TIP3    H213632   2.078   2.233  15.464
  937TIP3   OH213633   3.301   3.082  14.345
  937TIP3    H113634   3.273   2.992  14.322
  937TIP3    H213635   3.397   3.070  14.364
  938TIP3   OH213636   2.027   3.480  15.263
  938TIP3    H113637   2.097   3.413  15.273
  938TIP3    H213638   2.048   3.536  15.340
  939TIP3   OH213639   2.642   3.329  14.019
  939TIP3    H113640   2.603   3.278  13.947
  939TIP3    H213641   2.567   3.335  14.082
  940TIP3   OH213642   2.476   3.306  14.252
  940TIP3    H113643   2.546   3.249  14.288
  940TIP3    H213644   2.498   3.392  14.293
  941TIP3   OH213645   2.909   2.306  15.359
  941TIP3    H113646   2.995   2.314  15.408
  941TIP3    H213647   2.888   2.210  15.369
  942TIP3   OH213648   2.737   3.470  14.329
  942TIP3    H113649   2.696   3.557  14.343
  942TIP3    H213650   2.778   3.484  14.241
  943TIP3   OH213651   2.748   2.445  14.542
  943TIP3    H113652   2.818   2.512  14.553
  943TIP3    H213653   2.735   2.409  14.634
  944TIP3   OH213654   2.810   2.557  15.385
  944TIP3    H113655   2.759   2.536  15.464
  944TIP3    H213656   2.859   2.473  15.369
  945TIP3   OH213657   2.817   2.146  14.590
  945TIP3    H113658   2.777   2.141  14.680
  945TIP3    H213659   2.866   2.229  14.598
  946TIP3   OH213660   2.476   3.638  14.305
  946TIP3    H113661   2.446   3.730  14.303
  946TIP3    H213662   2.463   3.614  14.400
  947TIP3   OH213663   3.390   2.258  15.506
  947TIP3    H113664   3.304   2.298  15.477
  947TIP3    H213665   3.451   2.302  15.443
  948TIP3   OH213666   3.297   2.669  14.888
  948TIP3    H113667   3.214   2.618  14.889
  948TIP3    H213668   3.356   2.618  14.947
  949TIP3   OH213669   2.186   3.320  14.144
  949TIP3    H113670   2.256   3.325  14.211
  949TIP3    H213671   2.223   3.250  14.087
  950TIP3   OH213672   3.358   3.597  15.065
  950TIP3    H113673   3.344   3.667  14.998
  950TIP3    H213674   3.456   3.596  15.071
  951TIP3   OH213675   2.100   2.033  15.004
  951TIP3    H113676   2.100   2.004  14.910
  951TIP3    H213677   2.082   1.946  15.047
  952TIP3   OH213678   1.978   3.393  14.551
  952TIP3    H113679   1.900   3.446  14.573
  952TIP3    H213680   2.016   3.450  14.481
  953TIP3   OH213681   1.926   3.674  15.713
  953TIP3    H113682   2.003   3.658  15.773
  953TIP3    H213683   1.905   3.585  15.680
  954TIP3   OH213684   2.423   3.533  15.892
  954TIP3    H113685   2.514   3.501  15.895
  954TIP3    H213686   2.393   3.492  15.808
  955TIP3   OH213687   2.840   3.513  14.078
  955TIP3    H113688   2.789   3.436  14.044
  955TIP3    H213689   2.887   3.545  14.000
  956TIP3   OH213690   3.034   3.431  15.736
  956TIP3    H113691   3.011   3.349  15.785
  956TIP3    H213692   3.120   3.451  15.781
  957TIP3   OH213693   1.963   3.092  15.911
  957TIP3    H113694   1.985   3.001  15.942
  957TIP3    H213695   1.887   3.071  15.853
  958TIP3   OH213696   2.285   3.089  14.029
  958TIP3    H113697   2.290   2.996  14.054
  958TIP3    H213698   2.356   3.100  13.964
  959TIP3   OH213699   2.616   3.053  15.682
  959TIP3    H113700   2.578   3.112  15.611
  959TIP3    H213701   2.604   2.963  15.644
  960TIP3   OH213702   3.132   3.044  15.520
  960TIP3    H113703   3.165   3.136  15.517
  960TIP3    H213704   3.041   3.059  15.488
  961TIP3   OH213705   1.968   2.803  15.696
  961TIP3    H113706   2.058   2.773  15.714
  961TIP3    H213707   1.925   2.768  15.775
  962TIP3   OH213708   2.349   2.682  15.381
  962TIP3    H113709   2.293   2.762  15.402
  962TIP3    H213710   2.436   2.726  15.372
  963TIP3   OH213711   2.957   2.965  15.798
  963TIP3    H113712   3.013   2.908  15.743
  963TIP3    H213713   2.874   2.915  15.799
  964TIP3   OH213714   2.453   2.491  15.547
  964TIP3    H113715   2.480   2.414  15.494
  964TIP3    H213716   2.405   2.548  15.483
  965TIP3   OH213717   2.521   2.271  15.361
  965TIP3    H113718   2.579   2.307  15.288
  965TIP3    H213719   2.433   2.275  15.318
  966TIP3   OH213720   2.595   2.825  15.366
  966TIP3    H113721   2.685   2.860  15.376
  966TIP3    H213722   2.553   2.893  15.308
  967TIP3   OH213723   3.060   2.630  15.841
  967TIP3    H113724   3.064   2.538  15.810
  967TIP3    H213725   3.152   2.657  15.824
  968TIP3   OH213726   3.160   2.804  15.635
  968TIP3    H113727   3.152   2.886  15.582
  968TIP3    H213728   3.233   2.828  15.695
  969TIP3   OH213729   2.293   2.550  15.814
  969TIP3    H113730   2.222   2.484  15.801
  969TIP3    H213731   2.326   2.563  15.723
  970TIP3   OH213732   2.598   2.011  15.336
  970TIP3    H113733   2.572   2.104  15.355
  970TIP3    H213734   2.512   1.972  15.314
  971TIP3   OH213735   2.718   2.419  15.748
  971TIP3    H113736   2.672   2.407  15.833
  971TIP3    H213737   2.651   2.375  15.692
  972TIP3   OH213738   2.988   2.374  15.707
  972TIP3    H113739   2.892   2.372  15.725
  972TIP3    H213740   3.020   2.305  15.769
  973TIP3   OH213741   3.106   2.177  15.869
  973TIP3    H113742   3.108   2.080  15.850
  973TIP3    H213743   3.113   2.176  15.967
  974TIP3   OH213744   2.118   2.335  15.754
  974TIP3    H113745   2.148   2.272  15.686
  974TIP3    H213746   2.094   2.273  15.826
  975TIP3   OH213747   2.561   1.944  15.686
  975TIP3    H113748   2.614   1.862  15.689
  975TIP3    H213749   2.569   1.966  15.592
  976TIP3   OH213750   2.571   2.061  15.924
  976TIP3    H113751   2.581   2.014  15.839
  976TIP3    H213752   2.529   2.142  15.893
  977TIP3   OH213753   1.909   3.219  14.101
  977TIP3    H113754   1.967   3.298  14.106
  977TIP3    H213755   1.972   3.150  14.124
  978TIP3   OH213756   1.823   3.759  14.610
  978TIP3    H113757   1.742   3.722  14.567
  978TIP3    H213758   1.832   3.703  14.690
  979TIP3   OH213759   1.885   3.606  14.822
  979TIP3    H113760   1.848   3.521  14.848
  979TIP3    H213761   1.935   3.629  14.903
  980TIP3   OH213762   3.628   3.662  15.084
  980TIP3    H113763   3.689   3.673  15.158
  980TIP3    H213764   3.687   3.664  15.007
  981TIP3   OH213765   3.610   3.624  15.376
  981TIP3    H113766   3.566   3.557  15.318
  981TIP3    H213767   3.631   3.566  15.451
  982TIP3   OH213768   3.441   3.244  15.925
  982TIP3    H113769   3.359   3.231  15.977
  982TIP3    H213770   3.496   3.296  15.986
  983TIP3   OH213771   3.565   3.040  14.403
  983TIP3    H113772   3.654   3.075  14.421
  983TIP3    H213773   3.564   2.962  14.463
  984TIP3   OH213774   3.620   2.813  14.537
  984TIP3    H113775   3.553   2.776  14.597
  984TIP3    H213776   3.694   2.827  14.601
  985TIP3   OH213777   3.622   3.163  14.987
  985TIP3    H113778   3.590   3.129  15.073
  985TIP3    H213779   3.601   3.256  15.001
  986TIP3   OH213780   3.441   3.420  15.294
  986TIP3    H113781   3.369   3.484  15.298
  986TIP3    H213782   3.411   3.363  15.219
  987TIP3   OH213783   3.419   2.691  14.656
  987TIP3    H113784   3.380   2.605  14.635
  987TIP3    H213785   3.394   2.695  14.752
  988TIP3   OH213786   1.894   2.935  15.050
  988TIP3    H113787   1.901   2.904  14.956
  988TIP3    H213788   1.986   2.913  15.078
  989TIP3   OH213789   3.544   2.836  15.545
  989TIP3    H113790   3.564   2.747  15.580
  989TIP3    H213791   3.602   2.890  15.604
  990TIP3   OH213792   3.581   2.590  15.623
  990TIP3    H113793   3.494   2.544  15.627
  990TIP3    H213794   3.645   2.518  15.642
  991TIP3   OH213795   3.349   2.427  14.557
  991TIP3    H113796   3.353   2.330  14.546
  991TIP3    H213797   3.434   2.449  14.519
  992TIP3   OH213798   3.460   2.515  15.034
  992TIP3    H113799   3.557   2.533  15.045
  992TIP3    H213800   3.433   2.522  15.127
  993TIP3   OH213801   3.403   2.549  15.309
  993TIP3    H113802   3.315   2.584  15.335
  993TIP3    H213803   3.445   2.630  15.273
  994TIP3   OH213804   1.865   2.382  15.636
  994TIP3    H113805   1.960   2.383  15.660
  994TIP3    H213806   1.837   2.302  15.685
  995TIP3   OH213807   3.688   2.038  15.901
  995TIP3    H113808   3.702   1.966  15.838
  995TIP3    H213809   3.674   2.115  15.841
  996TIP3   OH213810   3.381   2.146  14.511
  996TIP3    H113811   3.438   2.148  14.591
  996TIP3    H213812   3.333   2.064  14.529
  997TIP3   OH213813   1.978   2.271  15.004
  997TIP3    H113814   2.018   2.182  14.995
  997TIP3    H213815   2.056   2.328  15.020
  998TIP3   OH213816   1.847   2.553  15.105
  998TIP3    H113817   1.882   2.514  15.023
  998TIP3    H213818   1.902   2.633  15.112
  999TIP3   OH213819   3.604   2.207  15.713
  999TIP3    H113820   3.512   2.231  15.737
  999TIP3    H213821   3.586   2.164  15.628
 1000TIP3   OH213822   3.674   2.147  14.172
 1000TIP3    H113823   3.704   2.102  14.092
 1000TIP3    H213824   3.688   2.239  14.145
 1001TIP3   OH213825   1.869   2.226  14.487
 1001TIP3    H113826   1.772   2.232  14.500
 1001TIP3    H213827   1.871   2.209  14.392
 1002TIP3   OH213828   3.331   3.714  14.686
 1002TIP3    H113829   3.403   3.674  14.633
 1002TIP3    H213830   3.374   3.752  14.764
 1003TIP3   OH213831   1.818   2.045  15.307
 1003TIP3    H113832   1.743   2.035  15.369
 1003TIP3    H213833   1.784   2.115  15.250
 1004TIP3   OH213834   2.126   3.389  15.759
 1004TIP3    H113835   2.033   3.406  15.736
 1004TIP3    H213836   2.123   3.294  15.782
 1005TIP3   OH213837   2.358   3.523  15.365
 1005TIP3    H113838   2.346   3.614  15.332
 1005TIP3    H213839   2.455   3.512  15.350
 1006TIP3   OH213840   2.763   3.621  15.587
 1006TIP3    H113841   2.772   3.608  15.684
 1006TIP3    H213842   2.851   3.663  15.570
 1007TIP3   OH213843   2.980   3.772  15.586
 1007TIP3    H113844   3.060   3.765  15.531
 1007TIP3    H213845   3.017   3.800  15.673
 1008TIP3   OH213846   3.535   1.987  15.496
 1008TIP3    H113847   3.460   2.024  15.448
 1008TIP3    H213848   3.543   1.898  15.457
 1009TIP3   OH213849   2.039   3.798  15.320
 1009TIP3    H113850   1.969   3.845  15.270
 1009TIP3    H213851   2.054   3.855  15.396
 1010TIP3   OH213852   2.290   3.746  15.241
 1010TIP3    H113853   2.193   3.756  15.255
 1010TIP3    H213854   2.302   3.795  15.157
 1011TIP3   OH213855   2.814   3.750  15.166
 1011TIP3    H113856   2.741   3.783  15.110
 1011TIP3    H213857   2.816   3.822  15.233
 1012TIP3   OH213858   3.016   3.606  15.318
 1012TIP3    H113859   2.941   3.663  15.293
 1012TIP3    H213860   3.088   3.656  15.275
 1013TIP3   OH213861   3.310   3.770  15.278
 1013TIP3    H113862   3.318   3.861  15.239
 1013TIP3    H213863   3.323   3.718  15.197
 1014TIP3   OH213864   2.046   3.643  15.040
 1014TIP3    H113865   2.040   3.577  15.113
 1014TIP3    H213866   2.136   3.624  15.005
 1015TIP3   OH213867   2.271   3.573  14.910
 1015TIP3    H113868   2.250   3.479  14.934
 1015TIP3    H213869   2.359   3.582  14.952
 1016TIP3   OH213870   2.511   3.568  15.030
 1016TIP3    H113871   2.544   3.478  15.015
 1016TIP3    H213872   2.507   3.573  15.126
 1017TIP3   OH213873   2.777   2.083  14.854
 1017TIP3    H113874   2.717   2.035  14.916
 1017TIP3    H213875   2.862   2.040  14.871
 1018TIP3   OH213876   3.362   1.937  14.906
 1018TIP3    H113877   3.421   2.006  14.870
 1018TIP3    H213878   3.274   1.973  14.882
 1019TIP3   OH213879   3.504   2.105  14.752
 1019TIP3    H113880   3.562   2.033  14.717
 1019TIP3    H213881   3.573   2.172  14.777
 1020TIP3   OH213882   2.099   2.000  14.725
 1020TIP3    H113883   2.022   2.002  14.667
 1020TIP3    H213884   2.139   1.913  14.701
 1021TIP3   OH213885   2.536   1.923  14.680
 1021TIP3    H113886   2.524   2.013  14.649
 1021TIP3    H213887   2.578   1.935  14.767
 1022TIP3   OH213888   3.111   1.999  14.834
 1022TIP3    H113889   3.069   2.037  14.756
 1022TIP3    H213890   3.061   1.917  14.849
 1023TIP3   OH213891   1.966   3.600  14.367
 1023TIP3    H113892   1.872   3.590  14.342
 1023TIP3    H213893   1.975   3.696  14.346
 1024TIP3   OH213894   3.496   3.607  14.504
 1024TIP3    H113895   3.481   3.529  14.446
 1024TIP3    H213896   3.482   3.681  14.440
 1025TIP3   OH213897   2.063   2.072  15.601
 1025TIP3    H113898   1.990   2.021  15.642
 1025TIP3    H213899   2.139   2.029  15.647
 1026TIP3   OH213900   2.270   1.954  15.740
 1026TIP3    H113901   2.367   1.962  15.746
 1026TIP3    H213902   2.258   1.870  15.786
 1027TIP3   OH213903   2.210   3.738  14.128
 1027TIP3    H113904   2.138   3.729  14.193
 1027TIP3    H213905   2.246   3.648  14.128
 1028TIP3   OH213906   3.148   1.912  15.856
 1028TIP3    H113907   3.157   1.844  15.924
 1028TIP3    H213908   3.229   1.900  15.801
 1029TIP3   OH213909   3.449   3.547  15.655
 1029TIP3    H113910   3.396   3.545  15.572
 1029TIP3    H213911   3.445   3.643  15.675
 1030TIP3   OH213912   4.824   2.917  14.649
 1030TIP3    H113913   4.826   3.013  14.663
 1030TIP3    H213914   4.759   2.908  14.577
 1031TIP3   OH213915   4.795   2.833  15.003
 1031TIP3    H113916   4.775   2.799  15.092
 1031TIP3    H213917   4.713   2.816  14.955
 1032TIP3   OH213918   4.037   2.825  15.158
 1032TIP3    H113919   4.018   2.739  15.200
 1032TIP3    H213920   4.073   2.877  15.232
 1033TIP3   OH213921   4.071   3.280  14.974
 1033TIP3    H113922   4.062   3.183  14.959
 1033TIP3    H213923   4.153   3.287  15.027
 1034TIP3   OH213924   3.788   2.586  14.537
 1034TIP3    H113925   3.783   2.683  14.541
 1034TIP3    H213926   3.701   2.565  14.501
 1035TIP3   OH213927   3.808   2.810  14.728
 1035TIP3    H113928   3.848   2.740  14.785
 1035TIP3    H213929   3.866   2.886  14.746
 1036TIP3   OH213930   4.892   3.660  14.846
 1036TIP3    H113931   4.928   3.589  14.788
 1036TIP3    H213932   4.877   3.613  14.929
 1037TIP3   OH213933   4.619   3.051  15.110
 1037TIP3    H113934   4.601   3.115  15.037
 1037TIP3    H213935   4.714   3.067  15.124
 1038TIP3   OH213936   4.880   2.538  15.098
 1038TIP3    H113937   4.976   2.521  15.095
 1038TIP3    H213938   4.870   2.571  15.005
 1039TIP3   OH213939   4.264   2.319  14.791
 1039TIP3    H113940   4.275   2.407  14.748
 1039TIP3    H213941   4.188   2.284  14.741
 1040TIP3   OH213942   4.954   2.339  14.697
 1040TIP3    H113943   5.036   2.290  14.725
 1040TIP3    H213944   4.998   2.425  14.680
 1041TIP3   OH213945   3.937   2.631  14.883
 1041TIP3    H113946   3.975   2.583  14.959
 1041TIP3    H213947   3.953   2.566  14.810
 1042TIP3   OH213948   4.374   2.752  14.812
 1042TIP3    H113949   4.446   2.700  14.853
 1042TIP3    H213950   4.327   2.682  14.760
 1043TIP3   OH213951   4.158   2.241  15.222
 1043TIP3    H113952   4.127   2.300  15.150
 1043TIP3    H213953   4.079   2.247  15.278
 1044TIP3   OH213954   4.755   3.197  14.592
 1044TIP3    H113955   4.774   3.251  14.515
 1044TIP3    H213956   4.720   3.264  14.653
 1045TIP3   OH213957   4.380   3.012  15.193
 1045TIP3    H113958   4.322   3.088  15.213
 1045TIP3    H213959   4.460   3.056  15.155
 1046TIP3   OH213960   4.096   2.440  15.020
 1046TIP3    H113961   4.148   2.509  15.069
 1046TIP3    H213962   4.150   2.429  14.939
 1047TIP3   OH213963   4.177   3.148  15.306
 1047TIP3    H113964   4.210   3.224  15.253
 1047TIP3    H213965   4.090   3.179  15.339
 1048TIP3   OH213966   3.819   3.134  14.421
 1048TIP3    H113967   3.789   3.210  14.368
 1048TIP3    H213968   3.833   3.180  14.506
 1049TIP3   OH213969   4.477   1.967  14.965
 1049TIP3    H113970   4.441   1.878  14.980
 1049TIP3    H213971   4.397   2.020  14.990
 1050TIP3   OH213972   5.009   3.487  14.691
 1050TIP3    H113973   5.014   3.391  14.686
 1050TIP3    H213974   5.091   3.510  14.739
 1051TIP3   OH213975   4.691   2.837  14.412
 1051TIP3    H113976   4.645   2.912  14.374
 1051TIP3    H213977   4.697   2.779  14.334
 1052TIP3   OH213978   5.044   2.796  14.541
 1052TIP3    H113979   4.967   2.829  14.592
 1052TIP3    H213980   5.118   2.847  14.580
 1053TIP3   OH213981   5.012   2.642  15.405
 1053TIP3    H113982   4.972   2.696  15.475
 1053TIP3    H213983   4.962   2.666  15.326
 1054TIP3   OH213984   4.211   2.961  14.739
 1054TIP3    H113985   4.172   2.939  14.651
 1054TIP3    H213986   4.279   2.890  14.748
 1055TIP3   OH213987   4.524   3.237  14.942
 1055TIP3    H113988   4.455   3.242  14.875
 1055TIP3    H213989   4.482   3.285  15.015
 1056TIP3   OH213990   4.297   2.793  15.065
 1056TIP3    H113991   4.312   2.802  14.969
 1056TIP3    H213992   4.335   2.877  15.102
 1057TIP3   OH213993   4.916   3.407  15.134
 1057TIP3    H113994   4.953   3.467  15.202
 1057TIP3    H213995   4.929   3.319  15.174
 1058TIP3   OH213996   4.355   3.182  15.519
 1058TIP3    H113997   4.322   3.268  15.553
 1058TIP3    H213998   4.297   3.171  15.440
 1059TIP3   OH213999   5.015   2.771  14.281
 1059TIP3    H114000   5.024   2.780  14.379
 1059TIP3    H214001   4.988   2.861  14.261
 1060TIP3   OH214002   4.073   2.876  15.431
 1060TIP3    H114003   4.069   2.938  15.507
 1060TIP3    H214004   3.980   2.844  15.429
 1061TIP3   OH214005   4.727   3.500  14.571
 1061TIP3    H114006   4.786   3.531  14.641
 1061TIP3    H214007   4.680   3.582  14.543
 1062TIP3   OH214008   4.279   3.437  15.642
 1062TIP3    H114009   4.296   3.494  15.564
 1062TIP3    H214010   4.182   3.441  15.638
 1063TIP3   OH214011   4.101   2.824  14.511
 1063TIP3    H114012   4.053   2.878  14.446
 1063TIP3    H214013   4.115   2.742  14.461
 1064TIP3   OH214014   3.813   3.078  15.364
 1064TIP3    H114015   3.733   3.091  15.307
 1064TIP3    H214016   3.839   2.990  15.333
 1065TIP3   OH214017   3.772   3.392  14.980
 1065TIP3    H114018   3.805   3.302  14.962
 1065TIP3    H214019   3.828   3.416  15.055
 1066TIP3   OH214020   4.679   3.355  15.512
 1066TIP3    H114021   4.689   3.444  15.553
 1066TIP3    H214022   4.602   3.371  15.455
 1067TIP3   OH214023   4.682   3.753  14.461
 1067TIP3    H114024   4.703   3.776  14.368
 1067TIP3    H214025   4.691   3.838  14.507
 1068TIP3   OH214026   4.072   3.616  14.672
 1068TIP3    H114027   4.119   3.593  14.756
 1068TIP3    H214028   3.984   3.583  14.692
 1069TIP3   OH214029   4.958   3.683  14.435
 1069TIP3    H114030   4.864   3.661  14.436
 1069TIP3    H214031   4.997   3.598  14.412
 1070TIP3   OH214032   3.979   3.273  15.456
 1070TIP3    H114033   4.006   3.228  15.538
 1070TIP3    H214034   3.913   3.209  15.423
 1071TIP3   OH214035   4.246   2.071  15.039
 1071TIP3    H114036   4.156   2.066  15.003
 1071TIP3    H214037   4.233   2.139  15.108
 1072TIP3   OH214038   4.724   2.006  15.387
 1072TIP3    H114039   4.748   1.991  15.480
 1072TIP3    H214040   4.625   2.010  15.387
 1073TIP3   OH214041   5.142   2.422  15.494
 1073TIP3    H114042   5.056   2.404  15.535
 1073TIP3    H214043   5.122   2.510  15.455
 1074TIP3   OH214044   4.292   2.554  15.173
 1074TIP3    H114045   4.235   2.574  15.250
 1074TIP3    H214046   4.286   2.641  15.127
 1075TIP3   OH214047   4.226   2.558  14.689
 1075TIP3    H114048   4.131   2.550  14.667
 1075TIP3    H214049   4.271   2.552  14.601
 1076TIP3   OH214050   4.765   2.600  14.546
 1076TIP3    H114051   4.742   2.687  14.506
 1076TIP3    H214052   4.858   2.589  14.515
 1077TIP3   OH214053   4.725   2.651  15.680
 1077TIP3    H114054   4.681   2.569  15.712
 1077TIP3    H214055   4.804   2.654  15.738
 1078TIP3   OH214056   4.860   2.582  14.823
 1078TIP3    H114057   4.828   2.643  14.753
 1078TIP3    H214058   4.867   2.499  14.772
 1079TIP3   OH214059   4.006   2.566  15.273
 1079TIP3    H114060   4.037   2.611  15.353
 1079TIP3    H214061   3.986   2.475  15.306
 1080TIP3   OH214062   3.709   2.271  14.780
 1080TIP3    H114063   3.789   2.281  14.834
 1080TIP3    H214064   3.735   2.298  14.690
 1081TIP3   OH214065   3.834   2.405  14.259
 1081TIP3    H114066   3.870   2.456  14.184
 1081TIP3    H214067   3.765   2.465  14.290
 1082TIP3   OH214068   4.750   2.721  15.255
 1082TIP3    H114069   4.788   2.650  15.198
 1082TIP3    H214070   4.725   2.665  15.332
 1083TIP3   OH214071   4.551   2.331  14.778
 1083TIP3    H114072   4.462   2.342  14.817
 1083TIP3    H214073   4.588   2.260  14.833
 1084TIP3   OH214074   3.974   2.466  14.680
 1084TIP3    H114075   3.916   2.505  14.611
 1084TIP3    H214076   3.995   2.377  14.643
 1085TIP3   OH214077   4.379   2.538  14.469
 1085TIP3    H114078   4.462   2.502  14.433
 1085TIP3    H214079   4.347   2.593  14.394
 1086TIP3   OH214080   4.999   2.194  15.100
 1086TIP3    H114081   4.907   2.214  15.123
 1086TIP3    H214082   4.990   2.144  15.016
 1087TIP3   OH214083   4.240   2.633  14.240
 1087TIP3    H114084   4.165   2.606  14.185
 1087TIP3    H214085   4.304   2.672  14.178
 1088TIP3   OH214086   4.037   3.075  15.636
 1088TIP3    H114087   4.100   3.095  15.708
 1088TIP3    H214088   3.967   3.032  15.688
 1089TIP3   OH214089   4.606   2.614  14.923
 1089TIP3    H114090   4.687   2.580  14.879
 1089TIP3    H214091   4.620   2.585  15.014
 1090TIP3   OH214092   4.070   2.221  14.628
 1090TIP3    H114093   4.021   2.147  14.670
 1090TIP3    H214094   4.148   2.175  14.598
 1091TIP3   OH214095   4.511   2.390  15.169
 1091TIP3    H114096   4.438   2.457  15.169
 1091TIP3    H214097   4.578   2.431  15.224
 1092TIP3   OH214098   4.517   3.111  14.355
 1092TIP3    H114099   4.454   3.051  14.398
 1092TIP3    H214100   4.545   3.157  14.437
 1093TIP3   OH214101   4.728   3.072  15.481
 1093TIP3    H114102   4.819   3.062  15.519
 1093TIP3    H214103   4.710   3.169  15.488
 1094TIP3   OH214104   4.994   2.539  14.415
 1094TIP3    H114105   5.038   2.459  14.382
 1094TIP3    H214106   5.011   2.601  14.340
 1095TIP3   OH214107   4.043   3.000  14.950
 1095TIP3    H114108   4.109   2.994  14.878
 1095TIP3    H214109   4.073   2.928  15.011
 1096TIP3   OH214110   3.809   2.766  15.436
 1096TIP3    H114111   3.822   2.773  15.532
 1096TIP3    H214112   3.715   2.744  15.430
 1097TIP3   OH214113   4.471   2.768  15.626
 1097TIP3    H114114   4.419   2.708  15.570
 1097TIP3    H214115   4.555   2.717  15.638
 1098TIP3   OH214116   4.957   3.290  15.495
 1098TIP3    H114117   4.865   3.316  15.481
 1098TIP3    H214118   4.985   3.362  15.556
 1099TIP3   OH214119   5.012   2.932  15.121
 1099TIP3    H114120   4.946   2.905  15.054
 1099TIP3    H214121   5.092   2.956  15.072
 1100TIP3   OH214122   4.302   3.350  14.704
 1100TIP3    H114123   4.340   3.440  14.708
 1100TIP3    H214124   4.213   3.367  14.670
 1101TIP3   OH214125   4.428   3.118  14.613
 1101TIP3    H114126   4.381   3.198  14.644
 1101TIP3    H214127   4.419   3.061  14.690
 1102TIP3   OH214128   4.544   3.616  15.224
 1102TIP3    H114129   4.633   3.655  15.206
 1102TIP3    H214130   4.568   3.525  15.250
 1103TIP3   OH214131   4.351   3.639  14.584
 1103TIP3    H114132   4.254   3.636  14.589
 1103TIP3    H214133   4.372   3.734  14.600
 1104TIP3   OH214134   4.857   3.107  15.241
 1104TIP3    H114135   4.819   3.063  15.319
 1104TIP3    H214136   4.913   3.036  15.200
 1105TIP3   OH214137   3.946   2.325  15.385
 1105TIP3    H114138   3.872   2.384  15.411
 1105TIP3    H214139   3.931   2.248  15.443
 1106TIP3   OH214140   3.934   3.511  15.246
 1106TIP3    H114141   3.963   3.423  15.273
 1106TIP3    H214142   3.974   3.563  15.318
 1107TIP3   OH214143   4.540   3.353  14.054
 1107TIP3    H114144   4.462   3.341  14.111
 1107TIP3    H214145   4.598   3.398  14.117
 1108TIP3   OH214146   4.340   3.303  14.236
 1108TIP3    H114147   4.404   3.242  14.278
 1108TIP3    H214148   4.355   3.389  14.282
 1109TIP3   OH214149   4.052   3.059  14.241
 1109TIP3    H114150   3.971   3.056  14.295
 1109TIP3    H214151   4.104   3.130  14.279
 1110TIP3   OH214152   4.776   2.289  15.374
 1110TIP3    H114153   4.872   2.300  15.381
 1110TIP3    H214154   4.767   2.191  15.371
 1111TIP3   OH214155   4.932   2.213  14.441
 1111TIP3    H114156   4.858   2.276  14.444
 1111TIP3    H214157   4.956   2.207  14.536
 1112TIP3   OH214158   4.648   2.355  14.515
 1112TIP3    H114159   4.688   2.445  14.520
 1112TIP3    H214160   4.594   2.357  14.598
 1113TIP3   OH214161   4.680   2.544  15.439
 1113TIP3    H114162   4.709   2.568  15.529
 1113TIP3    H214163   4.709   2.450  15.432
 1114TIP3   OH214164   4.656   2.092  14.610
 1114TIP3    H114165   4.677   2.105  14.705
 1114TIP3    H214166   4.664   2.185  14.578
 1115TIP3   OH214167   4.372   3.571  14.320
 1115TIP3    H114168   4.413   3.649  14.278
 1115TIP3    H214169   4.375   3.596  14.415
 1116TIP3   OH214170   3.987   2.039  14.986
 1116TIP3    H114171   3.963   2.023  14.891
 1116TIP3    H214172   3.975   1.947  15.019
 1117TIP3   OH214173   3.843   3.377  14.528
 1117TIP3    H114174   3.798   3.430  14.594
 1117TIP3    H214175   3.866   3.448  14.464
 1118TIP3   OH214176   3.790   3.686  15.718
 1118TIP3    H114177   3.868   3.667  15.776
 1118TIP3    H214178   3.767   3.596  15.686
 1119TIP3   OH214179   4.303   3.546  15.894
 1119TIP3    H114180   4.398   3.524  15.901
 1119TIP3    H214181   4.281   3.497  15.813
 1120TIP3   OH214182   4.923   3.445  15.733
 1120TIP3    H114183   4.887   3.355  15.751
 1120TIP3    H214184   4.995   3.446  15.798
 1121TIP3   OH214185   3.856   3.091  15.833
 1121TIP3    H114186   3.811   3.028  15.891
 1121TIP3    H214187   3.799   3.083  15.755
 1122TIP3   OH214188   4.483   3.036  15.712
 1122TIP3    H114189   4.399   3.078  15.684
 1122TIP3    H214190   4.465   2.941  15.723
 1123TIP3   OH214191   5.006   3.032  15.554
 1123TIP3    H114192   5.093   3.026  15.510
 1123TIP3    H214193   4.993   3.128  15.541
 1124TIP3   OH214194   3.863   2.827  15.700
 1124TIP3    H114195   3.847   2.731  15.720
 1124TIP3    H214196   3.865   2.857  15.792
 1125TIP3   OH214197   4.249   2.669  15.404
 1125TIP3    H114198   4.195   2.750  15.419
 1125TIP3    H214199   4.329   2.709  15.363
 1126TIP3   OH214200   4.828   2.954  15.819
 1126TIP3    H114201   4.907   2.936  15.767
 1126TIP3    H214202   4.829   2.879  15.880
 1127TIP3   OH214203   4.326   2.483  15.573
 1127TIP3    H114204   4.348   2.401  15.524
 1127TIP3    H214205   4.291   2.539  15.500
 1128TIP3   OH214206   4.385   2.265  15.373
 1128TIP3    H114207   4.442   2.302  15.302
 1128TIP3    H214208   4.296   2.269  15.331
 1129TIP3   OH214209   4.487   2.814  15.340
 1129TIP3    H114210   4.570   2.785  15.295
 1129TIP3    H214211   4.451   2.879  15.274
 1130TIP3   OH214212   4.941   2.546  15.895
 1130TIP3    H114213   4.892   2.467  15.868
 1130TIP3    H214214   5.034   2.518  15.882
 1131TIP3   OH214215   4.188   2.524  15.817
 1131TIP3    H114216   4.105   2.473  15.815
 1131TIP3    H214217   4.218   2.514  15.725
 1132TIP3   OH214218   4.451   2.006  15.331
 1132TIP3    H114219   4.418   2.094  15.359
 1132TIP3    H214220   4.369   1.962  15.305
 1133TIP3   OH214221   4.563   2.429  15.741
 1133TIP3    H114222   4.510   2.409  15.820
 1133TIP3    H214223   4.502   2.403  15.670
 1134TIP3   OH214224   4.846   2.340  15.664
 1134TIP3    H114225   4.754   2.323  15.690
 1134TIP3    H214226   4.899   2.282  15.723
 1135TIP3   OH214227   4.999   2.216  15.849
 1135TIP3    H114228   5.004   2.117  15.844
 1135TIP3    H214229   5.002   2.229  15.946
 1136TIP3   OH214230   3.966   2.304  15.786
 1136TIP3    H114231   3.962   2.229  15.722
 1136TIP3    H214232   3.981   2.255  15.869
 1137TIP3   OH214233   4.469   1.931  15.676
 1137TIP3    H114234   4.548   1.876  15.656
 1137TIP3    H214235   4.432   1.942  15.587
 1138TIP3   OH214236   4.472   2.055  15.929
 1138TIP3    H114237   4.489   1.996  15.853
 1138TIP3    H214238   4.417   2.121  15.883
 1139TIP3   OH214239   4.472   3.841  14.146
 1139TIP3    H114240   4.567   3.826  14.167
 1139TIP3    H214241   4.474   3.845  14.049
 1140TIP3   OH214242   3.702   3.794  14.654
 1140TIP3    H114243   3.650   3.746  14.588
 1140TIP3    H214244   3.723   3.722  14.717
 1141TIP3   OH214245   3.796   3.595  14.807
 1141TIP3    H114246   3.765   3.512  14.850
 1141TIP3    H214247   3.851   3.633  14.879
 1142TIP3   OH214248   3.772   2.834  15.108
 1142TIP3    H114249   3.754   2.877  15.023
 1142TIP3    H214250   3.870   2.845  15.118
 1143TIP3   OH214251   3.767   2.402  15.641
 1143TIP3    H114252   3.852   2.396  15.690
 1143TIP3    H214253   3.723   2.320  15.674
 1144TIP3   OH214254   3.871   2.267  15.064
 1144TIP3    H114255   3.915   2.186  15.027
 1144TIP3    H214256   3.942   2.334  15.061
 1145TIP3   OH214257   3.727   2.578  15.041
 1145TIP3    H114258   3.787   2.570  14.965
 1145TIP3    H214259   3.739   2.673  15.067
 1146TIP3   OH214260   3.669   2.255  14.500
 1146TIP3    H114261   3.582   2.215  14.485
 1146TIP3    H214262   3.713   2.235  14.415
 1147TIP3   OH214263   3.718   2.040  15.307
 1147TIP3    H114264   3.656   2.026  15.381
 1147TIP3    H214265   3.672   2.108  15.255
 1148TIP3   OH214266   4.003   3.393  15.761
 1148TIP3    H114267   3.910   3.407  15.741
 1148TIP3    H214268   4.005   3.299  15.784
 1149TIP3   OH214269   4.257   3.537  15.387
 1149TIP3    H114270   4.261   3.619  15.333
 1149TIP3    H214271   4.278   3.473  15.315
 1150TIP3   OH214272   4.654   3.648  15.616
 1150TIP3    H114273   4.663   3.616  15.708
 1150TIP3    H214274   4.740   3.694  15.606
 1151TIP3   OH214275   4.887   3.775  15.612
 1151TIP3    H114276   4.951   3.728  15.556
 1151TIP3    H214277   4.933   3.788  15.698
 1152TIP3   OH214278   3.993   3.827  15.329
 1152TIP3    H114279   3.922   3.890  15.304
 1152TIP3    H214280   3.974   3.819  15.424
 1153TIP3   OH214281   4.213   3.732  15.204
 1153TIP3    H114282   4.126   3.761  15.241
 1153TIP3    H214283   4.244   3.815  15.161
 1154TIP3   OH214284   4.769   3.760  15.169
 1154TIP3    H114285   4.767   3.829  15.102
 1154TIP3    H214286   4.755   3.816  15.249
 1155TIP3   OH214287   4.977   3.639  15.293
 1155TIP3    H114288   4.900   3.660  15.235
 1155TIP3    H214289   5.021   3.725  15.294
 1156TIP3   OH214290   3.950   3.679  15.027
 1156TIP3    H114291   3.929   3.627  15.108
 1156TIP3    H214292   4.041   3.645  15.013
 1157TIP3   OH214293   4.185   3.575  14.924
 1157TIP3    H114294   4.170   3.482  14.953
 1157TIP3    H214295   4.272   3.591  14.967
 1158TIP3   OH214296   4.451   3.575  14.985
 1158TIP3    H114297   4.425   3.482  15.005
 1158TIP3    H214298   4.465   3.603  15.078
 1159TIP3   OH214299   4.697   2.107  14.886
 1159TIP3    H114300   4.630   2.052  14.932
 1159TIP3    H214301   4.779   2.057  14.894
 1160TIP3   OH214302   3.933   1.994  14.723
 1160TIP3    H114303   3.849   1.990  14.672
 1160TIP3    H214304   3.978   1.914  14.688
 1161TIP3   OH214305   4.421   1.991  14.682
 1161TIP3    H114306   4.500   2.036  14.647
 1161TIP3    H214307   4.436   2.000  14.778
 1162TIP3   OH214308   5.005   2.001  14.864
 1162TIP3    H114309   5.032   2.022  14.773
 1162TIP3    H214310   4.971   1.910  14.860
 1163TIP3   OH214311   3.803   3.590  14.367
 1163TIP3    H114312   3.707   3.581  14.366
 1163TIP3    H214313   3.818   3.678  14.331
 1164TIP3   OH214314   4.736   3.751  14.189
 1164TIP3    H114315   4.823   3.787  14.164
 1164TIP3    H214316   4.759   3.656  14.196
 1165TIP3   OH214317   3.943   2.057  15.646
 1165TIP3    H114318   3.890   1.977  15.666
 1165TIP3    H214319   4.030   2.031  15.683
 1166TIP3   OH214320   4.145   1.966  15.815
 1166TIP3    H114321   4.237   1.950  15.792
 1166TIP3    H214322   4.116   1.879  15.849
 1167TIP3   OH214323   5.046   1.951  15.853
 1167TIP3    H114324   5.082   1.922  15.939
 1167TIP3    H214325   5.117   1.922  15.792
 1168TIP3   OH214326   1.148   4.798  14.647
 1168TIP3    H114327   1.170   4.893  14.658
 1168TIP3    H214328   1.054   4.807  14.633
 1169TIP3   OH214329   1.048   4.670  14.979
 1169TIP3    H114330   1.029   4.671  15.075
 1169TIP3    H214331   0.958   4.672  14.940
 1170TIP3   OH214332   0.228   4.700  15.181
 1170TIP3    H114333   0.207   4.614  15.222
 1170TIP3    H214334   0.300   4.731  15.238
 1171TIP3   OH214335   1.294   5.079  14.889
 1171TIP3    H114336   1.336   4.996  14.914
 1171TIP3    H214337   1.369   5.142  14.890
 1172TIP3   OH214338   0.327   5.123  15.049
 1172TIP3    H114339   0.302   5.034  15.019
 1172TIP3    H214340   0.420   5.125  15.014
 1173TIP3   OH214341  -0.081   4.456  14.650
 1173TIP3    H114342  -0.028   4.515  14.706
 1173TIP3    H214343  -0.071   4.496  14.562
 1174TIP3   OH214344   0.094   4.742  14.782
 1174TIP3    H114345   0.114   4.651  14.816
 1174TIP3    H214346   0.114   4.736  14.689
 1175TIP3   OH214347   0.798   4.973  15.086
 1175TIP3    H114348   0.833   4.988  14.997
 1175TIP3    H214349   0.878   4.997  15.138
 1176TIP3   OH214350   1.704   4.130  15.062
 1176TIP3    H114351   1.716   4.177  15.147
 1176TIP3    H214352   1.794   4.140  15.024
 1177TIP3   OH214353   1.196   4.433  15.123
 1177TIP3    H114354   1.236   4.348  15.148
 1177TIP3    H214355   1.202   4.427  15.025
 1178TIP3   OH214356   0.450   4.219  14.791
 1178TIP3    H114357   0.504   4.276  14.734
 1178TIP3    H214358   0.396   4.168  14.725
 1179TIP3   OH214359   1.267   4.213  14.638
 1179TIP3    H114360   1.292   4.186  14.729
 1179TIP3    H214361   1.281   4.308  14.644
 1180TIP3   OH214362   0.164   4.503  14.865
 1180TIP3    H114363   0.210   4.454  14.935
 1180TIP3    H214364   0.176   4.442  14.789
 1181TIP3   OH214365   0.610   4.624  14.845
 1181TIP3    H114366   0.694   4.584  14.875
 1181TIP3    H214367   0.577   4.554  14.784
 1182TIP3   OH214368   1.718   4.266  15.368
 1182TIP3    H114369   1.686   4.355  15.343
 1182TIP3    H214370   1.743   4.278  15.461
 1183TIP3   OH214371   0.407   4.130  15.230
 1183TIP3    H114372   0.366   4.139  15.142
 1183TIP3    H214373   0.327   4.130  15.285
 1184TIP3   OH214374   1.084   5.056  14.588
 1184TIP3    H114375   1.051   5.050  14.496
 1184TIP3    H214376   1.003   5.087  14.631
 1185TIP3   OH214377   0.607   4.875  15.235
 1185TIP3    H114378   0.543   4.944  15.261
 1185TIP3    H214379   0.674   4.925  15.184
 1186TIP3   OH214380   1.410   4.189  14.883
 1186TIP3    H114381   1.430   4.114  14.941
 1186TIP3    H214382   1.494   4.237  14.890
 1187TIP3   OH214383   0.302   4.305  15.006
 1187TIP3    H114384   0.371   4.355  15.056
 1187TIP3    H214385   0.356   4.270  14.931
 1188TIP3   OH214386   0.459   5.112  15.291
 1188TIP3    H114387   0.409   5.131  15.209
 1188TIP3    H214388   0.383   5.115  15.353
 1189TIP3   OH214389   0.012   5.016  14.454
 1189TIP3    H114390   0.071   5.026  14.377
 1189TIP3    H214391  -0.007   5.110  14.471
 1190TIP3   OH214392   1.378   5.209  15.159
 1190TIP3    H114393   1.300   5.177  15.110
 1190TIP3    H214394   1.443   5.215  15.086
 1191TIP3   OH214395   1.463   4.047  15.185
 1191TIP3    H114396   1.375   4.049  15.139
 1191TIP3    H214397   1.508   4.120  15.140
 1192TIP3   OH214398   0.716   3.861  14.958
 1192TIP3    H114399   0.674   3.774  14.965
 1192TIP3    H214400   0.638   3.920  14.970
 1193TIP3   OH214401   1.342   5.171  14.562
 1193TIP3    H114402   1.364   5.101  14.497
 1193TIP3    H214403   1.282   5.117  14.617
 1194TIP3   OH214404   1.505   5.081  15.440
 1194TIP3    H114405   1.521   5.010  15.374
 1194TIP3    H214406   1.442   5.133  15.388
 1195TIP3   OH214407   0.952   4.778  14.389
 1195TIP3    H114408   0.861   4.789  14.353
 1195TIP3    H214409   0.986   4.869  14.377
 1196TIP3   OH214410   1.052   4.553  14.098
 1196TIP3    H114411   1.003   4.598  14.168
 1196TIP3    H214412   1.053   4.460  14.124
 1197TIP3   OH214413   1.740   4.707  15.239
 1197TIP3    H114414   1.681   4.782  15.261
 1197TIP3    H214415   1.808   4.748  15.180
 1198TIP3   OH214416   1.318   4.610  14.561
 1198TIP3    H114417   1.257   4.676  14.603
 1198TIP3    H214418   1.398   4.623  14.616
 1199TIP3   OH214419   1.327   4.582  15.421
 1199TIP3    H114420   1.302   4.652  15.484
 1199TIP3    H214421   1.267   4.605  15.348
 1200TIP3   OH214422   0.540   4.794  14.644
 1200TIP3    H114423   0.535   4.754  14.555
 1200TIP3    H214424   0.562   4.720  14.703
 1201TIP3   OH214425   0.592   5.133  14.980
 1201TIP3    H114426   0.612   5.129  14.885
 1201TIP3    H214427   0.654   5.071  15.022
 1202TIP3   OH214428   0.488   4.691  15.068
 1202TIP3    H114429   0.537   4.689  14.982
 1202TIP3    H214430   0.537   4.757  15.120
 1203TIP3   OH214431   0.563   5.045  15.546
 1203TIP3    H114432   0.498   5.094  15.600
 1203TIP3    H214433   0.515   5.040  15.461
 1204TIP3   OH214434   0.340   4.733  15.445
 1204TIP3    H114435   0.326   4.792  15.522
 1204TIP3    H214436   0.245   4.711  15.428
 1205TIP3   OH214437   1.558   3.868  14.242
 1205TIP3    H114438   1.461   3.871  14.257
 1205TIP3    H214439   1.587   3.942  14.298
 1206TIP3   OH214440   0.026   4.963  15.337
 1206TIP3    H114441  -0.011   4.942  15.250
 1206TIP3    H214442   0.070   4.878  15.356
 1207TIP3   OH214443   1.434   4.410  15.656
 1207TIP3    H114444   1.389   4.455  15.582
 1207TIP3    H214445   1.408   4.317  15.644
 1208TIP3   OH214446   0.243   5.089  15.445
 1208TIP3    H114447   0.239   5.033  15.526
 1208TIP3    H214448   0.156   5.070  15.405
 1209TIP3   OH214449   0.503   4.010  15.000
 1209TIP3    H114450   0.413   4.006  14.964
 1209TIP3    H214451   0.487   3.972  15.090
 1210TIP3   OH214452   0.965   3.929  15.377
 1210TIP3    H114453   0.976   3.897  15.468
 1210TIP3    H214454   0.867   3.930  15.368
 1211TIP3   OH214455   1.258   4.312  15.420
 1211TIP3    H114456   1.196   4.295  15.495
 1211TIP3    H214457   1.237   4.404  15.401
 1212TIP3   OH214458   0.516   4.429  15.124
 1212TIP3    H114459   0.492   4.440  15.218
 1212TIP3    H214460   0.498   4.522  15.097
 1213TIP3   OH214461   0.518   4.454  14.640
 1213TIP3    H114462   0.423   4.438  14.646
 1213TIP3    H214463   0.534   4.434  14.545
 1214TIP3   OH214464   1.029   4.514  14.552
 1214TIP3    H114465   0.991   4.602  14.539
 1214TIP3    H214466   1.123   4.534  14.541
 1215TIP3   OH214467   0.905   4.580  15.685
 1215TIP3    H114468   0.870   4.489  15.702
 1215TIP3    H214469   0.984   4.576  15.741
 1216TIP3   OH214470   1.196   4.488  14.854
 1216TIP3    H114471   1.149   4.569  14.887
 1216TIP3    H214472   1.145   4.468  14.774
 1217TIP3   OH214473   0.216   4.446  15.281
 1217TIP3    H114474   0.281   4.452  15.353
 1217TIP3    H214475   0.203   4.349  15.275
 1218TIP3   OH214476   0.550   4.258  14.041
 1218TIP3    H114477   0.539   4.198  14.118
 1218TIP3    H214478   0.482   4.222  13.983
 1219TIP3   OH214479   0.020   4.151  14.734
 1219TIP3    H114480   0.029   4.090  14.807
 1219TIP3    H214481   0.006   4.094  14.656
 1220TIP3   OH214482   0.031   4.345  14.328
 1220TIP3    H114483   0.114   4.323  14.285
 1220TIP3    H214484  -0.032   4.300  14.269
 1221TIP3   OH214485   1.049   4.625  15.250
 1221TIP3    H114486   1.113   4.566  15.204
 1221TIP3    H214487   0.991   4.556  15.289
 1222TIP3   OH214488   0.742   4.187  14.807
 1222TIP3    H114489   0.647   4.184  14.828
 1222TIP3    H214490   0.781   4.157  14.890
 1223TIP3   OH214491   0.200   4.376  14.635
 1223TIP3    H114492   0.127   4.368  14.571
 1223TIP3    H214493   0.216   4.281  14.654
 1224TIP3   OH214494   0.537   4.411  14.370
 1224TIP3    H114495   0.631   4.435  14.365
 1224TIP3    H214496   0.496   4.491  14.331
 1225TIP3   OH214497   1.221   4.073  15.093
 1225TIP3    H114498   1.134   4.074  15.135
 1225TIP3    H214499   1.198   4.065  14.999
 1226TIP3   OH214500   0.269   4.908  15.644
 1226TIP3    H114501   0.339   4.931  15.709
 1226TIP3    H214502   0.191   4.901  15.703
 1227TIP3   OH214503   0.840   4.496  14.905
 1227TIP3    H114504   0.926   4.456  14.886
 1227TIP3    H214505   0.808   4.437  14.976
 1228TIP3   OH214506   0.302   4.108  14.601
 1228TIP3    H114507   0.265   4.019  14.624
 1228TIP3    H214508   0.349   4.087  14.519
 1229TIP3   OH214509   0.779   4.319  15.160
 1229TIP3    H114510   0.686   4.348  15.167
 1229TIP3    H214511   0.824   4.361  15.234
 1230TIP3   OH214512   1.543   4.903  15.247
 1230TIP3    H114513   1.577   4.962  15.176
 1230TIP3    H214514   1.461   4.869  15.205
 1231TIP3   OH214515   0.909   5.009  15.453
 1231TIP3    H114516   0.917   4.976  15.544
 1231TIP3    H214517   0.852   5.086  15.463
 1232TIP3   OH214518   0.380   4.882  14.904
 1232TIP3    H114519   0.405   4.851  14.815
 1232TIP3    H214520   0.372   4.800  14.957
 1233TIP3   OH214521   0.979   5.063  14.340
 1233TIP3    H114522   0.987   5.160  14.335
 1233TIP3    H214523   0.885   5.046  14.320
 1234TIP3   OH214524   0.074   4.694  15.432
 1234TIP3    H114525   0.052   4.704  15.528
 1234TIP3    H214526  -0.008   4.650  15.403
 1235TIP3   OH214527   0.634   4.672  15.645
 1235TIP3    H114528   0.613   4.710  15.558
 1235TIP3    H214529   0.718   4.626  15.623
 1236TIP3   OH214530   1.162   5.172  15.517
 1236TIP3    H114531   1.086   5.217  15.479
 1236TIP3    H214532   1.184   5.232  15.591
 1237TIP3   OH214533   1.749   4.427  14.351
 1237TIP3    H114534   1.660   4.405  14.320
 1237TIP3    H214535   1.762   4.516  14.316
 1238TIP3   OH214536   1.749   4.983  15.567
 1238TIP3    H114537   1.663   5.010  15.533
 1238TIP3    H214538   1.808   4.997  15.490
 1239TIP3   OH214539   1.325   4.801  15.075
 1239TIP3    H114540   1.242   4.752  15.080
 1239TIP3    H214541   1.385   4.740  15.026
 1240TIP3   OH214542   0.507   0.009  14.662
 1240TIP3    H114543   0.561   0.088  14.683
 1240TIP3    H214544   0.419   0.048  14.651
 1241TIP3   OH214545   0.102   4.745  14.182
 1241TIP3    H114546   0.189   4.749  14.224
 1241TIP3    H214547   0.077   4.840  14.185
 1242TIP3   OH214548   0.717   5.032  14.667
 1242TIP3    H114549   0.634   5.079  14.643
 1242TIP3    H214550   0.680   4.943  14.677
 1243TIP3   OH214551   1.042   5.009  15.191
 1243TIP3    H114552   1.020   4.997  15.286
 1243TIP3    H214553   1.107   4.938  15.177
 1244TIP3   OH214554   1.229   5.119  14.159
 1244TIP3    H114555   1.323   5.107  14.175
 1244TIP3    H214556   1.196   5.029  14.170
 1245TIP3   OH214557   0.173   4.186  15.370
 1245TIP3    H114558   0.080   4.208  15.392
 1245TIP3    H214559   0.196   4.129  15.446
 1246TIP3   OH214560   1.391   4.959  14.381
 1246TIP3    H114561   1.408   4.874  14.422
 1246TIP3    H214562   1.478   4.977  14.339
 1247TIP3   OH214563   0.588   5.240  14.265
 1247TIP3    H114564   0.653   5.230  14.334
 1247TIP3    H214565   0.614   5.324  14.224
 1248TIP3   OH214566   1.035   4.186  15.352
 1248TIP3    H114567   1.133   4.191  15.363
 1248TIP3    H214568   1.013   4.092  15.365
 1249TIP3   OH214569   0.849   4.285  14.566
 1249TIP3    H114570   0.877   4.378  14.579
 1249TIP3    H214571   0.803   4.267  14.651
 1250TIP3   OH214572   0.923   4.447  15.401
 1250TIP3    H114573   0.914   4.487  15.489
 1250TIP3    H214574   0.952   4.355  15.420
 1251TIP3   OH214575   0.929   4.016  14.596
 1251TIP3    H114576   0.948   4.000  14.690
 1251TIP3    H214577   0.930   4.114  14.594
 1252TIP3   OH214578   0.481   4.117  14.273
 1252TIP3    H114579   0.467   4.203  14.316
 1252TIP3    H214580   0.576   4.100  14.292
 1253TIP3   OH214581   1.478   4.171  15.475
 1253TIP3    H114582   1.398   4.222  15.451
 1253TIP3    H214583   1.538   4.187  15.400
 1254TIP3   OH214584   1.434   4.584  14.914
 1254TIP3    H114585   1.353   4.530  14.906
 1254TIP3    H214586   1.492   4.527  14.969
 1255TIP3   OH214587   0.337   5.093  14.331
 1255TIP3    H114588   0.366   5.185  14.318
 1255TIP3    H214589   0.416   5.049  14.299
 1256TIP3   OH214590   0.030   4.452  14.062
 1256TIP3    H114591   0.092   4.494  14.123
 1256TIP3    H214592   0.032   4.516  13.989
 1257TIP3   OH214593   0.222   3.927  14.978
 1257TIP3    H114594   0.240   3.888  14.891
 1257TIP3    H214595   0.220   3.846  15.033
 1258TIP3   OH214596   0.035   4.980  15.794
 1258TIP3    H114597  -0.018   4.923  15.854
 1258TIP3    H214598  -0.026   4.994  15.720
 1259TIP3   OH214599   0.754   4.933  15.711
 1259TIP3    H114600   0.703   4.974  15.637
 1259TIP3    H214601   0.744   4.838  15.689
 1260TIP3   OH214602   0.965   5.081  14.001
 1260TIP3    H114603   1.008   5.166  14.015
 1260TIP3    H214604   0.924   5.064  14.086
 1261TIP3   OH214605   1.269   4.929  15.491
 1261TIP3    H114606   1.355   4.973  15.501
 1261TIP3    H214607   1.209   5.007  15.501
 1262TIP3   OH214608   0.114   4.685  15.716
 1262TIP3    H114609   0.129   4.591  15.735
 1262TIP3    H214610   0.111   4.717  15.807
 1263TIP3   OH214611   0.473   4.519  15.378
 1263TIP3    H114612   0.418   4.595  15.407
 1263TIP3    H214613   0.561   4.558  15.393
 1264TIP3   OH214614   1.061   4.854  15.819
 1264TIP3    H114615   1.115   4.788  15.773
 1264TIP3    H214616   0.976   4.809  15.828
 1265TIP3   OH214617   0.538   4.319  15.545
 1265TIP3    H114618   0.574   4.249  15.486
 1265TIP3    H214619   0.496   4.384  15.485
 1266TIP3   OH214620   0.651   4.148  15.355
 1266TIP3    H114621   0.711   4.171  15.282
 1266TIP3    H214622   0.564   4.138  15.310
 1267TIP3   OH214623   0.736   4.704  15.396
 1267TIP3    H114624   0.831   4.707  15.374
 1267TIP3    H214625   0.695   4.769  15.333
 1268TIP3   OH214626   1.147   4.479  15.868
 1268TIP3    H114627   1.168   4.389  15.839
 1268TIP3    H214628   1.231   4.522  15.853
 1269TIP3   OH214629   1.260   4.701  15.658
 1269TIP3    H114630   1.261   4.788  15.611
 1269TIP3    H214631   1.351   4.700  15.690
 1270TIP3   OH214632   0.414   4.458  15.848
 1270TIP3    H114633   0.323   4.424  15.840
 1270TIP3    H214634   0.440   4.457  15.754
 1271TIP3   OH214635   0.713   3.888  15.319
 1271TIP3    H114636   0.660   3.969  15.337
 1271TIP3    H214637   0.655   3.822  15.361
 1272TIP3   OH214638   0.804   4.320  15.734
 1272TIP3    H114639   0.763   4.304  15.821
 1272TIP3    H214640   0.747   4.261  15.680
 1273TIP3   OH214641   1.125   4.278  15.649
 1273TIP3    H114642   1.030   4.293  15.657
 1273TIP3    H214643   1.141   4.213  15.720
 1274TIP3   OH214644   1.225   4.116  15.849
 1274TIP3    H114645   1.222   4.019  15.832
 1274TIP3    H214646   1.228   4.120  15.946
 1275TIP3   OH214647   0.219   4.215  15.764
 1275TIP3    H114648   0.228   4.137  15.706
 1275TIP3    H214649   0.182   4.178  15.846
 1276TIP3   OH214650   0.641   3.793  15.702
 1276TIP3    H114651   0.717   3.740  15.674
 1276TIP3    H214652   0.583   3.780  15.623
 1277TIP3   OH214653   0.706   3.939  15.916
 1277TIP3    H114654   0.683   3.873  15.847
 1277TIP3    H214655   0.682   4.017  15.862
 1278TIP3   OH214656   0.057   5.012  14.182
 1278TIP3    H114657   0.126   5.082  14.170
 1278TIP3    H214658   0.027   5.008  14.090
 1279TIP3   OH214659   1.610   5.106  15.884
 1279TIP3    H114660   1.522   5.066  15.891
 1279TIP3    H214661   1.590   5.201  15.882
 1280TIP3   OH214662   1.672   4.939  14.451
 1280TIP3    H114663   1.757   4.941  14.406
 1280TIP3    H214664   1.695   4.895  14.536
 1281TIP3   OH214665   1.751   4.794  14.659
 1281TIP3    H114666   1.680   4.728  14.673
 1281TIP3    H214667   1.821   4.764  14.721
 1282TIP3   OH214668   1.662   5.044  15.052
 1282TIP3    H114669   1.719   4.975  15.015
 1282TIP3    H214670   1.724   5.119  15.063
 1283TIP3   OH214671   1.564   4.587  14.675
 1283TIP3    H114672   1.587   4.493  14.670
 1283TIP3    H214673   1.527   4.593  14.766
 1284TIP3   OH214674   0.080   4.861  15.034
 1284TIP3    H114675   0.115   4.836  14.946
 1284TIP3    H214676   0.138   4.811  15.096
 1285TIP3   OH214677   1.609   4.748  15.596
 1285TIP3    H114678   1.651   4.664  15.621
 1285TIP3    H214679   1.686   4.801  15.570
 1286TIP3   OH214680   1.703   4.485  15.646
 1286TIP3    H114681   1.613   4.449  15.634
 1286TIP3    H214682   1.760   4.405  15.645
 1287TIP3   OH214683   1.468   4.119  14.065
 1287TIP3    H114684   1.563   4.096  14.081
 1287TIP3    H214685   1.442   4.052  14.000
 1288TIP3   OH214686   1.578   4.410  15.065
 1288TIP3    H114687   1.677   4.418  15.069
 1288TIP3    H214688   1.562   4.431  15.160
 1289TIP3   OH214689   1.579   4.500  15.316
 1289TIP3    H114690   1.494   4.525  15.355
 1289TIP3    H214691   1.620   4.587  15.297
 1290TIP3   OH214692  -0.043   4.308  15.696
 1290TIP3    H114693   0.054   4.304  15.708
 1290TIP3    H214694  -0.072   4.248  15.767
 1291TIP3   OH214695   1.822   3.920  15.896
 1291TIP3    H114696   1.856   3.841  15.851
 1291TIP3    H214697   1.798   3.976  15.818
 1292TIP3   OH214698   1.551   4.018  14.470
 1292TIP3    H114699   1.582   3.971  14.550
 1292TIP3    H214700   1.460   3.984  14.462
 1293TIP3   OH214701   0.073   4.159  15.023
 1293TIP3    H114702   0.120   4.074  15.015
 1293TIP3    H214703   0.147   4.222  15.016
 1294TIP3   OH214704  -0.043   4.457  15.073
 1294TIP3    H114705  -0.000   4.378  15.036
 1294TIP3    H214706   0.032   4.519  15.076
 1295TIP3   OH214707   1.723   4.039  15.672
 1295TIP3    H114708   1.646   4.096  15.693
 1295TIP3    H214709   1.693   4.000  15.588
 1296TIP3   OH214710   1.728   4.092  14.139
 1296TIP3    H114711   1.765   4.005  14.115
 1296TIP3    H214712   1.802   4.132  14.189
 1297TIP3   OH214713  -0.038   4.075  14.470
 1297TIP3    H114714  -0.133   4.068  14.455
 1297TIP3    H214715  -0.005   4.036  14.387
 1298TIP3   OH214716  -0.030   3.909  15.311
 1298TIP3    H114717  -0.018   3.989  15.364
 1298TIP3    H214718  -0.078   3.948  15.235
 1299TIP3   OH214719   1.632   3.870  15.483
 1299TIP3    H114720   1.534   3.877  15.486
 1299TIP3    H214721   1.645   3.775  15.464
 1300TIP3   OH214722   0.963   3.958  14.881
 1300TIP3    H114723   0.876   3.944  14.923
 1300TIP3    H214724   1.006   3.871  14.895
 1301TIP3   OH214725   1.500   3.913  14.933
 1301TIP3    H114726   1.559   3.930  14.855
 1301TIP3    H214727   1.415   3.899  14.886
 1302TIP3   OH214728   1.661   3.960  14.720
 1302TIP3    H114729   1.728   3.903  14.677
 1302TIP3    H214730   1.714   4.042  14.738
 1303TIP3   OH214731   0.228   3.863  14.686
 1303TIP3    H114732   0.147   3.859  14.630
 1303TIP3    H214733   0.260   3.770  14.675
 1304TIP3   OH214734   0.670   3.901  14.656
 1304TIP3    H114735   0.756   3.941  14.634
 1304TIP3    H214736   0.666   3.906  14.753
 1305TIP3   OH214737   1.259   3.869  14.763
 1305TIP3    H114738   1.203   3.918  14.700
 1305TIP3    H214739   1.194   3.802  14.795
 1306TIP3   OH214740   1.308   3.859  14.321
 1306TIP3    H114741   1.271   3.833  14.234
 1306TIP3    H214742   1.278   3.782  14.375
 1307TIP3   OH214743   0.747   4.129  14.352
 1307TIP3    H114744   0.788   4.056  14.402
 1307TIP3    H214745   0.755   4.201  14.417
 1308TIP3   OH214746   0.205   3.963  15.577
 1308TIP3    H114747   0.136   3.911  15.621
 1308TIP3    H214748   0.284   3.932  15.628
 1309TIP3   OH214749   0.364   3.881  15.775
 1309TIP3    H114750   0.456   3.854  15.760
 1309TIP3    H214751   0.337   3.819  15.847
 1310TIP3   OH214752   1.235   3.836  15.811
 1310TIP3    H114753   1.239   3.796  15.898
 1310TIP3    H214754   1.322   3.809  15.773
 1311TIP3   OH214755   3.020   4.788  14.661
 1311TIP3    H114756   3.019   4.884  14.652
 1311TIP3    H214757   2.965   4.778  14.739
 1312TIP3   OH214758   2.871   4.757  15.019
 1312TIP3    H114759   2.895   4.710  15.102
 1312TIP3    H214760   2.814   4.693  14.975
 1313TIP3   OH214761   2.125   4.688  15.191
 1313TIP3    H114762   2.130   4.600  15.233
 1313TIP3    H214763   2.214   4.724  15.206
 1314TIP3   OH214764   3.210   5.043  14.871
 1314TIP3    H114765   3.238   4.967  14.924
 1314TIP3    H214766   3.274   5.110  14.902
 1315TIP3   OH214767   2.213   5.115  15.035
 1315TIP3    H114768   2.168   5.032  15.010
 1315TIP3    H214769   2.299   5.106  14.988
 1316TIP3   OH214770   1.905   4.486  14.567
 1316TIP3    H114771   1.872   4.576  14.582
 1316TIP3    H214772   1.846   4.453  14.496
 1317TIP3   OH214773   1.941   4.728  14.835
 1317TIP3    H114774   1.960   4.635  14.858
 1317TIP3    H214775   2.030   4.768  14.835
 1318TIP3   OH214776   2.683   4.985  15.113
 1318TIP3    H114777   2.743   4.927  15.064
 1318TIP3    H214778   2.751   5.025  15.172
 1319TIP3   OH214779   3.569   4.140  15.072
 1319TIP3    H114780   3.578   4.197  15.151
 1319TIP3    H214781   3.652   4.161  15.026
 1320TIP3   OH214782   3.083   4.429  15.113
 1320TIP3    H114783   3.104   4.340  15.146
 1320TIP3    H214784   3.085   4.413  15.017
 1321TIP3   OH214785   2.374   4.185  14.790
 1321TIP3    H114786   2.363   4.273  14.748
 1321TIP3    H214787   2.310   4.134  14.736
 1322TIP3   OH214788   3.143   4.200  14.653
 1322TIP3    H114789   3.161   4.180  14.747
 1322TIP3    H214790   3.228   4.240  14.628
 1323TIP3   OH214791   2.023   4.476  14.897
 1323TIP3    H114792   2.082   4.425  14.956
 1323TIP3    H214793   2.041   4.434  14.811
 1324TIP3   OH214794   2.454   4.609  14.820
 1324TIP3    H114795   2.548   4.584  14.825
 1324TIP3    H214796   2.418   4.544  14.756
 1325TIP3   OH214797   3.616   4.280  15.351
 1325TIP3    H114798   3.563   4.363  15.354
 1325TIP3    H214799   3.649   4.276  15.442
 1326TIP3   OH214800   2.286   4.111  15.208
 1326TIP3    H114801   2.250   4.164  15.134
 1326TIP3    H214802   2.215   4.127  15.272
 1327TIP3   OH214803   2.924   5.061  14.569
 1327TIP3    H114804   2.828   5.045  14.568
 1327TIP3    H214805   2.923   5.155  14.590
 1328TIP3   OH214806   2.465   4.916  15.228
 1328TIP3    H114807   2.412   4.999  15.235
 1328TIP3    H214808   2.545   4.950  15.181
 1329TIP3   OH214809   3.304   4.171  14.899
 1329TIP3    H114810   3.299   4.111  14.974
 1329TIP3    H214811   3.398   4.195  14.904
 1330TIP3   OH214812   2.210   4.297  15.026
 1330TIP3    H114813   2.268   4.364  15.071
 1330TIP3    H214814   2.258   4.282  14.943
 1331TIP3   OH214815   2.346   5.151  15.289
 1331TIP3    H114816   2.302   5.176  15.206
 1331TIP3    H214817   2.264   5.133  15.341
 1332TIP3   OH214818   1.943   5.140  14.421
 1332TIP3    H114819   1.952   5.205  14.351
 1332TIP3    H214820   1.859   5.162  14.464
 1333TIP3   OH214821   3.249   5.161  15.206
 1333TIP3    H114822   3.178   5.174  15.141
 1333TIP3    H214823   3.306   5.238  15.189
 1334TIP3   OH214824   3.345   4.034  15.190
 1334TIP3    H114825   3.261   4.062  15.148
 1334TIP3    H214826   3.414   4.071  15.132
 1335TIP3   OH214827   2.601   3.857  14.965
 1335TIP3    H114828   2.586   3.761  14.963
 1335TIP3    H214829   2.508   3.886  14.983
 1336TIP3   OH214830   3.261   5.208  14.645
 1336TIP3    H114831   3.293   5.190  14.555
 1336TIP3    H214832   3.238   5.119  14.676
 1337TIP3   OH214833   3.385   5.076  15.442
 1337TIP3    H114834   3.417   5.010  15.376
 1337TIP3    H214835   3.329   5.128  15.382
 1338TIP3   OH214836   3.632   4.700  15.233
 1338TIP3    H114837   3.568   4.769  15.259
 1338TIP3    H214838   3.692   4.751  15.176
 1339TIP3   OH214839   3.193   4.580  15.398
 1339TIP3    H114840   3.160   4.661  15.441
 1339TIP3    H214841   3.160   4.598  15.308
 1340TIP3   OH214842   2.385   4.825  14.675
 1340TIP3    H114843   2.308   4.806  14.618
 1340TIP3    H214844   2.399   4.743  14.726
 1341TIP3   OH214845   2.464   5.085  14.932
 1341TIP3    H114846   2.509   5.126  14.856
 1341TIP3    H214847   2.539   5.065  14.991
 1342TIP3   OH214848   2.375   4.704  15.061
 1342TIP3    H114849   2.416   4.683  14.974
 1342TIP3    H214850   2.444   4.758  15.105
 1343TIP3   OH214851   2.462   5.053  15.541
 1343TIP3    H114852   2.382   5.097  15.572
 1343TIP3    H214853   2.450   5.056  15.444
 1344TIP3   OH214854   2.196   4.742  15.482
 1344TIP3    H114855   2.183   4.816  15.545
 1344TIP3    H214856   2.105   4.741  15.446
 1345TIP3   OH214857   3.483   3.819  14.339
 1345TIP3    H114858   3.397   3.863  14.349
 1345TIP3    H214859   3.519   3.867  14.262
 1346TIP3   OH214860   1.902   4.988  15.350
 1346TIP3    H114861   1.890   4.979  15.254
 1346TIP3    H214862   1.936   4.898  15.370
 1347TIP3   OH214863   3.328   4.407  15.654
 1347TIP3    H114864   3.274   4.453  15.587
 1347TIP3    H214865   3.327   4.314  15.621
 1348TIP3   OH214866   2.125   5.110  15.428
 1348TIP3    H114867   2.139   5.064  15.514
 1348TIP3    H214868   2.035   5.080  15.404
 1349TIP3   OH214869   2.349   3.926  15.028
 1349TIP3    H114870   2.252   3.932  15.013
 1349TIP3    H214871   2.357   3.991  15.100
 1350TIP3   OH214872   2.838   3.923  15.376
 1350TIP3    H114873   2.865   3.901  15.467
 1350TIP3    H214874   2.739   3.918  15.380
 1351TIP3   OH214875   3.119   4.314  15.447
 1351TIP3    H114876   3.064   4.312  15.529
 1351TIP3    H214877   3.123   4.410  15.430
 1352TIP3   OH214878   2.383   4.456  15.147
 1352TIP3    H114879   2.336   4.465  15.233
 1352TIP3    H214880   2.367   4.547  15.116
 1353TIP3   OH214881   2.352   4.415  14.647
 1353TIP3    H114882   2.258   4.385  14.635
 1353TIP3    H214883   2.399   4.373  14.573
 1354TIP3   OH214884   2.920   4.466  14.492
 1354TIP3    H114885   2.980   4.534  14.525
 1354TIP3    H214886   2.980   4.416  14.433
 1355TIP3   OH214887   2.810   4.561  15.680
 1355TIP3    H114888   2.782   4.469  15.699
 1355TIP3    H214889   2.891   4.567  15.736
 1356TIP3   OH214890   3.085   4.458  14.821
 1356TIP3    H114891   3.080   4.539  14.767
 1356TIP3    H214892   3.074   4.389  14.753
 1357TIP3   OH214893   2.131   4.422  15.290
 1357TIP3    H114894   2.160   4.459  15.376
 1357TIP3    H214895   2.084   4.341  15.318
 1358TIP3   OH214896   1.829   4.166  14.738
 1358TIP3    H114897   1.917   4.184  14.771
 1358TIP3    H214898   1.845   4.152  14.643
 1359TIP3   OH214899   1.922   4.238  14.264
 1359TIP3    H114900   1.958   4.292  14.190
 1359TIP3    H214901   1.865   4.309  14.302
 1360TIP3   OH214902   2.939   4.618  15.245
 1360TIP3    H114903   3.002   4.557  15.201
 1360TIP3    H214904   2.883   4.554  15.296
 1361TIP3   OH214905   2.662   4.190  14.784
 1361TIP3    H114906   2.565   4.179  14.778
 1361TIP3    H214907   2.676   4.171  14.878
 1362TIP3   OH214908   2.102   4.324  14.653
 1362TIP3    H114909   2.020   4.365  14.616
 1362TIP3    H214910   2.111   4.236  14.609
 1363TIP3   OH214911   3.099   4.105  15.101
 1363TIP3    H114912   3.014   4.113  15.146
 1363TIP3    H214913   3.071   4.067  15.014
 1364TIP3   OH214914   2.156   4.965  15.644
 1364TIP3    H114915   2.233   4.961  15.705
 1364TIP3    H214916   2.084   4.969  15.709
 1365TIP3   OH214917   2.712   4.527  14.901
 1365TIP3    H114918   2.796   4.481  14.886
 1365TIP3    H214919   2.673   4.471  14.969
 1366TIP3   OH214920   2.206   4.082  14.604
 1366TIP3    H114921   2.159   4.005  14.646
 1366TIP3    H214922   2.272   4.032  14.552
 1367TIP3   OH214923   2.609   4.308  15.165
 1367TIP3    H114924   2.526   4.361  15.158
 1367TIP3    H214925   2.670   4.365  15.215
 1368TIP3   OH214926   2.612   4.875  14.390
 1368TIP3    H114927   2.585   4.958  14.343
 1368TIP3    H214928   2.600   4.907  14.482
 1369TIP3   OH214929   3.442   4.890  15.251
 1369TIP3    H114930   3.483   4.947  15.182
 1369TIP3    H214931   3.350   4.883  15.217
 1370TIP3   OH214932   2.768   5.001  15.426
 1370TIP3    H114933   2.832   4.996  15.498
 1370TIP3    H214934   2.735   5.092  15.433
 1371TIP3   OH214935   3.176   4.457  14.392
 1371TIP3    H114936   3.244   4.413  14.446
 1371TIP3    H214937   3.196   4.430  14.303
 1372TIP3   OH214938   2.202   4.868  14.896
 1372TIP3    H114939   2.273   4.895  14.834
 1372TIP3    H214940   2.245   4.805  14.957
 1373TIP3   OH214941   1.934   4.732  15.435
 1373TIP3    H114942   1.929   4.710  15.532
 1373TIP3    H214943   1.857   4.687  15.398
 1374TIP3   OH214944   2.554   4.679  15.611
 1374TIP3    H114945   2.560   4.694  15.514
 1374TIP3    H214946   2.606   4.598  15.619
 1375TIP3   OH214947   3.033   5.179  15.529
 1375TIP3    H114948   2.970   5.241  15.488
 1375TIP3    H214949   3.054   5.227  15.611
 1376TIP3   OH214950   3.527   4.429  14.260
 1376TIP3    H114951   3.485   4.471  14.182
 1376TIP3    H214952   3.583   4.506  14.283
 1377TIP3   OH214953   3.641   5.023  15.568
 1377TIP3    H114954   3.547   5.020  15.543
 1377TIP3    H214955   3.687   5.015  15.482
 1378TIP3   OH214956   3.206   4.787  15.079
 1378TIP3    H114957   3.128   4.804  15.025
 1378TIP3    H214958   3.249   4.711  15.033
 1379TIP3   OH214959   2.344   5.236  14.686
 1379TIP3    H114960   2.415   5.284  14.638
 1379TIP3    H214961   2.314   5.305  14.746
 1380TIP3   OH214962   2.558   5.028  14.622
 1380TIP3    H114963   2.480   5.081  14.597
 1380TIP3    H214964   2.514   4.959  14.675
 1381TIP3   OH214965   2.938   5.008  15.212
 1381TIP3    H114966   2.902   4.981  15.299
 1381TIP3    H214967   3.012   4.947  15.201
 1382TIP3   OH214968   2.074   4.172  15.413
 1382TIP3    H114969   2.007   4.216  15.467
 1382TIP3    H214970   2.111   4.110  15.478
 1383TIP3   OH214971   2.634   5.039  13.979
 1383TIP3    H114972   2.562   4.976  13.970
 1383TIP3    H214973   2.588   5.116  14.018
 1384TIP3   OH214974   2.537   5.143  14.336
 1384TIP3    H114975   2.567   5.226  14.376
 1384TIP3    H214976   2.541   5.167  14.242
 1385TIP3   OH214977   2.233   4.953  14.395
 1385TIP3    H114978   2.139   4.971  14.412
 1385TIP3    H214979   2.233   4.951  14.298
 1386TIP3   OH214980   2.892   4.192  15.362
 1386TIP3    H114981   2.985   4.205  15.389
 1386TIP3    H214982   2.879   4.095  15.373
 1387TIP3   OH214983   2.970   4.129  14.456
 1387TIP3    H114984   3.016   4.065  14.399
 1387TIP3    H214985   3.042   4.149  14.521
 1388TIP3   OH214986   2.681   4.329  14.499
 1388TIP3    H114987   2.769   4.374  14.496
 1388TIP3    H214988   2.685   4.283  14.584
 1389TIP3   OH214989   2.802   4.457  15.416
 1389TIP3    H114990   2.804   4.497  15.507
 1389TIP3    H214991   2.826   4.363  15.431
 1390TIP3   OH214992   2.800   4.003  14.623
 1390TIP3    H114993   2.760   4.065  14.688
 1390TIP3    H214994   2.869   4.060  14.579
 1391TIP3   OH214995   3.360   4.188  15.471
 1391TIP3    H114996   3.267   4.211  15.448
 1391TIP3    H214997   3.400   4.169  15.385
 1392TIP3   OH214998   3.309   4.575  14.930
 1392TIP3    H114999   3.238   4.511  14.913
 1392TIP3    H215000   3.372   4.523  14.985
 1393TIP3   OH215001   2.200   5.202  14.173
 1393TIP3    H115002   2.244   5.251  14.244
 1393TIP3    H215003   2.279   5.169  14.127
 1394TIP3   OH215004   1.978   4.437  14.076
 1394TIP3    H115005   2.056   4.493  14.057
 1394TIP3    H215006   1.906   4.497  14.053
 1395TIP3   OH215007   2.092   3.907  14.985
 1395TIP3    H115008   2.099   3.888  14.889
 1395TIP3    H215009   2.056   3.822  15.016
 1396TIP3   OH215010   1.950   4.986  15.836
 1396TIP3    H115011   1.929   4.911  15.893
 1396TIP3    H215012   1.879   4.972  15.770
 1397TIP3   OH215013   2.344   4.957  13.985
 1397TIP3    H115014   2.283   4.908  14.044
 1397TIP3    H215015   2.393   4.881  13.944
 1398TIP3   OH215016   2.629   4.946  15.715
 1398TIP3    H115017   2.594   4.994  15.636
 1398TIP3    H215018   2.649   4.861  15.673
 1399TIP3   OH215019   2.943   4.980  13.967
 1399TIP3    H115020   2.961   5.067  14.012
 1399TIP3    H215021   2.849   4.989  13.948
 1400TIP3   OH215022   3.148   4.944  15.489
 1400TIP3    H115023   3.232   4.993  15.481
 1400TIP3    H215024   3.086   5.021  15.489
 1401TIP3   OH215025   1.994   4.705  15.687
 1401TIP3    H115026   2.083   4.668  15.687
 1401TIP3    H215027   1.965   4.674  15.775
 1402TIP3   OH215028   2.358   4.561  15.387
 1402TIP3    H115029   2.295   4.623  15.433
 1402TIP3    H215030   2.435   4.618  15.372
 1403TIP3   OH215031   2.959   4.854  15.813
 1403TIP3    H115032   3.025   4.795  15.773
 1403TIP3    H215033   2.886   4.795  15.832
 1404TIP3   OH215034   2.479   4.383  15.558
 1404TIP3    H115035   2.495   4.296  15.517
 1404TIP3    H215036   2.453   4.438  15.481
 1405TIP3   OH215037   2.523   4.151  15.366
 1405TIP3    H115038   2.576   4.203  15.301
 1405TIP3    H215039   2.438   4.140  15.319
 1406TIP3   OH215040   2.609   4.720  15.347
 1406TIP3    H115041   2.697   4.743  15.314
 1406TIP3    H215042   2.556   4.795  15.311
 1407TIP3   OH215043   3.033   4.519  15.844
 1407TIP3    H115044   3.042   4.423  15.842
 1407TIP3    H215045   3.127   4.542  15.844
 1408TIP3   OH215046   3.222   4.728  15.669
 1408TIP3    H115047   3.195   4.804  15.614
 1408TIP3    H215048   3.316   4.717  15.645
 1409TIP3   OH215049   2.288   4.481  15.849
 1409TIP3    H115050   2.230   4.405  15.828
 1409TIP3    H215051   2.326   4.499  15.761
 1410TIP3   OH215052   2.583   3.895  15.330
 1410TIP3    H115053   2.550   3.985  15.352
 1410TIP3    H215054   2.501   3.851  15.306
 1411TIP3   OH215055   2.726   4.298  15.758
 1411TIP3    H115056   2.681   4.289  15.844
 1411TIP3    H215057   2.655   4.264  15.701
 1412TIP3   OH215058   2.992   4.269  15.684
 1412TIP3    H115059   2.899   4.269  15.715
 1412TIP3    H215060   3.033   4.203  15.744
 1413TIP3   OH215061   3.112   4.094  15.867
 1413TIP3    H115062   3.111   3.998  15.843
 1413TIP3    H215063   3.119   4.091  15.964
 1414TIP3   OH215064   2.093   4.193  15.770
 1414TIP3    H115065   2.074   4.112  15.719
 1414TIP3    H215066   2.121   4.154  15.855
 1415TIP3   OH215067   2.540   3.807  15.659
 1415TIP3    H115068   2.601   3.733  15.673
 1415TIP3    H215069   2.543   3.811  15.563
 1416TIP3   OH215070   2.599   3.958  15.926
 1416TIP3    H115071   2.593   3.893  15.856
 1416TIP3    H215072   2.555   4.031  15.877
 1417TIP3   OH215073   2.068   4.961  14.170
 1417TIP3    H115074   2.087   5.058  14.165
 1417TIP3    H215075   1.991   4.947  14.113
 1418TIP3   OH215076   3.492   5.122  15.867
 1418TIP3    H115077   3.408   5.073  15.876
 1418TIP3    H215078   3.468   5.208  15.902
 1419TIP3   OH215079   3.608   4.938  14.433
 1419TIP3    H115080   3.676   5.007  14.429
 1419TIP3    H215081   3.623   4.898  14.521
 1420TIP3   OH215082   3.626   4.766  14.638
 1420TIP3    H115083   3.555   4.699  14.639
 1420TIP3    H215084   3.686   4.733  14.707
 1421TIP3   OH215085   3.546   5.019  15.047
 1421TIP3    H115086   3.590   4.945  15.004
 1421TIP3    H215087   3.614   5.089  15.046
 1422TIP3   OH215088   3.620   4.691  14.280
 1422TIP3    H115089   3.552   4.731  14.225
 1422TIP3    H215090   3.633   4.766  14.343
 1423TIP3   OH215091   3.433   4.575  14.658
 1423TIP3    H115092   3.435   4.480  14.641
 1423TIP3    H215093   3.399   4.579  14.749
 1424TIP3   OH215094   1.923   4.832  15.089
 1424TIP3    H115095   1.911   4.784  15.004
 1424TIP3    H215096   2.009   4.793  15.120
 1425TIP3   OH215097   3.510   4.756  15.595
 1425TIP3    H115098   3.544   4.665  15.611
 1425TIP3    H215099   3.592   4.806  15.583
 1426TIP3   OH215100   3.588   4.488  15.635
 1426TIP3    H115101   3.498   4.451  15.628
 1426TIP3    H215102   3.645   4.407  15.635
 1427TIP3   OH215103   3.385   4.323  14.540
 1427TIP3    H115104   3.432   4.237  14.554
 1427TIP3    H215105   3.429   4.348  14.457
 1428TIP3   OH215106   3.481   4.424  15.075
 1428TIP3    H115107   3.578   4.436  15.059
 1428TIP3    H215108   3.484   4.434  15.172
 1429TIP3   OH215109   3.455   4.497  15.328
 1429TIP3    H115110   3.358   4.509  15.341
 1429TIP3    H215111   3.490   4.588  15.329
 1430TIP3   OH215112   1.866   4.264  15.623
 1430TIP3    H115113   1.942   4.276  15.683
 1430TIP3    H215114   1.833   4.176  15.652
 1431TIP3   OH215115   3.694   3.919  15.905
 1431TIP3    H115116   3.730   3.850  15.846
 1431TIP3    H215117   3.661   3.982  15.837
 1432TIP3   OH215118   3.454   4.068  14.488
 1432TIP3    H115119   3.463   4.007  14.564
 1432TIP3    H215120   3.365   4.048  14.456
 1433TIP3   OH215121   1.985   4.148  15.047
 1433TIP3    H115122   2.019   4.061  15.017
 1433TIP3    H215123   2.065   4.206  15.045
 1434TIP3   OH215124   1.841   4.454  15.090
 1434TIP3    H115125   1.888   4.415  15.014
 1434TIP3    H215126   1.912   4.507  15.128
 1435TIP3   OH215127   3.586   4.052  15.707
 1435TIP3    H115128   3.507   4.108  15.725
 1435TIP3    H215129   3.569   4.027  15.614
 1436TIP3   OH215130   1.838   4.093  14.474
 1436TIP3    H115131   1.743   4.096  14.455
 1436TIP3    H215132   1.877   4.133  14.394
 1437TIP3   OH215133   1.808   3.946  15.302
 1437TIP3    H115134   1.760   3.909  15.379
 1437TIP3    H215135   1.833   4.033  15.337
 1438TIP3   OH215136   3.525   3.874  15.492
 1438TIP3    H115137   3.462   3.886  15.420
 1438TIP3    H215138   3.553   3.783  15.471
 1439TIP3   OH215139   2.907   4.007  14.927
 1439TIP3    H115140   2.820   4.023  14.965
 1439TIP3    H215141   2.885   3.945  14.856
 1440TIP3   OH215142   3.386   3.854  14.915
 1440TIP3    H115143   3.435   3.920  14.860
 1440TIP3    H215144   3.295   3.866  14.878
 1441TIP3   OH215145   3.540   3.990  14.731
 1441TIP3    H115146   3.602   3.921  14.699
 1441TIP3    H215147   3.606   4.061  14.749
 1442TIP3   OH215148   2.086   3.863  14.702
 1442TIP3    H115149   1.994   3.849  14.670
 1442TIP3    H215150   2.125   3.774  14.686
 1443TIP3   OH215151   1.962   3.865  14.257
 1443TIP3    H115152   1.995   3.924  14.186
 1443TIP3    H215153   1.929   3.928  14.323
 1444TIP3   OH215154   2.480   3.859  14.687
 1444TIP3    H115155   2.574   3.859  14.667
 1444TIP3    H215156   2.477   3.914  14.767
 1445TIP3   OH215157   3.133   3.882  14.823
 1445TIP3    H115158   3.105   3.899  14.732
 1445TIP3    H215159   3.069   3.815  14.852
 1446TIP3   OH215160   3.171   3.892  14.388
 1446TIP3    H115161   3.149   3.864  14.297
 1446TIP3    H215162   3.157   3.810  14.439
 1447TIP3   OH215163   2.118   4.023  14.104
 1447TIP3    H115164   2.164   3.938  14.094
 1447TIP3    H215165   2.173   4.073  14.165
 1448TIP3   OH215166   2.636   4.058  14.402
 1448TIP3    H115167   2.685   4.021  14.478
 1448TIP3    H215168   2.672   4.149  14.400
 1449TIP3   OH215169   2.069   3.947  15.645
 1449TIP3    H115170   2.023   3.861  15.654
 1449TIP3    H215171   2.155   3.931  15.691
 1450TIP3   OH215172   2.281   3.883  15.825
 1450TIP3    H115173   2.361   3.856  15.778
 1450TIP3    H215174   2.239   3.797  15.843
 1451TIP3   OH215175   3.120   3.832  15.821
 1451TIP3    H115176   3.128   3.802  15.914
 1451TIP3    H215177   3.211   3.814  15.788
 1452TIP3   OH215178   4.887   4.846  14.631
 1452TIP3    H115179   4.911   4.922  14.687
 1452TIP3    H215180   4.799   4.874  14.604
 1453TIP3   OH215181   4.756   4.740  15.029
 1453TIP3    H115182   4.759   4.693  15.115
 1453TIP3    H215183   4.745   4.671  14.962
 1454TIP3   OH215184   4.004   4.701  15.173
 1454TIP3    H115185   4.002   4.609  15.203
 1454TIP3    H215186   4.097   4.723  15.184
 1455TIP3   OH215187   4.110   5.098  15.066
 1455TIP3    H115188   4.087   5.005  15.044
 1455TIP3    H215189   4.189   5.109  15.009
 1456TIP3   OH215190   3.785   4.527  14.536
 1456TIP3    H115191   3.755   4.620  14.531
 1456TIP3    H215192   3.737   4.485  14.463
 1457TIP3   OH215193   3.871   4.748  14.809
 1457TIP3    H115194   3.912   4.660  14.827
 1457TIP3    H215195   3.948   4.807  14.823
 1458TIP3   OH215196   4.590   4.997  15.134
 1458TIP3    H115197   4.621   4.966  15.048
 1458TIP3    H215198   4.672   4.989  15.187
 1459TIP3   OH215199   4.897   4.380  15.073
 1459TIP3    H115200   4.994   4.398  15.075
 1459TIP3    H215201   4.871   4.436  14.998
 1460TIP3   OH215202   4.237   4.222  14.786
 1460TIP3    H115203   4.241   4.295  14.720
 1460TIP3    H215204   4.204   4.152  14.727
 1461TIP3   OH215205   4.944   4.254  14.711
 1461TIP3    H115206   5.011   4.188  14.739
 1461TIP3    H215207   5.004   4.328  14.687
 1462TIP3   OH215208   3.976   4.511  14.863
 1462TIP3    H115209   4.023   4.446  14.919
 1462TIP3    H215210   3.943   4.459  14.788
 1463TIP3   OH215211   4.328   4.598  14.808
 1463TIP3    H115212   4.414   4.568  14.845
 1463TIP3    H215213   4.305   4.523  14.751
 1464TIP3   OH215214   4.151   4.138  15.216
 1464TIP3    H115215   4.124   4.189  15.137
 1464TIP3    H215216   4.071   4.151  15.272
 1465TIP3   OH215217   4.840   5.160  14.609
 1465TIP3    H115218   4.839   5.125  14.517
 1465TIP3    H215219   4.795   5.247  14.601
 1466TIP3   OH215220   4.357   4.914  15.221
 1466TIP3    H115221   4.307   4.995  15.246
 1466TIP3    H215222   4.439   4.955  15.183
 1467TIP3   OH215223   4.105   4.320  15.003
 1467TIP3    H115224   4.162   4.382  15.055
 1467TIP3    H215225   4.164   4.296  14.928
 1468TIP3   OH215226   4.214   5.138  15.310
 1468TIP3    H115227   4.169   5.144  15.223
 1468TIP3    H215228   4.131   5.131  15.365
 1469TIP3   OH215229   3.832   5.114  14.425
 1469TIP3    H115230   3.838   5.047  14.353
 1469TIP3    H215231   3.843   5.193  14.368
 1470TIP3   OH215232   4.522   3.846  14.958
 1470TIP3    H115233   4.502   3.751  14.966
 1470TIP3    H215234   4.447   3.883  15.011
 1471TIP3   OH215235   4.725   4.703  14.371
 1471TIP3    H115236   4.675   4.788  14.373
 1471TIP3    H215237   4.808   4.731  14.328
 1472TIP3   OH215238   4.776   4.475  14.169
 1472TIP3    H115239   4.801   4.569  14.173
 1472TIP3    H215240   4.757   4.465  14.074
 1473TIP3   OH215241  -0.077   4.713  14.542
 1473TIP3    H115242  -0.153   4.760  14.584
 1473TIP3    H215243  -0.018   4.789  14.525
 1474TIP3   OH215244   5.040   4.524  15.434
 1474TIP3    H115245   5.000   4.522  15.522
 1474TIP3    H215246   4.979   4.581  15.382
 1475TIP3   OH215247   4.288   4.814  14.663
 1475TIP3    H115248   4.245   4.769  14.590
 1475TIP3    H215249   4.324   4.739  14.715
 1476TIP3   OH215250   4.361   5.070  14.944
 1476TIP3    H115251   4.371   5.134  14.870
 1476TIP3    H215252   4.430   5.096  15.007
 1477TIP3   OH215253   4.275   4.716  15.060
 1477TIP3    H115254   4.323   4.707  14.975
 1477TIP3    H215255   4.321   4.791  15.104
 1478TIP3   OH215256   4.352   5.062  15.544
 1478TIP3    H115257   4.286   5.111  15.595
 1478TIP3    H215258   4.311   5.062  15.455
 1479TIP3   OH215259   5.016   4.698  14.278
 1479TIP3    H115260   5.065   4.731  14.356
 1479TIP3    H215261   5.052   4.754  14.208
 1480TIP3   OH215262   4.070   4.776  15.460
 1480TIP3    H115263   4.050   4.837  15.534
 1480TIP3    H215264   3.979   4.752  15.434
 1481TIP3   OH215265   3.784   4.986  15.345
 1481TIP3    H115266   3.759   4.978  15.251
 1481TIP3    H215267   3.813   4.894  15.365
 1482TIP3   OH215268   3.983   5.131  15.447
 1482TIP3    H115269   4.003   5.075  15.525
 1482TIP3    H215270   3.910   5.079  15.405
 1483TIP3   OH215271   4.294   3.953  15.071
 1483TIP3    H115272   4.208   3.948  15.024
 1483TIP3    H215273   4.277   4.032  15.125
 1484TIP3   OH215274   4.730   3.905  15.402
 1484TIP3    H115275   4.769   3.880  15.488
 1484TIP3    H215276   4.635   3.896  15.422
 1485TIP3   OH215277   5.088   4.230  15.437
 1485TIP3    H115278   5.066   4.246  15.532
 1485TIP3    H215279   5.085   4.322  15.405
 1486TIP3   OH215280   4.661   4.190  14.186
 1486TIP3    H115281   4.608   4.170  14.266
 1486TIP3    H215282   4.624   4.129  14.120
 1487TIP3   OH215283   4.264   4.466  15.151
 1487TIP3    H115284   4.219   4.470  15.238
 1487TIP3    H215285   4.259   4.560  15.122
 1488TIP3   OH215286   4.253   4.405  14.591
 1488TIP3    H115287   4.158   4.387  14.577
 1488TIP3    H215288   4.297   4.383  14.506
 1489TIP3   OH215289   4.825   4.566  14.579
 1489TIP3    H115290   4.778   4.638  14.533
 1489TIP3    H215291   4.917   4.598  14.578
 1490TIP3   OH215292   4.733   4.527  15.631
 1490TIP3    H115293   4.677   4.452  15.662
 1490TIP3    H215294   4.800   4.525  15.704
 1491TIP3   OH215295   4.834   4.499  14.841
 1491TIP3    H115296   4.891   4.547  14.778
 1491TIP3    H215297   4.861   4.407  14.822
 1492TIP3   OH215298   4.019   4.434  15.299
 1492TIP3    H115299   4.069   4.472  15.374
 1492TIP3    H215300   3.986   4.350  15.335
 1493TIP3   OH215301   4.359   4.286  14.051
 1493TIP3    H115302   4.310   4.221  14.105
 1493TIP3    H215303   4.287   4.344  14.022
 1494TIP3   OH215304   3.729   4.175  14.771
 1494TIP3    H115305   3.803   4.166  14.835
 1494TIP3    H215306   3.767   4.161  14.681
 1495TIP3   OH215307   3.851   4.300  14.322
 1495TIP3    H115308   3.869   4.228  14.260
 1495TIP3    H215309   3.756   4.304  14.311
 1496TIP3   OH215310   4.819   4.570  15.267
 1496TIP3    H115311   4.885   4.510  15.227
 1496TIP3    H215312   4.757   4.506  15.308
 1497TIP3   OH215313   4.520   4.230  14.786
 1497TIP3    H115314   4.427   4.234  14.817
 1497TIP3    H215315   4.560   4.169  14.851
 1498TIP3   OH215316   3.984   4.344  14.606
 1498TIP3    H115317   3.908   4.390  14.561
 1498TIP3    H215318   3.963   4.252  14.584
 1499TIP3   OH215319   4.381   4.394  14.349
 1499TIP3    H115320   4.458   4.380  14.405
 1499TIP3    H215321   4.376   4.305  14.305
 1500TIP3   OH215322   4.980   4.019  15.110
 1500TIP3    H115323   4.937   4.104  15.125
 1500TIP3    H215324   4.998   4.023  15.014
 1501TIP3   OH215325   4.028   4.967  15.646
 1501TIP3    H115326   4.107   4.959  15.705
 1501TIP3    H215327   3.958   4.968  15.716
 1502TIP3   OH215328   4.573   4.517  14.891
 1502TIP3    H115329   4.659   4.502  14.846
 1502TIP3    H215330   4.598   4.503  14.983
 1503TIP3   OH215331   4.115   4.057  14.573
 1503TIP3    H115332   4.045   4.002  14.613
 1503TIP3    H215333   4.184   3.991  14.561
 1504TIP3   OH215334   4.463   4.288  15.151
 1504TIP3    H115335   4.390   4.352  15.135
 1504TIP3    H215336   4.526   4.342  15.203
 1505TIP3   OH215337   4.582   4.937  14.383
 1505TIP3    H115338   4.507   4.946  14.322
 1505TIP3    H215339   4.546   4.980  14.464
 1506TIP3   OH215340   4.937   4.247  14.208
 1506TIP3    H115341   4.848   4.208  14.191
 1506TIP3    H215342   4.918   4.340  14.185
 1507TIP3   OH215343   4.750   4.932  15.488
 1507TIP3    H115344   4.735   4.900  15.578
 1507TIP3    H215345   4.717   5.023  15.491
 1508TIP3   OH215346   4.979   4.461  14.384
 1508TIP3    H115347   5.067   4.418  14.375
 1508TIP3    H215348   4.999   4.549  14.343
 1509TIP3   OH215349   4.105   4.874  14.902
 1509TIP3    H115350   4.175   4.912  14.845
 1509TIP3    H215351   4.152   4.796  14.940
 1510TIP3   OH215352   4.800   5.085  14.334
 1510TIP3    H115353   4.760   5.163  14.290
 1510TIP3    H215354   4.722   5.026  14.342
 1511TIP3   OH215355   3.808   4.739  15.438
 1511TIP3    H115356   3.818   4.715  15.533
 1511TIP3    H215357   3.736   4.681  15.408
 1512TIP3   OH215358   4.484   4.654  15.613
 1512TIP3    H115359   4.458   4.681  15.523
 1512TIP3    H215360   4.570   4.608  15.597
 1513TIP3   OH215361   4.939   5.188  15.569
 1513TIP3    H115362   4.860   5.231  15.531
 1513TIP3    H215363   4.944   5.228  15.657
 1514TIP3   OH215364   5.026   4.789  15.127
 1514TIP3    H115365   4.961   4.786  15.055
 1514TIP3    H215366   5.110   4.811  15.082
 1515TIP3   OH215367   4.250   5.199  14.708
 1515TIP3    H115368   4.299   5.279  14.681
 1515TIP3    H215369   4.180   5.196  14.643
 1516TIP3   OH215370   4.452   5.031  14.602
 1516TIP3    H115371   4.413   5.097  14.662
 1516TIP3    H215372   4.424   4.947  14.644
 1517TIP3   OH215373   4.842   4.958  15.228
 1517TIP3    H115374   4.833   4.938  15.324
 1517TIP3    H215375   4.906   4.890  15.197
 1518TIP3   OH215376   4.972   5.070  14.127
 1518TIP3    H115377   5.053   5.118  14.153
 1518TIP3    H215378   4.919   5.086  14.207
 1519TIP3   OH215379   3.910   4.183  15.357
 1519TIP3    H115380   3.829   4.215  15.315
 1519TIP3    H215381   3.876   4.125  15.427
 1520TIP3   OH215382   4.535   5.206  14.098
 1520TIP3    H115383   4.581   5.122  14.078
 1520TIP3    H215384   4.487   5.183  14.179
 1521TIP3   OH215385   4.388   5.216  14.322
 1521TIP3    H115386   4.377   5.231  14.417
 1521TIP3    H215387   4.366   5.304  14.285
 1522TIP3   OH215388   4.754   4.177  15.351
 1522TIP3    H115389   4.847   4.187  15.378
 1522TIP3    H215390   4.742   4.081  15.363
 1523TIP3   OH215391   4.892   4.136  14.474
 1523TIP3    H115392   4.925   4.194  14.403
 1523TIP3    H215393   4.914   4.187  14.556
 1524TIP3   OH215394   4.642   4.339  14.579
 1524TIP3    H115395   4.714   4.377  14.633
 1524TIP3    H215396   4.597   4.287  14.651
 1525TIP3   OH215397   4.643   4.421  15.406
 1525TIP3    H115398   4.696   4.457  15.481
 1525TIP3    H215399   4.680   4.331  15.392
 1526TIP3   OH215400   4.692   3.982  14.616
 1526TIP3    H115401   4.708   3.988  14.713
 1526TIP3    H215402   4.774   4.020  14.580
 1527TIP3   OH215403   4.294   4.144  14.292
 1527TIP3    H115404   4.225   4.140  14.359
 1527TIP3    H215405   4.315   4.051  14.278
 1528TIP3   OH215406   4.115   5.153  14.121
 1528TIP3    H115407   4.175   5.214  14.164
 1528TIP3    H215408   4.173   5.078  14.104
 1529TIP3   OH215409   4.040   3.927  14.981
 1529TIP3    H115410   4.017   3.901  14.889
 1529TIP3    H215411   4.010   3.843  15.025
 1530TIP3   OH215412   3.860   4.973  15.857
 1530TIP3    H115413   3.862   4.890  15.907
 1530TIP3    H215414   3.776   4.962  15.809
 1531TIP3   OH215415   4.508   4.924  15.720
 1531TIP3    H115416   4.484   4.980  15.643
 1531TIP3    H215417   4.521   4.837  15.675
 1532TIP3   OH215418   4.691   5.001  14.047
 1532TIP3    H115419   4.747   5.064  13.999
 1532TIP3    H215420   4.758   4.944  14.086
 1533TIP3   OH215421   5.021   4.873  15.539
 1533TIP3    H115422   5.063   4.934  15.476
 1533TIP3    H215423   4.929   4.902  15.537
 1534TIP3   OH215424   3.888   4.710  15.683
 1534TIP3    H115425   3.977   4.673  15.686
 1534TIP3    H215426   3.851   4.671  15.764
 1535TIP3   OH215427   4.232   4.587  15.389
 1535TIP3    H115428   4.176   4.667  15.401
 1535TIP3    H215429   4.321   4.627  15.375
 1536TIP3   OH215430   4.489   4.624  14.080
 1536TIP3    H115431   4.421   4.610  14.012
 1536TIP3    H215432   4.510   4.534  14.109
 1537TIP3   OH215433   4.832   4.828  15.814
 1537TIP3    H115434   4.901   4.845  15.882
 1537TIP3    H215435   4.848   4.733  15.801
 1538TIP3   OH215436   4.334   4.366  15.555
 1538TIP3    H115437   4.363   4.295  15.495
 1538TIP3    H215438   4.340   4.444  15.499
 1539TIP3   OH215439   4.382   4.123  15.359
 1539TIP3    H115440   4.429   4.168  15.285
 1539TIP3    H215441   4.292   4.113  15.320
 1540TIP3   OH215442   4.477   4.711  15.344
 1540TIP3    H115443   4.560   4.715  15.294
 1540TIP3    H215444   4.425   4.787  15.307
 1541TIP3   OH215445   4.871   4.463  15.848
 1541TIP3    H115446   4.837   4.377  15.820
 1541TIP3    H215447   4.943   4.438  15.908
 1542TIP3   OH215448   4.170   4.459  15.822
 1542TIP3    H115449   4.124   4.373  15.826
 1542TIP3    H215450   4.204   4.457  15.731
 1543TIP3   OH215451   4.454   3.852  15.401
 1543TIP3    H115452   4.419   3.941  15.377
 1543TIP3    H215453   4.434   3.795  15.324
 1544TIP3   OH215454   4.584   4.283  15.742
 1544TIP3    H115455   4.531   4.287  15.823
 1544TIP3    H215456   4.521   4.250  15.676
 1545TIP3   OH215457   4.847   4.213  15.662
 1545TIP3    H115458   4.758   4.209  15.702
 1545TIP3    H215459   4.904   4.163  15.724
 1546TIP3   OH215460   5.017   4.103  15.860
 1546TIP3    H115461   5.007   4.005  15.862
 1546TIP3    H215462   5.013   4.128  15.955
 1547TIP3   OH215463   3.980   4.207  15.788
 1547TIP3    H115464   3.965   4.127  15.733
 1547TIP3    H215465   3.981   4.165  15.876
 1548TIP3   OH215466   4.423   3.787  15.680
 1548TIP3    H115467   4.484   3.712  15.670
 1548TIP3    H215468   4.426   3.823  15.589
 1549TIP3   OH215469   4.491   3.964  15.927
 1549TIP3    H115470   4.474   3.891  15.865
 1549TIP3    H215471   4.441   4.031  15.878
 1550TIP3   OH215472   3.847   5.022  14.146
 1550TIP3    H115473   3.921   5.080  14.120
 1550TIP3    H215474   3.834   4.965  14.068
 1551TIP3   OH215475   3.801   4.833  15.052
 1551TIP3    H115476   3.803   4.782  14.968
 1551TIP3    H215477   3.889   4.807  15.090
 1552TIP3   OH215478   3.740   4.266  15.634
 1552TIP3    H115479   3.835   4.274  15.656
 1552TIP3    H215480   3.714   4.192  15.693
 1553TIP3   OH215481   3.898   4.156  14.993
 1553TIP3    H115482   3.947   4.071  14.997
 1553TIP3    H215483   3.972   4.221  14.986
 1554TIP3   OH215484   3.750   4.455  15.058
 1554TIP3    H115485   3.812   4.419  14.993
 1554TIP3    H215486   3.800   4.529  15.092
 1555TIP3   OH215487   3.735   4.104  14.495
 1555TIP3    H115488   3.638   4.095  14.491
 1555TIP3    H215489   3.757   4.074  14.404
 1556TIP3   OH215490   3.743   3.938  15.307
 1556TIP3    H115491   3.676   3.884  15.352
 1556TIP3    H215492   3.689   3.996  15.250
 1557TIP3   OH215493   4.722   4.001  14.886
 1557TIP3    H115494   4.652   3.940  14.918
 1557TIP3    H215495   4.802   3.946  14.876
 1558TIP3   OH215496   3.972   3.867  14.719
 1558TIP3    H115497   3.877   3.862  14.698
 1558TIP3    H215498   4.004   3.778  14.694
 1559TIP3   OH215499   4.386   3.902  14.669
 1559TIP3    H115500   4.468   3.935  14.627
 1559TIP3    H215501   4.416   3.893  14.761
 1560TIP3   OH215502   4.969   3.903  14.802
 1560TIP3    H115503   5.036   3.881  14.737
 1560TIP3    H215504   4.939   3.811  14.828
 1561TIP3   OH215505   4.557   4.130  14.429
 1561TIP3    H115506   4.605   4.050  14.458
 1561TIP3    H215507   4.578   4.191  14.503
 1562TIP3   OH215508   3.938   3.939  15.696
 1562TIP3    H115509   3.897   3.852  15.710
 1562TIP3    H215510   4.033   3.918  15.715
 1563TIP3   OH215511   4.170   3.850  15.784
 1563TIP3    H115512   4.260   3.841  15.747
 1563TIP3    H215513   4.170   3.775  15.844
 1564TIP3   OH215514   4.995   3.798  15.872
 1564TIP3    H115515   5.014   3.753  15.955
 1564TIP3    H215516   5.083   3.795  15.826
 1565TIP3   OH215517   1.367   1.172  15.842
 1565TIP3    H115518   1.312   1.109  15.794
 1565TIP3    H215519   1.317   1.178  15.925
 1566TIP3   OH215520   0.541   0.365  15.839
 1566TIP3    H115521   0.568   0.384  15.931
 1566TIP3    H215522   0.475   0.435  15.827
 1567TIP3   OH215523   0.728   1.477  15.856
 1567TIP3    H115524   0.725   1.426  15.773
 1567TIP3    H215525   0.693   1.413  15.918
 1568TIP3   OH215526   0.111   0.711  15.953
 1568TIP3    H115527   0.207   0.707  15.934
 1568TIP3    H215528   0.077   0.640  15.894
 1569TIP3   OH215529   0.960   1.682  15.846
 1569TIP3    H115530   0.895   1.610  15.847
 1569TIP3    H215531   1.033   1.637  15.799
 1570TIP3   OH215532   1.382   1.591  15.838
 1570TIP3    H115533   1.409   1.501  15.865
 1570TIP3    H215534   1.449   1.613  15.770
 1571TIP3   OH215535   0.441   1.195  15.809
 1571TIP3    H115536   0.455   1.155  15.898
 1571TIP3    H215537   0.529   1.183  15.767
 1572TIP3   OH215538   1.037   1.341  15.937
 1572TIP3    H115539   1.017   1.306  16.026
 1572TIP3    H215540   1.012   1.263  15.883
 1573TIP3   OH215541   0.689   0.861  15.891
 1573TIP3    H115542   0.636   0.885  15.812
 1573TIP3    H215543   0.773   0.837  15.848
 1574TIP3   OH215544   1.733   1.062  15.806
 1574TIP3    H115545   1.662   1.011  15.762
 1574TIP3    H215546   1.687   1.148  15.818
 1575TIP3   OH215547   1.618   0.704  15.887
 1575TIP3    H115548   1.665   0.746  15.814
 1575TIP3    H215549   1.558   0.646  15.837
 1576TIP3   OH215550   1.464   0.423  15.836
 1576TIP3    H115551   1.488   0.410  15.929
 1576TIP3    H215552   1.380   0.373  15.831
 1577TIP3   OH215553   0.248   1.779  15.913
 1577TIP3    H115554   0.247   1.774  16.010
 1577TIP3    H215555   0.333   1.733  15.897
 1578TIP3   OH215556   3.245   1.179  15.843
 1578TIP3    H115557   3.176   1.121  15.808
 1578TIP3    H215558   3.198   1.211  15.922
 1579TIP3   OH215559   2.397   0.372  15.859
 1579TIP3    H115560   2.448   0.416  15.930
 1579TIP3    H215561   2.353   0.450  15.821
 1580TIP3   OH215562   2.589   1.460  15.861
 1580TIP3    H115563   2.578   1.415  15.776
 1580TIP3    H215564   2.578   1.384  15.920
 1581TIP3   OH215565   1.985   0.712  15.907
 1581TIP3    H115566   2.042   0.695  15.985
 1581TIP3    H215567   1.903   0.664  15.933
 1582TIP3   OH215568   2.778   1.641  15.804
 1582TIP3    H115569   2.733   1.568  15.851
 1582TIP3    H215570   2.870   1.623  15.831
 1583TIP3   OH215571   3.260   1.596  15.858
 1583TIP3    H115572   3.278   1.510  15.899
 1583TIP3    H215573   3.341   1.615  15.806
 1584TIP3   OH215574   2.355   1.216  15.793
 1584TIP3    H115575   2.341   1.173  15.880
 1584TIP3    H215576   2.447   1.192  15.772
 1585TIP3   OH215577   2.946   1.337  15.904
 1585TIP3    H115578   2.969   1.339  15.998
 1585TIP3    H215579   2.937   1.241  15.884
 1586TIP3   OH215580   2.579   0.863  15.899
 1586TIP3    H115581   2.528   0.888  15.820
 1586TIP3    H215582   2.657   0.823  15.855
 1587TIP3   OH215583   3.595   1.058  15.796
 1587TIP3    H115584   3.519   1.023  15.745
 1587TIP3    H215585   3.560   1.145  15.822
 1588TIP3   OH215586   3.465   0.728  15.886
 1588TIP3    H115587   3.523   0.760  15.815
 1588TIP3    H215588   3.433   0.647  15.844
 1589TIP3   OH215589   3.393   0.410  15.840
 1589TIP3    H115590   3.392   0.407  15.938
 1589TIP3    H215591   3.312   0.363  15.818
 1590TIP3   OH215592   2.135   1.744  15.858
 1590TIP3    H115593   2.112   1.756  15.953
 1590TIP3    H215594   2.217   1.691  15.871
 1591TIP3   OH215595   4.300   0.402  15.849
 1591TIP3    H115596   4.336   0.433  15.934
 1591TIP3    H215597   4.252   0.481  15.820
 1592TIP3   OH215598   4.484   1.455  15.878
 1592TIP3    H115599   4.445   1.415  15.797
 1592TIP3    H215600   4.514   1.377  15.925
 1593TIP3   OH215601   3.862   0.703  15.896
 1593TIP3    H115602   3.924   0.700  15.972
 1593TIP3    H215603   3.807   0.625  15.912
 1594TIP3   OH215604   4.689   1.617  15.801
 1594TIP3    H115605   4.631   1.544  15.831
 1594TIP3    H215606   4.773   1.573  15.780
 1595TIP3   OH215607   4.238   1.206  15.778
 1595TIP3    H115608   4.235   1.188  15.874
 1595TIP3    H215609   4.331   1.185  15.756
 1596TIP3   OH215610   4.799   1.332  15.804
 1596TIP3    H115611   4.771   1.319  15.895
 1596TIP3    H215612   4.829   1.240  15.784
 1597TIP3   OH215613   4.443   0.858  15.894
 1597TIP3    H115614   4.412   0.899  15.812
 1597TIP3    H215615   4.528   0.824  15.864
 1598TIP3   OH215616   3.985   1.741  15.879
 1598TIP3    H115617   3.990   1.751  15.978
 1598TIP3    H215618   4.047   1.667  15.870
 1599TIP3   OH215619   1.365   3.056  15.844
 1599TIP3    H115620   1.310   2.984  15.808
 1599TIP3    H215621   1.325   3.073  15.930
 1600TIP3   OH215622   0.585   2.313  15.827
 1600TIP3    H115623   0.594   2.326  15.924
 1600TIP3    H215624   0.512   2.375  15.812
 1601TIP3   OH215625   0.737   3.342  15.862
 1601TIP3    H115626   0.742   3.316  15.768
 1601TIP3    H215627   0.677   3.274  15.896
 1602TIP3   OH215628   0.099   2.618  15.937
 1602TIP3    H115629   0.193   2.594  15.934
 1602TIP3    H215630   0.058   2.546  15.883
 1603TIP3   OH215631   0.933   3.556  15.847
 1603TIP3    H115632   0.869   3.483  15.853
 1603TIP3    H215633   1.010   3.511  15.803
 1604TIP3   OH215634   1.376   3.480  15.852
 1604TIP3    H115635   1.392   3.392  15.891
 1604TIP3    H215636   1.447   3.489  15.784
 1605TIP3   OH215637   0.448   3.092  15.805
 1605TIP3    H115638   0.455   3.067  15.900
 1605TIP3    H215639   0.533   3.058  15.772
 1606TIP3   OH215640   1.044   3.221  15.868
 1606TIP3    H115641   1.081   3.208  15.956
 1606TIP3    H215642   1.029   3.126  15.842
 1607TIP3   OH215643   0.685   2.740  15.889
 1607TIP3    H115644   0.622   2.761  15.818
 1607TIP3    H215645   0.763   2.719  15.834
 1608TIP3   OH215646   1.722   2.949  15.815
 1608TIP3    H115647   1.670   2.899  15.749
 1608TIP3    H215648   1.676   3.035  15.811
 1609TIP3   OH215649   1.613   2.608  15.893
 1609TIP3    H115650   1.653   2.656  15.817
 1609TIP3    H215651   1.567   2.539  15.843
 1610TIP3   OH215652   1.507   2.295  15.812
 1610TIP3    H115653   1.497   2.300  15.909
 1610TIP3    H215654   1.416   2.302  15.779
 1611TIP3   OH215655   0.243   3.677  15.924
 1611TIP3    H115656   0.249   3.654  16.019
 1611TIP3    H215657   0.252   3.587  15.886
 1612TIP3   OH215658   3.315   2.961  15.808
 1612TIP3    H115659   3.220   2.979  15.820
 1612TIP3    H215660   3.349   2.995  15.893
 1613TIP3   OH215661   2.489   2.318  15.840
 1613TIP3    H115662   2.481   2.331  15.936
 1613TIP3    H215663   2.424   2.382  15.808
 1614TIP3   OH215664   2.627   3.356  15.862
 1614TIP3    H115665   2.611   3.323  15.772
 1614TIP3    H215666   2.574   3.290  15.909
 1615TIP3   OH215667   1.979   2.600  15.887
 1615TIP3    H115668   2.050   2.585  15.952
 1615TIP3    H215669   1.899   2.569  15.931
 1616TIP3   OH215670   2.810   3.554  15.844
 1616TIP3    H115671   2.759   3.471  15.850
 1616TIP3    H215672   2.893   3.520  15.803
 1617TIP3   OH215673   3.273   3.472  15.849
 1617TIP3    H115674   3.326   3.392  15.869
 1617TIP3    H215675   3.324   3.505  15.772
 1618TIP3   OH215676   2.371   3.109  15.799
 1618TIP3    H115677   2.365   3.066  15.888
 1618TIP3    H215678   2.456   3.072  15.768
 1619TIP3   OH215679   2.940   3.212  15.888
 1619TIP3    H115680   2.948   3.167  15.974
 1619TIP3    H215681   2.934   3.131  15.833
 1620TIP3   OH215682   2.580   2.731  15.899
 1620TIP3    H115683   2.517   2.746  15.825
 1620TIP3    H215684   2.662   2.723  15.846
 1621TIP3   OH215685   3.597   2.971  15.785
 1621TIP3    H115686   3.503   2.959  15.802
 1621TIP3    H215687   3.596   3.062  15.752
 1622TIP3   OH215688   3.476   2.634  15.899
 1622TIP3    H115689   3.539   2.675  15.838
 1622TIP3    H215690   3.467   2.545  15.860
 1623TIP3   OH215691   3.368   2.275  15.834
 1623TIP3    H115692   3.381   2.278  15.932
 1623TIP3    H215693   3.277   2.242  15.827
 1624TIP3   OH215694   2.137   3.643  15.869
 1624TIP3    H115695   2.132   3.627  15.965
 1624TIP3    H215696   2.190   3.564  15.847
 1625TIP3   OH215697   4.337   2.281  15.852
 1625TIP3    H115698   4.378   2.287  15.941
 1625TIP3    H215699   4.290   2.366  15.850
 1626TIP3   OH215700   4.511   3.344  15.863
 1626TIP3    H115701   4.499   3.292  15.781
 1626TIP3    H215702   4.450   3.300  15.924
 1627TIP3   OH215703   3.850   2.613  15.850
 1627TIP3    H115704   3.905   2.634  15.928
 1627TIP3    H215705   3.806   2.531  15.877
 1628TIP3   OH215706   4.690   3.543  15.858
 1628TIP3    H115707   4.632   3.464  15.846
 1628TIP3    H215708   4.776   3.507  15.827
 1629TIP3   OH215709   4.243   3.088  15.833
 1629TIP3    H115710   4.209   3.061  15.922
 1629TIP3    H215711   4.328   3.041  15.832
 1630TIP3   OH215712   4.807   3.221  15.828
 1630TIP3    H115713   4.732   3.225  15.890
 1630TIP3    H215714   4.813   3.123  15.811
 1631TIP3   OH215715   4.426   2.748  15.907
 1631TIP3    H115716   4.351   2.728  15.849
 1631TIP3    H215717   4.497   2.714  15.851
 1632TIP3   OH215718   3.989   3.637  15.902
 1632TIP3    H115719   3.987   3.621  15.997
 1632TIP3    H215720   4.037   3.556  15.876
 1633TIP3   OH215721   1.380   4.925  15.825
 1633TIP3    H115722   1.285   4.909  15.839
 1633TIP3    H215723   1.421   4.869  15.893
 1634TIP3   OH215724   0.590   4.156  15.801
 1634TIP3    H115725   0.567   4.174  15.893
 1634TIP3    H215726   0.524   4.211  15.755
 1635TIP3   OH215727   0.665   5.181  15.856
 1635TIP3    H115728   0.737   5.116  15.844
 1635TIP3    H215729   0.648   5.175  15.951
 1636TIP3   OH215730   0.118   4.474  15.882
 1636TIP3    H115731   0.170   4.469  15.966
 1636TIP3    H215732   0.027   4.462  15.916
 1637TIP3   OH215733   0.462   4.962  15.815
 1637TIP3    H115734   0.474   4.901  15.889
 1637TIP3    H215735   0.553   4.988  15.794
 1638TIP3   OH215736   1.063   5.107  15.932
 1638TIP3    H115737   1.138   5.075  15.986
 1638TIP3    H215738   1.043   5.029  15.876
 1639TIP3   OH215739   0.695   4.588  15.907
 1639TIP3    H115740   0.608   4.572  15.865
 1639TIP3    H215741   0.740   4.625  15.829
 1640TIP3   OH215742   1.715   4.852  15.823
 1640TIP3    H115743   1.652   4.824  15.753
 1640TIP3    H215744   1.685   4.943  15.838
 1641TIP3   OH215745   1.611   4.510  15.906
 1641TIP3    H115746   1.664   4.560  15.842
 1641TIP3    H215747   1.576   4.439  15.849
 1642TIP3   OH215748   1.498   4.143  15.791
 1642TIP3    H115749   1.523   4.159  15.885
 1642TIP3    H215750   1.400   4.151  15.795
 1643TIP3   OH215751   3.295   4.925  15.853
 1643TIP3    H115752   3.263   4.841  15.816
 1643TIP3    H215753   3.336   4.895  15.936
 1644TIP3   OH215754   2.473   4.157  15.796
 1644TIP3    H115755   2.455   4.191  15.887
 1644TIP3    H215756   2.412   4.208  15.743
 1645TIP3   OH215757   2.533   5.214  15.856
 1645TIP3    H115758   2.590   5.136  15.845
 1645TIP3    H215759   2.521   5.213  15.952
 1646TIP3   OH215760   1.976   4.498  15.863
 1646TIP3    H115761   2.019   4.513  15.948
 1646TIP3    H215762   1.900   4.443  15.885
 1647TIP3   OH215763   2.365   4.939  15.819
 1647TIP3    H115764   2.365   4.843  15.805
 1647TIP3    H215765   2.452   4.961  15.779
 1648TIP3   OH215766   2.921   5.105  15.927
 1648TIP3    H115767   2.992   5.067  15.980
 1648TIP3    H215768   2.903   5.033  15.863
 1649TIP3   OH215769   2.562   4.617  15.915
 1649TIP3    H115770   2.479   4.585  15.876
 1649TIP3    H215771   2.604   4.657  15.836
 1650TIP3   OH215772   3.602   4.872  15.827
 1650TIP3    H115773   3.526   4.835  15.777
 1650TIP3    H215774   3.577   4.967  15.822
 1651TIP3   OH215775   3.476   4.514  15.885
 1651TIP3    H115776   3.539   4.558  15.826
 1651TIP3    H215777   3.446   4.442  15.826
 1652TIP3   OH215778   3.367   4.166  15.819
 1652TIP3    H115779   3.385   4.166  15.915
 1652TIP3    H215780   3.269   4.167  15.818
 1653TIP3   OH215781   4.321   4.135  15.775
 1653TIP3    H115782   4.315   4.186  15.860
 1653TIP3    H215783   4.292   4.200  15.711
 1654TIP3   OH215784   4.436   5.189  15.865
 1654TIP3    H115785   4.510   5.127  15.857
 1654TIP3    H215786   4.430   5.201  15.961
 1655TIP3   OH215787   3.840   4.499  15.862
 1655TIP3    H115788   3.921   4.492  15.916
 1655TIP3    H215789   3.781   4.437  15.906
 1656TIP3   OH215790   4.243   4.940  15.809
 1656TIP3    H115791   4.252   4.917  15.903
 1656TIP3    H215792   4.336   4.945  15.780
 1657TIP3   OH215793   4.751   5.093  15.821
 1657TIP3    H115794   4.770   5.069  15.912
 1657TIP3    H215795   4.774   5.009  15.778
 1658TIP3   OH215796   4.433   4.591  15.906
 1658TIP3    H115797   4.353   4.573  15.854
 1658TIP3    H215798   4.493   4.622  15.835
 1659TIP3   OH215799   1.120   1.049   8.650
 1659TIP3    H115800   1.121   1.143   8.680
 1659TIP3    H215801   1.042   1.051   8.594
 1660TIP3   OH215802   1.004   0.925   8.991
 1660TIP3    H115803   1.001   0.879   9.078
 1660TIP3    H215804   0.919   0.902   8.951
 1661TIP3   OH215805   0.191   0.959   9.174
 1661TIP3    H115806   0.175   0.876   9.223
 1661TIP3    H215807   0.271   0.990   9.220
 1662TIP3   OH215808   1.294   1.234   8.860
 1662TIP3    H115809   1.290   1.164   8.927
 1662TIP3    H215810   1.328   1.308   8.914
 1663TIP3   OH215811   0.293   1.394   8.966
 1663TIP3    H115812   0.277   1.298   8.950
 1663TIP3    H215813   0.387   1.384   8.991
 1664TIP3   OH215814  -0.044   0.638   8.582
 1664TIP3    H115815  -0.024   0.731   8.558
 1664TIP3    H215816  -0.023   0.592   8.497
 1665TIP3   OH215817  -0.002   0.926   8.788
 1665TIP3    H115818   0.061   0.850   8.802
 1665TIP3    H215819   0.059   1.001   8.774
 1666TIP3   OH215820   1.118   1.802   8.872
 1666TIP3    H115821   1.185   1.748   8.824
 1666TIP3    H215822   1.060   1.728   8.899
 1667TIP3   OH215823   0.804   1.241   9.106
 1667TIP3    H115824   0.843   1.187   9.037
 1667TIP3    H215825   0.886   1.268   9.153
 1668TIP3   OH215826   1.686   0.308   9.107
 1668TIP3    H115827   1.701   0.366   9.184
 1668TIP3    H215828   1.739   0.354   9.040
 1669TIP3   OH215829   1.191   0.656   9.121
 1669TIP3    H115830   1.222   0.565   9.134
 1669TIP3    H215831   1.163   0.653   9.027
 1670TIP3   OH215832   0.488   0.447   8.834
 1670TIP3    H115833   0.500   0.514   8.762
 1670TIP3    H215834   0.432   0.383   8.783
 1671TIP3   OH215835   1.200   0.456   8.675
 1671TIP3    H115836   1.258   0.450   8.756
 1671TIP3    H215837   1.258   0.516   8.624
 1672TIP3   OH215838   0.160   0.735   8.873
 1672TIP3    H115839   0.190   0.674   8.943
 1672TIP3    H215840   0.173   0.679   8.793
 1673TIP3   OH215841   0.568   0.844   8.834
 1673TIP3    H115842   0.662   0.821   8.849
 1673TIP3    H215843   0.544   0.765   8.781
 1674TIP3   OH215844   1.719   0.467   9.336
 1674TIP3    H115845   1.677   0.554   9.315
 1674TIP3    H215846   1.734   0.479   9.432
 1675TIP3   OH215847   0.400   0.416   9.236
 1675TIP3    H115848   0.348   0.456   9.163
 1675TIP3    H215849   0.328   0.402   9.301
 1676TIP3   OH215850   1.067   1.309   8.573
 1676TIP3    H115851   1.036   1.320   8.481
 1676TIP3    H215852   1.024   1.386   8.618
 1677TIP3   OH215853   0.596   1.115   9.221
 1677TIP3    H115854   0.535   1.185   9.251
 1677TIP3    H215855   0.671   1.171   9.187
 1678TIP3   OH215856   1.397   0.464   8.850
 1678TIP3    H115857   1.418   0.382   8.898
 1678TIP3    H215858   1.445   0.528   8.906
 1679TIP3   OH215859   0.334   0.578   9.034
 1679TIP3    H115860   0.375   0.660   9.071
 1679TIP3    H215861   0.370   0.570   8.943
 1680TIP3   OH215862   0.473   1.378   9.282
 1680TIP3    H115863   0.472   1.474   9.302
 1680TIP3    H215864   0.380   1.355   9.302
 1681TIP3   OH215865   0.011   1.293   8.382
 1681TIP3    H115866   0.037   1.351   8.306
 1681TIP3    H215867   0.066   1.323   8.455
 1682TIP3   OH215868   1.405   1.414   9.056
 1682TIP3    H115869   1.314   1.450   9.068
 1682TIP3    H215870   1.450   1.494   9.025
 1683TIP3   OH215871   1.433   0.319   9.238
 1683TIP3    H115872   1.363   0.343   9.173
 1683TIP3    H215873   1.510   0.304   9.179
 1684TIP3   OH215874   0.737   0.152   8.909
 1684TIP3    H115875   0.730   0.058   8.934
 1684TIP3    H215876   0.662   0.185   8.964
 1685TIP3   OH215877   1.260   1.608   8.746
 1685TIP3    H115878   1.270   1.532   8.684
 1685TIP3    H215879   1.339   1.661   8.724
 1686TIP3   OH215880   1.364   1.404   8.572
 1686TIP3    H115881   1.336   1.344   8.500
 1686TIP3    H215882   1.332   1.354   8.649
 1687TIP3   OH215883   1.527   1.272   9.412
 1687TIP3    H115884   1.534   1.206   9.340
 1687TIP3    H215885   1.544   1.354   9.361
 1688TIP3   OH215886   0.977   0.956   8.393
 1688TIP3    H115887   0.918   1.015   8.344
 1688TIP3    H215888   1.059   0.954   8.339
 1689TIP3   OH215889   1.000   0.800   8.118
 1689TIP3    H115890   1.079   0.837   8.162
 1689TIP3    H215891   1.027   0.708   8.100
 1690TIP3   OH215892   1.726   0.908   9.218
 1690TIP3    H115893   1.656   0.974   9.202
 1690TIP3    H215894   1.796   0.942   9.159
 1691TIP3   OH215895   1.355   0.986   8.508
 1691TIP3    H115896   1.275   1.008   8.561
 1691TIP3    H215897   1.406   0.933   8.573
 1692TIP3   OH215898   1.314   0.821   9.439
 1692TIP3    H115899   1.264   0.897   9.474
 1692TIP3    H215900   1.276   0.818   9.349
 1693TIP3   OH215901   0.476   1.019   8.652
 1693TIP3    H115902   0.453   0.966   8.572
 1693TIP3    H215903   0.505   0.952   8.718
 1694TIP3   OH215904   0.592   1.360   8.946
 1694TIP3    H115905   0.612   1.330   8.856
 1694TIP3    H215906   0.665   1.323   8.998
 1695TIP3   OH215907   0.492   0.902   9.095
 1695TIP3    H115908   0.529   0.915   9.005
 1695TIP3    H215909   0.533   0.977   9.143
 1696TIP3   OH215910   1.157   1.500   9.108
 1696TIP3    H115911   1.157   1.562   9.184
 1696TIP3    H215912   1.108   1.425   9.146
 1697TIP3   OH215913   0.564   1.337   9.532
 1697TIP3    H115914   0.505   1.392   9.585
 1697TIP3    H215915   0.518   1.332   9.445
 1698TIP3   OH215916   1.220   0.907   8.288
 1698TIP3    H115917   1.274   0.933   8.368
 1698TIP3    H215918   1.247   0.978   8.224
 1699TIP3   OH215919   0.306   1.025   9.434
 1699TIP3    H115920   0.287   1.083   9.510
 1699TIP3    H215921   0.218   0.982   9.425
 1700TIP3   OH215922   0.954   1.540   8.680
 1700TIP3    H115923   1.014   1.613   8.692
 1700TIP3    H215924   0.912   1.564   8.595
 1701TIP3   OH215925   1.600   0.059   8.270
 1701TIP3    H115926   1.507   0.087   8.276
 1701TIP3    H215927   1.645   0.143   8.251
 1702TIP3   OH215928   0.378   0.928   8.397
 1702TIP3    H115929   0.347   1.021   8.393
 1702TIP3    H215930   0.293   0.881   8.404
 1703TIP3   OH215931   1.663   1.534   8.118
 1703TIP3    H115932   1.692   1.623   8.149
 1703TIP3    H215933   1.749   1.492   8.099
 1704TIP3   OH215934   0.019   1.203   9.319
 1704TIP3    H115935  -0.047   1.210   9.247
 1704TIP3    H215936   0.045   1.110   9.310
 1705TIP3   OH215937  -0.012   1.477   8.952
 1705TIP3    H115938   0.052   1.418   8.993
 1705TIP3    H215939  -0.088   1.477   9.014
 1706TIP3   OH215940   0.820   1.467   9.529
 1706TIP3    H115941   0.824   1.449   9.624
 1706TIP3    H215942   0.725   1.453   9.511
 1707TIP3   OH215943   0.983   1.881   8.430
 1707TIP3    H115944   0.963   1.896   8.335
 1707TIP3    H215945   0.950   1.962   8.472
 1708TIP3   OH215946   0.300   1.703   8.666
 1708TIP3    H115947   0.330   1.688   8.759
 1708TIP3    H215948   0.264   1.614   8.643
 1709TIP3   OH215949   1.193   1.783   8.181
 1709TIP3    H115950   1.273   1.753   8.133
 1709TIP3    H215951   1.223   1.769   8.273
 1710TIP3   OH215952   1.243   1.810   8.446
 1710TIP3    H115953   1.146   1.811   8.457
 1710TIP3    H215954   1.277   1.782   8.533
 1711TIP3   OH215955   1.462   0.712   9.640
 1711TIP3    H115956   1.412   0.754   9.567
 1711TIP3    H215957   1.476   0.621   9.609
 1712TIP3   OH215958   0.232   1.337   9.426
 1712TIP3    H115959   0.249   1.288   9.509
 1712TIP3    H215960   0.153   1.290   9.392
 1713TIP3   OH215961   0.519   0.228   9.061
 1713TIP3    H115962   0.448   0.202   8.996
 1713TIP3    H215963   0.500   0.163   9.131
 1714TIP3   OH215964   1.004   0.162   9.375
 1714TIP3    H115965   0.946   0.138   9.450
 1714TIP3    H215966   0.949   0.140   9.299
 1715TIP3   OH215967   1.266   0.536   9.433
 1715TIP3    H115968   1.217   0.506   9.512
 1715TIP3    H215969   1.283   0.629   9.455
 1716TIP3   OH215970   1.289   1.066   8.087
 1716TIP3    H115971   1.307   0.992   8.028
 1716TIP3    H215972   1.379   1.107   8.092
 1717TIP3   OH215973   0.946   0.377   8.136
 1717TIP3    H115974   0.874   0.356   8.197
 1717TIP3    H215975   0.900   0.371   8.050
 1718TIP3   OH215976   0.535   0.663   9.194
 1718TIP3    H115977   0.503   0.678   9.286
 1718TIP3    H215978   0.523   0.754   9.159
 1719TIP3   OH215979   0.498   0.651   8.660
 1719TIP3    H115980   0.401   0.660   8.650
 1719TIP3    H215981   0.519   0.629   8.567
 1720TIP3   OH215982   1.080   0.763   8.560
 1720TIP3    H115983   1.044   0.845   8.520
 1720TIP3    H215984   1.132   0.730   8.485
 1721TIP3   OH215985   0.956   0.762   9.662
 1721TIP3    H115986   0.897   0.695   9.701
 1721TIP3    H215987   1.035   0.752   9.719
 1722TIP3   OH215988   1.151   0.702   8.846
 1722TIP3    H115989   1.142   0.780   8.787
 1722TIP3    H215990   1.127   0.632   8.784
 1723TIP3   OH215991   0.214   0.689   9.293
 1723TIP3    H115992   0.300   0.721   9.327
 1723TIP3    H215993   0.211   0.598   9.328
 1724TIP3   OH215994   0.599   0.454   8.103
 1724TIP3    H115995   0.537   0.408   8.163
 1724TIP3    H215996   0.576   0.547   8.117
 1725TIP3   OH215997  -0.047   0.331   8.778
 1725TIP3    H115998   0.043   0.347   8.815
 1725TIP3    H215999  -0.029   0.305   8.686
 1726TIP3   OH216000   0.059   0.470   8.363
 1726TIP3    H116001   0.090   0.549   8.313
 1726TIP3    H216002   0.031   0.414   8.288
 1727TIP3   OH216003   1.022   0.825   9.248
 1727TIP3    H116004   1.091   0.762   9.218
 1727TIP3    H216005   0.974   0.771   9.315
 1728TIP3   OH216006   0.796   0.436   8.706
 1728TIP3    H116007   0.706   0.399   8.723
 1728TIP3    H216008   0.839   0.431   8.794
 1729TIP3   OH216009   0.220   0.596   8.656
 1729TIP3    H116010   0.145   0.586   8.595
 1729TIP3    H216011   0.260   0.507   8.646
 1730TIP3   OH216012   0.495   0.601   8.393
 1730TIP3    H116013   0.582   0.640   8.378
 1730TIP3    H216014   0.441   0.654   8.331
 1731TIP3   OH216015   1.215   0.365   9.067
 1731TIP3    H116016   1.137   0.363   9.126
 1731TIP3    H216017   1.193   0.307   8.992
 1732TIP3   OH216018   0.417   0.698   8.142
 1732TIP3    H116019   0.389   0.713   8.050
 1732TIP3    H216020   0.506   0.740   8.140
 1733TIP3   OH216021   0.246   1.167   9.653
 1733TIP3    H116022   0.324   1.151   9.709
 1733TIP3    H216023   0.176   1.179   9.720
 1734TIP3   OH216024   0.799   0.725   8.910
 1734TIP3    H116025   0.894   0.717   8.893
 1734TIP3    H216026   0.781   0.646   8.962
 1735TIP3   OH216027   0.334   0.348   8.631
 1735TIP3    H116028   0.288   0.261   8.642
 1735TIP3    H216029   0.383   0.331   8.549
 1736TIP3   OH216030   0.757   0.496   9.163
 1736TIP3    H116031   0.746   0.589   9.193
 1736TIP3    H216032   0.843   0.477   9.206
 1737TIP3   OH216033   0.786   1.200   8.384
 1737TIP3    H116034   0.720   1.140   8.345
 1737TIP3    H216035   0.751   1.209   8.476
 1738TIP3   OH216036   1.536   1.103   9.201
 1738TIP3    H116037   1.582   1.139   9.121
 1738TIP3    H216038   1.444   1.096   9.169
 1739TIP3   OH216039   1.202   0.473   8.120
 1739TIP3    H116040   1.112   0.435   8.134
 1739TIP3    H216041   1.214   0.533   8.196
 1740TIP3   OH216042   0.889   1.195   9.435
 1740TIP3    H116043   0.857   1.137   9.508
 1740TIP3    H216044   0.874   1.282   9.474
 1741TIP3   OH216045   1.242   0.645   8.351
 1741TIP3    H116046   1.332   0.652   8.391
 1741TIP3    H216047   1.234   0.733   8.310
 1742TIP3   OH216048   0.333   1.131   8.909
 1742TIP3    H116049   0.373   1.096   8.828
 1742TIP3    H216050   0.346   1.057   8.969
 1743TIP3   OH216051   0.986   1.338   8.287
 1743TIP3    H116052   0.935   1.413   8.323
 1743TIP3    H216053   0.925   1.266   8.314
 1744TIP3   OH216054   0.052   0.932   9.429
 1744TIP3    H116055   0.022   0.907   9.518
 1744TIP3    H216056  -0.017   0.887   9.375
 1745TIP3   OH216057   1.188   1.428   9.527
 1745TIP3    H116058   1.099   1.456   9.503
 1745TIP3    H216059   1.207   1.482   9.604
 1746TIP3   OH216060   1.729   0.628   8.367
 1746TIP3    H116061   1.672   0.622   8.287
 1746TIP3    H216062   1.763   0.718   8.357
 1747TIP3   OH216063   1.751   1.226   9.550
 1747TIP3    H116064   1.668   1.267   9.515
 1747TIP3    H216065   1.803   1.218   9.467
 1748TIP3   OH216066   1.630   1.515   8.392
 1748TIP3    H116067   1.547   1.468   8.410
 1748TIP3    H216068   1.641   1.509   8.295
 1749TIP3   OH216069   1.303   1.017   9.056
 1749TIP3    H116070   1.213   0.987   9.039
 1749TIP3    H216071   1.356   0.954   9.002
 1750TIP3   OH216072   0.511   1.466   8.641
 1750TIP3    H116073   0.571   1.538   8.615
 1750TIP3    H216074   0.454   1.509   8.706
 1751TIP3   OH216075   0.076   0.992   8.206
 1751TIP3    H116076   0.169   1.014   8.226
 1751TIP3    H216077   0.060   1.042   8.125
 1752TIP3   OH216078   0.668   1.238   8.630
 1752TIP3    H116079   0.614   1.319   8.629
 1752TIP3    H216080   0.605   1.171   8.662
 1753TIP3   OH216081   0.749   1.638   9.305
 1753TIP3    H116082   0.812   1.702   9.266
 1753TIP3    H216083   0.803   1.586   9.368
 1754TIP3   OH216084   0.588   1.727   8.612
 1754TIP3    H116085   0.492   1.744   8.610
 1754TIP3    H216086   0.619   1.818   8.632
 1755TIP3   OH216087   1.054   1.249   9.210
 1755TIP3    H116088   1.013   1.211   9.292
 1755TIP3    H216089   1.126   1.185   9.192
 1756TIP3   OH216090   1.312   1.394   8.119
 1756TIP3    H116091   1.339   1.346   8.200
 1756TIP3    H216092   1.217   1.376   8.119
 1757TIP3   OH216093   1.394   1.700   9.412
 1757TIP3    H116094   1.305   1.673   9.383
 1757TIP3    H216095   1.406   1.783   9.361
 1758TIP3   OH216096   1.792   1.771   8.207
 1758TIP3    H116097   1.851   1.823   8.149
 1758TIP3    H216098   1.723   1.838   8.225
 1759TIP3   OH216099   0.171   0.410   9.376
 1759TIP3    H116100   0.084   0.440   9.407
 1759TIP3    H216101   0.161   0.315   9.393
 1760TIP3   OH216102   1.377   1.235   8.339
 1760TIP3    H116103   1.358   1.141   8.356
 1760TIP3    H216104   1.473   1.238   8.362
 1761TIP3   OH216105   0.152   1.617   9.262
 1761TIP3    H116106   0.186   1.527   9.258
 1761TIP3    H216107   0.196   1.652   9.340
 1762TIP3   OH216108   0.595   1.411   8.233
 1762TIP3    H116109   0.644   1.355   8.295
 1762TIP3    H216110   0.617   1.501   8.267
 1763TIP3   OH216111   0.259   1.166   8.315
 1763TIP3    H116112   0.167   1.192   8.329
 1763TIP3    H216113   0.293   1.244   8.268
 1764TIP3   OH216114   1.061   0.415   9.302
 1764TIP3    H116115   1.145   0.439   9.347
 1764TIP3    H216116   1.042   0.332   9.351
 1765TIP3   OH216117   1.156   0.328   8.451
 1765TIP3    H116118   1.132   0.416   8.417
 1765TIP3    H216119   1.187   0.353   8.541
 1766TIP3   OH216120   0.869   1.546   8.422
 1766TIP3    H116121   0.784   1.590   8.400
 1766TIP3    H216122   0.929   1.594   8.363
 1767TIP3   OH216123   0.884   0.528   8.466
 1767TIP3    H116124   0.937   0.603   8.500
 1767TIP3    H216125   0.841   0.497   8.548
 1768TIP3   OH216126   0.923   0.643   9.423
 1768TIP3    H116127   0.940   0.690   9.509
 1768TIP3    H216128   0.972   0.560   9.435
 1769TIP3   OH216129   0.919   0.232   8.572
 1769TIP3    H116130   0.895   0.306   8.632
 1769TIP3    H216131   1.008   0.260   8.543
 1770TIP3   OH216132   0.633   1.651   8.349
 1770TIP3    H116133   0.668   1.726   8.295
 1770TIP3    H216134   0.609   1.701   8.430
 1771TIP3   OH216135   0.460   0.335   8.309
 1771TIP3    H116136   0.456   0.426   8.346
 1771TIP3    H216137   0.553   0.311   8.328
 1772TIP3   OH216138   1.498   0.440   9.542
 1772TIP3    H116139   1.414   0.465   9.497
 1772TIP3    H216140   1.529   0.373   9.479
 1773TIP3   OH216141   1.394   0.794   8.914
 1773TIP3    H116142   1.312   0.743   8.925
 1773TIP3    H216143   1.459   0.742   8.967
 1774TIP3   OH216144   0.336   1.413   8.167
 1774TIP3    H116145   0.426   1.432   8.202
 1774TIP3    H216146   0.357   1.359   8.090
 1775TIP3   OH216147   0.086   0.725   8.230
 1775TIP3    H116148   0.073   0.822   8.223
 1775TIP3    H216149   0.106   0.704   8.135
 1776TIP3   OH216150   1.466   1.757   9.064
 1776TIP3    H116151   1.484   1.829   8.999
 1776TIP3    H216152   1.558   1.729   9.080
 1777TIP3   OH216153   0.321   0.135   8.908
 1777TIP3    H116154   0.292   0.102   8.822
 1777TIP3    H216155   0.299   0.058   8.963
 1778TIP3   OH216156   0.132   1.505   8.583
 1778TIP3    H116157   0.063   1.440   8.603
 1778TIP3    H216158   0.135   1.512   8.485
 1779TIP3   OH216159   0.082   1.852   9.750
 1779TIP3    H116160   0.165   1.831   9.797
 1779TIP3    H216161   0.065   1.768   9.703
 1780TIP3   OH216162   0.856   1.601   8.091
 1780TIP3    H116163   0.792   1.568   8.026
 1780TIP3    H216164   0.931   1.624   8.033
 1781TIP3   OH216165   1.422   1.697   8.074
 1781TIP3    H116166   1.434   1.608   8.112
 1781TIP3    H216167   1.398   1.672   7.982
 1782TIP3   OH216168   0.006   1.186   9.780
 1782TIP3    H116169   0.023   1.090   9.778
 1782TIP3    H216170  -0.050   1.197   9.699
 1783TIP3   OH216171   0.494   1.136   8.063
 1783TIP3    H116172   0.496   1.074   8.136
 1783TIP3    H216173   0.586   1.168   8.070
 1784TIP3   OH216174   0.720   1.155   9.665
 1784TIP3    H116175   0.664   1.214   9.610
 1784TIP3    H216176   0.685   1.065   9.651
 1785TIP3   OH216177   1.283   1.157   9.466
 1785TIP3    H116178   1.370   1.200   9.447
 1785TIP3    H216179   1.236   1.235   9.501
 1786TIP3   OH216180   0.094   0.896   9.749
 1786TIP3    H116181   0.174   0.875   9.698
 1786TIP3    H216182   0.117   0.859   9.837
 1787TIP3   OH216183   0.631   1.019   8.260
 1787TIP3    H116184   0.559   0.987   8.318
 1787TIP3    H216185   0.655   0.937   8.213
 1788TIP3   OH216186   0.445   0.791   9.410
 1788TIP3    H116187   0.387   0.860   9.448
 1788TIP3    H216188   0.532   0.837   9.418
 1789TIP3   OH216189   0.678   0.767   8.144
 1789TIP3    H116190   0.691   0.795   8.049
 1789TIP3    H216191   0.769   0.736   8.162
 1790TIP3   OH216192   1.551   1.081   8.102
 1790TIP3    H116193   1.625   1.047   8.051
 1790TIP3    H216194   1.580   1.173   8.120
 1791TIP3   OH216195   0.568   0.516   9.596
 1791TIP3    H116196   0.594   0.455   9.524
 1791TIP3    H216197   0.511   0.579   9.550
 1792TIP3   OH216198   0.625   0.362   9.373
 1792TIP3    H116199   0.687   0.418   9.322
 1792TIP3    H216200   0.544   0.363   9.319
 1793TIP3   OH216201   0.730   0.942   9.378
 1793TIP3    H116202   0.820   0.949   9.344
 1793TIP3    H216203   0.682   1.012   9.330
 1794TIP3   OH216204   1.179   0.675   9.807
 1794TIP3    H116205   1.146   0.624   9.884
 1794TIP3    H216206   1.231   0.745   9.849
 1795TIP3   OH216207   1.340   0.995   9.673
 1795TIP3    H116208   1.309   1.054   9.600
 1795TIP3    H216209   1.432   0.973   9.646
 1796TIP3   OH216210   0.343   0.690   9.762
 1796TIP3    H116211   0.322   0.596   9.755
 1796TIP3    H216212   0.433   0.694   9.723
 1797TIP3   OH216213   0.699   0.099   9.307
 1797TIP3    H116214   0.667   0.191   9.320
 1797TIP3    H216215   0.615   0.049   9.308
 1798TIP3   OH216216   0.824   0.523   9.728
 1798TIP3    H116217   0.763   0.533   9.801
 1798TIP3    H216218   0.761   0.522   9.653
 1799TIP3   OH216219   1.103   0.431   9.641
 1799TIP3    H116220   1.020   0.457   9.687
 1799TIP3    H216221   1.166   0.433   9.716
 1800TIP3   OH216222   1.244   0.388   9.872
 1800TIP3    H116223   1.251   0.292   9.869
 1800TIP3    H216224   1.184   0.408   9.945
 1801TIP3   OH216225   0.199   0.424   9.791
 1801TIP3    H116226   0.197   0.352   9.725
 1801TIP3    H216227   0.179   0.381   9.875
 1802TIP3   OH216228   0.796   0.077   9.573
 1802TIP3    H116229   0.829  -0.014   9.567
 1802TIP3    H216230   0.748   0.086   9.489
 1803TIP3   OH216231   0.688   1.901   8.254
 1803TIP3    H116232   0.781   1.921   8.233
 1803TIP3    H216233   0.645   1.941   8.177
 1804TIP3   OH216234   0.064   1.461   8.180
 1804TIP3    H116235   0.159   1.485   8.181
 1804TIP3    H216236   0.051   1.439   8.087
 1805TIP3   OH216237   5.167   1.948   8.604
 1805TIP3    H116238   5.143   2.015   8.534
 1805TIP3    H216239   5.097   1.966   8.671
 1806TIP3   OH216240   0.058   1.699   8.827
 1806TIP3    H116241   0.059   1.606   8.861
 1806TIP3    H216242   0.089   1.746   8.907
 1807TIP3   OH216243   1.736   1.755   9.102
 1807TIP3    H116244   1.767   1.735   9.194
 1807TIP3    H216245   1.766   1.846   9.093
 1808TIP3   OH216246   1.737   1.701   9.379
 1808TIP3    H116247   1.688   1.621   9.353
 1808TIP3    H216248   1.755   1.681   9.473
 1809TIP3   OH216249   1.606   1.299   9.804
 1809TIP3    H116250   1.516   1.330   9.804
 1809TIP3    H216251   1.655   1.374   9.764
 1810TIP3   OH216252   1.648   1.197   8.378
 1810TIP3    H116253   1.728   1.247   8.406
 1810TIP3    H216254   1.646   1.128   8.445
 1811TIP3   OH216255   1.714   0.967   8.621
 1811TIP3    H116256   1.636   0.907   8.633
 1811TIP3    H216257   1.707   1.020   8.702
 1812TIP3   OH216258   1.690   1.218   9.027
 1812TIP3    H116259   1.772   1.168   9.012
 1812TIP3    H216260   1.722   1.309   9.011
 1813TIP3   OH216261   1.559   1.514   9.289
 1813TIP3    H116262   1.503   1.570   9.347
 1813TIP3    H216263   1.501   1.496   9.213
 1814TIP3   OH216264   1.748   0.952   8.250
 1814TIP3    H116265   1.673   0.913   8.205
 1814TIP3    H216266   1.711   1.036   8.283
 1815TIP3   OH216267   1.582   0.646   8.140
 1815TIP3    H116268   1.592   0.676   8.046
 1815TIP3    H216269   1.559   0.552   8.125
 1816TIP3   OH216270   1.499   0.827   8.670
 1816TIP3    H116271   1.464   0.745   8.631
 1816TIP3    H216272   1.472   0.816   8.764
 1817TIP3   OH216273   0.045   1.092   8.992
 1817TIP3    H116274   0.029   1.012   8.938
 1817TIP3    H216275   0.113   1.060   9.057
 1818TIP3   OH216276   1.608   0.995   9.583
 1818TIP3    H116277   1.619   0.969   9.491
 1818TIP3    H216278   1.654   1.083   9.585
 1819TIP3   OH216279   1.519   0.386   8.130
 1819TIP3    H116280   1.600   0.331   8.141
 1819TIP3    H216281   1.454   0.337   8.181
 1820TIP3   OH216282   1.474   0.596   8.499
 1820TIP3    H116283   1.470   0.500   8.519
 1820TIP3    H216284   1.564   0.601   8.464
 1821TIP3   OH216285   1.561   0.633   9.054
 1821TIP3    H116286   1.660   0.636   9.053
 1821TIP3    H216287   1.549   0.636   9.151
 1822TIP3   OH216288   1.589   0.700   9.313
 1822TIP3    H116289   1.510   0.736   9.355
 1822TIP3    H216290   1.636   0.783   9.285
 1823TIP3   OH216291  -0.021   0.594   9.684
 1823TIP3    H116292   0.032   0.672   9.706
 1823TIP3    H216293   0.047   0.525   9.675
 1824TIP3   OH216294   1.766   0.093   9.848
 1824TIP3    H116295   1.832   0.073   9.781
 1824TIP3    H216296   1.748   0.187   9.833
 1825TIP3   OH216297   1.492   0.312   8.539
 1825TIP3    H116298   1.545   0.275   8.612
 1825TIP3    H216299   1.463   0.231   8.492
 1826TIP3   OH216300   0.165   0.387   8.953
 1826TIP3    H116301   0.093   0.343   9.001
 1826TIP3    H216302   0.197   0.453   9.018
 1827TIP3   OH216303  -0.051   0.707   9.091
 1827TIP3    H116304  -0.019   0.766   9.022
 1827TIP3    H216305   0.027   0.698   9.149
 1828TIP3   OH216306   1.703   0.329   9.706
 1828TIP3    H116307   1.615   0.362   9.681
 1828TIP3    H216308   1.713   0.257   9.641
 1829TIP3   OH216309   1.759   0.276   8.163
 1829TIP3    H116310   1.812   0.259   8.083
 1829TIP3    H216311   1.822   0.329   8.217
 1830TIP3   OH216312  -0.039   0.244   8.525
 1830TIP3    H116313  -0.105   0.293   8.472
 1830TIP3    H216314   0.038   0.259   8.467
 1831TIP3   OH216315   1.421   1.809   8.666
 1831TIP3    H116316   1.495   1.804   8.602
 1831TIP3    H216317   1.458   1.866   8.737
 1832TIP3   OH216318   0.001   0.147   9.299
 1832TIP3    H116319  -0.054   0.073   9.273
 1832TIP3    H216320  -0.023   0.215   9.233
 1833TIP3   OH216321   0.058   1.503   9.689
 1833TIP3    H116322   0.114   1.465   9.619
 1833TIP3    H216323   0.091   1.456   9.766
 1834TIP3   OH216324   0.497   1.647   9.396
 1834TIP3    H116325   0.476   1.736   9.358
 1834TIP3    H216326   0.590   1.639   9.365
 1835TIP3   OH216327   1.139   1.850   9.559
 1835TIP3    H116328   1.219   1.861   9.504
 1835TIP3    H216329   1.167   1.783   9.623
 1836TIP3   OH216330   1.613   0.147   9.500
 1836TIP3    H116331   1.523   0.147   9.467
 1836TIP3    H216332   1.626   0.049   9.507
 1837TIP3   OH216333   0.245   1.967   9.402
 1837TIP3    H116334   0.163   1.996   9.358
 1837TIP3    H216335   0.227   1.991   9.495
 1838TIP3   OH216336   0.468   1.882   9.265
 1838TIP3    H116337   0.384   1.910   9.309
 1838TIP3    H216338   0.473   1.947   9.194
 1839TIP3   OH216339   0.894   1.826   9.172
 1839TIP3    H116340   0.886   1.876   9.089
 1839TIP3    H216341   0.926   1.896   9.233
 1840TIP3   OH216342   1.137   1.709   9.280
 1840TIP3    H116343   1.062   1.739   9.225
 1840TIP3    H216344   1.202   1.780   9.263
 1841TIP3   OH216345   1.342   1.917   9.246
 1841TIP3    H116346   1.349   2.007   9.210
 1841TIP3    H216347   1.376   1.867   9.168
 1842TIP3   OH216348   0.185   1.788   9.050
 1842TIP3    H116349   0.148   1.735   9.124
 1842TIP3    H216350   0.259   1.729   9.022
 1843TIP3   OH216351   0.384   1.643   8.914
 1843TIP3    H116352   0.363   1.551   8.941
 1843TIP3    H216353   0.473   1.656   8.957
 1844TIP3   OH216354   0.621   1.679   9.035
 1844TIP3    H116355   0.650   1.586   9.042
 1844TIP3    H216356   0.647   1.717   9.121
 1845TIP3   OH216357   0.936   0.332   8.916
 1845TIP3    H116358   0.866   0.264   8.918
 1845TIP3    H216359   1.013   0.279   8.889
 1846TIP3   OH216360   1.435   0.171   8.905
 1846TIP3    H116361   1.514   0.163   8.848
 1846TIP3    H216362   1.362   0.150   8.846
 1847TIP3   OH216363   1.661   0.156   8.731
 1847TIP3    H116364   1.716   0.091   8.686
 1847TIP3    H216365   1.722   0.234   8.742
 1848TIP3   OH216366   0.217   0.110   8.616
 1848TIP3    H116367   0.132   0.132   8.574
 1848TIP3    H216368   0.214   0.013   8.616
 1849TIP3   OH216369   0.077   0.150   8.270
 1849TIP3    H116370   0.108   0.107   8.188
 1849TIP3    H216371  -0.018   0.145   8.255
 1850TIP3   OH216372   0.656   0.205   8.648
 1850TIP3    H116373   0.734   0.203   8.589
 1850TIP3    H216374   0.698   0.176   8.732
 1851TIP3   OH216375   1.169   0.150   8.800
 1851TIP3    H116376   1.169   0.151   8.703
 1851TIP3    H216377   1.165   0.055   8.819
 1852TIP3   OH216378   1.347   0.158   8.337
 1852TIP3    H116379   1.277   0.224   8.352
 1852TIP3    H216380   1.329   0.097   8.410
 1853TIP3   OH216381   0.045   1.749   8.382
 1853TIP3    H116382  -0.044   1.755   8.342
 1853TIP3    H216383   0.079   1.836   8.350
 1854TIP3   OH216384   0.227   0.344   8.062
 1854TIP3    H116385   0.266   0.256   8.070
 1854TIP3    H216386   0.243   0.380   8.150
 1855TIP3   OH216387   0.754   0.325   8.345
 1855TIP3    H116388   0.820   0.287   8.405
 1855TIP3    H216389   0.779   0.419   8.356
 1856TIP3   OH216390   0.953   1.888   8.168
 1856TIP3    H116391   1.049   1.864   8.169
 1856TIP3    H216392   0.926   1.825   8.099
 1857TIP3   OH216393   1.606   1.775   8.474
 1857TIP3    H116394   1.624   1.684   8.439
 1857TIP3    H216395   1.604   1.825   8.389
 1858TIP3   OH216396   0.179   0.172   9.596
 1858TIP3    H116397   0.162   0.101   9.531
 1858TIP3    H216398   0.265   0.146   9.633
 1859TIP3   OH216399   0.399   0.101   9.747
 1859TIP3    H116400   0.489   0.074   9.774
 1859TIP3    H216401   0.355   0.115   9.831
 1860TIP3   OH216402   0.310   1.752   8.190
 1860TIP3    H116403   0.299   1.837   8.237
 1860TIP3    H216404   0.405   1.739   8.182
 1861TIP3   OH216405   1.239   5.245   9.739
 1861TIP3    H116406   1.210   5.153   9.761
 1861TIP3    H216407   1.331   5.228   9.713
 1862TIP3   OH216408   3.029   1.060   8.674
 1862TIP3    H116409   3.022   1.149   8.713
 1862TIP3    H216410   2.954   1.063   8.612
 1863TIP3   OH216411   2.889   0.925   8.995
 1863TIP3    H116412   2.894   0.888   9.086
 1863TIP3    H216413   2.817   0.875   8.956
 1864TIP3   OH216414   2.105   0.907   9.185
 1864TIP3    H116415   2.103   0.816   9.224
 1864TIP3    H216416   2.190   0.906   9.136
 1865TIP3   OH216417   3.215   1.262   8.873
 1865TIP3    H116418   3.198   1.191   8.938
 1865TIP3    H216419   3.245   1.335   8.931
 1866TIP3   OH216420   2.185   1.380   8.970
 1866TIP3    H116421   2.163   1.287   8.949
 1866TIP3    H216422   2.276   1.366   9.002
 1867TIP3   OH216423   1.880   0.693   8.577
 1867TIP3    H116424   1.860   0.785   8.602
 1867TIP3    H216425   1.798   0.665   8.533
 1868TIP3   OH216426   1.961   0.961   8.809
 1868TIP3    H116427   2.006   0.876   8.830
 1868TIP3    H216428   1.998   0.989   8.725
 1869TIP3   OH216429   2.972   1.809   8.854
 1869TIP3    H116430   3.032   1.744   8.811
 1869TIP3    H216431   2.946   1.761   8.934
 1870TIP3   OH216432   2.714   1.148   9.097
 1870TIP3    H116433   2.759   1.076   9.049
 1870TIP3    H216434   2.790   1.198   9.135
 1871TIP3   OH216435   3.571   0.319   9.133
 1871TIP3    H116436   3.581   0.387   9.202
 1871TIP3    H216437   3.636   0.354   9.068
 1872TIP3   OH216438   3.075   0.657   9.134
 1872TIP3    H116439   3.083   0.560   9.137
 1872TIP3    H216440   3.052   0.667   9.040
 1873TIP3   OH216441   2.376   0.452   8.813
 1873TIP3    H116442   2.387   0.525   8.749
 1873TIP3    H216443   2.326   0.389   8.758
 1874TIP3   OH216444   3.097   0.464   8.675
 1874TIP3    H116445   3.150   0.455   8.758
 1874TIP3    H216446   3.156   0.526   8.630
 1875TIP3   OH216447   2.046   0.734   8.910
 1875TIP3    H116448   2.106   0.675   8.960
 1875TIP3    H216449   2.037   0.679   8.829
 1876TIP3   OH216450   2.470   0.863   8.838
 1876TIP3    H116451   2.556   0.824   8.867
 1876TIP3    H216452   2.439   0.792   8.778
 1877TIP3   OH216453   3.618   0.500   9.363
 1877TIP3    H116454   3.569   0.579   9.331
 1877TIP3    H216455   3.579   0.490   9.452
 1878TIP3   OH216456   2.268   0.369   9.223
 1878TIP3    H116457   2.213   0.423   9.165
 1878TIP3    H216458   2.212   0.365   9.303
 1879TIP3   OH216459   2.943   1.315   8.572
 1879TIP3    H116460   2.925   1.315   8.476
 1879TIP3    H216461   2.935   1.411   8.591
 1880TIP3   OH216462   2.477   1.116   9.215
 1880TIP3    H116463   2.421   1.196   9.233
 1880TIP3    H216464   2.559   1.156   9.177
 1881TIP3   OH216465   3.283   0.480   8.866
 1881TIP3    H116466   3.311   0.421   8.937
 1881TIP3    H216467   3.354   0.546   8.867
 1882TIP3   OH216468   2.217   0.555   9.012
 1882TIP3    H116469   2.282   0.607   9.066
 1882TIP3    H216470   2.274   0.520   8.940
 1883TIP3   OH216471   2.325   1.315   9.307
 1883TIP3    H116472   2.322   1.412   9.310
 1883TIP3    H216473   2.246   1.290   9.359
 1884TIP3   OH216474   1.917   1.266   8.420
 1884TIP3    H116475   1.915   1.316   8.336
 1884TIP3    H216476   1.926   1.340   8.485
 1885TIP3   OH216477   3.292   1.464   9.035
 1885TIP3    H116478   3.198   1.462   9.066
 1885TIP3    H216479   3.295   1.558   9.011
 1886TIP3   OH216480   3.335   0.392   9.269
 1886TIP3    H116481   3.261   0.407   9.206
 1886TIP3    H216482   3.397   0.341   9.214
 1887TIP3   OH216483   2.647   0.145   8.926
 1887TIP3    H116484   2.672   0.076   8.990
 1887TIP3    H216485   2.575   0.187   8.980
 1888TIP3   OH216486   3.147   1.640   8.750
 1888TIP3    H116487   3.160   1.566   8.688
 1888TIP3    H216488   3.218   1.703   8.723
 1889TIP3   OH216489   3.229   1.417   8.570
 1889TIP3    H116490   3.223   1.344   8.505
 1889TIP3    H216491   3.216   1.371   8.654
 1890TIP3   OH216492   3.412   1.285   9.438
 1890TIP3    H116493   3.406   1.214   9.370
 1890TIP3    H216494   3.435   1.357   9.376
 1891TIP3   OH216495   2.867   0.975   8.411
 1891TIP3    H116496   2.818   1.052   8.378
 1891TIP3    H216497   2.941   0.964   8.348
 1892TIP3   OH216498   2.876   0.794   8.114
 1892TIP3    H116499   2.952   0.848   8.140
 1892TIP3    H216500   2.917   0.710   8.093
 1893TIP3   OH216501   3.617   0.920   9.219
 1893TIP3    H116502   3.551   0.992   9.213
 1893TIP3    H216503   3.686   0.951   9.157
 1894TIP3   OH216504   3.235   0.959   8.507
 1894TIP3    H116505   3.161   0.999   8.557
 1894TIP3    H216506   3.293   0.930   8.582
 1895TIP3   OH216507   3.221   0.827   9.458
 1895TIP3    H116508   3.179   0.914   9.475
 1895TIP3    H216509   3.165   0.794   9.387
 1896TIP3   OH216510   2.353   1.041   8.688
 1896TIP3    H116511   2.352   0.996   8.601
 1896TIP3    H216512   2.410   0.982   8.741
 1897TIP3   OH216513   2.508   1.373   8.981
 1897TIP3    H116514   2.504   1.351   8.887
 1897TIP3    H216515   2.578   1.313   9.012
 1898TIP3   OH216516   2.358   0.920   9.080
 1898TIP3    H116517   2.403   0.918   8.992
 1898TIP3    H216518   2.407   0.991   9.129
 1899TIP3   OH216519   3.054   1.473   9.140
 1899TIP3    H116520   3.023   1.540   9.204
 1899TIP3    H216521   3.042   1.389   9.190
 1900TIP3   OH216522   2.479   1.378   9.529
 1900TIP3    H116523   2.407   1.434   9.567
 1900TIP3    H216524   2.429   1.310   9.481
 1901TIP3   OH216525   3.092   0.902   8.288
 1901TIP3    H116526   3.147   0.923   8.368
 1901TIP3    H216527   3.132   0.966   8.225
 1902TIP3   OH216528   2.178   1.036   9.461
 1902TIP3    H116529   2.146   1.127   9.473
 1902TIP3    H216530   2.098   0.982   9.474
 1903TIP3   OH216531   2.890   1.583   8.606
 1903TIP3    H116532   2.868   1.608   8.696
 1903TIP3    H216533   2.815   1.620   8.555
 1904TIP3   OH216534   2.291   1.577   9.551
 1904TIP3    H116535   2.282   1.589   9.455
 1904TIP3    H216536   2.202   1.558   9.583
 1905TIP3   OH216537   3.507   0.084   8.282
 1905TIP3    H116538   3.411   0.099   8.282
 1905TIP3    H216539   3.544   0.169   8.252
 1906TIP3   OH216540   2.277   0.919   8.449
 1906TIP3    H116541   2.225   1.000   8.444
 1906TIP3    H216542   2.213   0.854   8.418
 1907TIP3   OH216543   3.581   1.507   8.111
 1907TIP3    H116544   3.605   1.601   8.127
 1907TIP3    H216545   3.669   1.465   8.119
 1908TIP3   OH216546   1.895   1.184   9.322
 1908TIP3    H116547   1.868   1.175   9.228
 1908TIP3    H216548   1.930   1.094   9.332
 1909TIP3   OH216549   1.832   1.458   9.002
 1909TIP3    H116550   1.922   1.423   9.015
 1909TIP3    H216551   1.831   1.531   9.066
 1910TIP3   OH216552   3.650   1.544   9.574
 1910TIP3    H116553   3.629   1.450   9.569
 1910TIP3    H216554   3.570   1.580   9.617
 1911TIP3   OH216555   2.707   1.528   9.525
 1911TIP3    H116556   2.688   1.610   9.572
 1911TIP3    H216557   2.618   1.486   9.516
 1912TIP3   OH216558   2.761   1.876   8.466
 1912TIP3    H116559   2.772   1.875   8.369
 1912TIP3    H216560   2.805   1.960   8.491
 1913TIP3   OH216561   2.164   1.704   8.684
 1913TIP3    H116562   2.191   1.666   8.770
 1913TIP3    H216563   2.068   1.690   8.688
 1914TIP3   OH216564   3.115   1.875   8.198
 1914TIP3    H116565   3.107   1.789   8.151
 1914TIP3    H216566   3.117   1.844   8.291
 1915TIP3   OH216567   3.094   1.792   8.462
 1915TIP3    H116568   2.997   1.792   8.455
 1915TIP3    H216569   3.109   1.705   8.504
 1916TIP3   OH216570   2.097   1.301   9.459
 1916TIP3    H116571   2.055   1.340   9.537
 1916TIP3    H216572   2.018   1.270   9.411
 1917TIP3   OH216573   2.405   0.216   9.045
 1917TIP3    H116574   2.333   0.182   8.989
 1917TIP3    H216575   2.361   0.295   9.081
 1918TIP3   OH216576   2.902   0.173   9.364
 1918TIP3    H116577   2.834   0.148   9.431
 1918TIP3    H216578   2.855   0.146   9.285
 1919TIP3   OH216579   3.086   0.543   9.510
 1919TIP3    H116580   3.051   0.516   9.599
 1919TIP3    H216581   3.134   0.623   9.535
 1920TIP3   OH216582   3.186   1.053   8.090
 1920TIP3    H116583   3.213   0.988   8.023
 1920TIP3    H216584   3.272   1.095   8.107
 1921TIP3   OH216585   2.821   0.371   8.143
 1921TIP3    H116586   2.748   0.375   8.206
 1921TIP3    H216587   2.774   0.363   8.059
 1922TIP3   OH216588   2.378   0.675   9.186
 1922TIP3    H116589   2.359   0.696   9.279
 1922TIP3    H216590   2.368   0.766   9.149
 1923TIP3   OH216591   2.374   0.672   8.657
 1923TIP3    H116592   2.281   0.669   8.631
 1923TIP3    H216593   2.418   0.664   8.569
 1924TIP3   OH216594   2.956   0.760   8.559
 1924TIP3    H116595   2.919   0.841   8.517
 1924TIP3    H216596   3.011   0.726   8.487
 1925TIP3   OH216597   3.042   0.714   8.856
 1925TIP3    H116598   3.027   0.799   8.810
 1925TIP3    H216599   3.024   0.653   8.783
 1926TIP3   OH216600   2.101   0.664   9.312
 1926TIP3    H116601   2.159   0.697   9.384
 1926TIP3    H216602   2.080   0.574   9.343
 1927TIP3   OH216603   2.480   0.495   8.108
 1927TIP3    H116604   2.413   0.441   8.152
 1927TIP3    H216605   2.435   0.581   8.098
 1928TIP3   OH216606   1.792   0.389   8.751
 1928TIP3    H116607   1.833   0.413   8.836
 1928TIP3    H216608   1.854   0.430   8.688
 1929TIP3   OH216609   1.928   0.448   8.332
 1929TIP3    H116610   1.981   0.491   8.262
 1929TIP3    H216611   1.866   0.523   8.352
 1930TIP3   OH216612   2.921   0.842   9.251
 1930TIP3    H116613   2.989   0.774   9.233
 1930TIP3    H216614   2.864   0.794   9.316
 1931TIP3   OH216615   2.683   0.426   8.733
 1931TIP3    H116616   2.591   0.398   8.755
 1931TIP3    H216617   2.728   0.420   8.819
 1932TIP3   OH216618   2.090   0.574   8.688
 1932TIP3    H116619   2.030   0.607   8.617
 1932TIP3    H216620   2.129   0.493   8.649
 1933TIP3   OH216621   2.503   0.630   8.429
 1933TIP3    H116622   2.600   0.638   8.427
 1933TIP3    H216623   2.474   0.675   8.348
 1934TIP3   OH216624   3.113   0.378   9.098
 1934TIP3    H116625   3.034   0.379   9.156
 1934TIP3    H216626   3.081   0.323   9.025
 1935TIP3   OH216627   2.311   0.751   8.164
 1935TIP3    H116628   2.298   0.772   8.070
 1935TIP3    H216629   2.404   0.777   8.176
 1936TIP3   OH216630   2.691   0.731   8.930
 1936TIP3    H116631   2.775   0.693   8.900
 1936TIP3    H216632   2.639   0.650   8.942
 1937TIP3   OH216633   2.227   0.329   8.626
 1937TIP3    H116634   2.179   0.259   8.674
 1937TIP3    H216635   2.289   0.277   8.574
 1938TIP3   OH216636   2.594   0.529   9.167
 1938TIP3    H116637   2.509   0.579   9.177
 1938TIP3    H216638   2.660   0.598   9.185
 1939TIP3   OH216639   2.694   1.204   8.393
 1939TIP3    H116640   2.620   1.152   8.356
 1939TIP3    H216641   2.654   1.226   8.482
 1940TIP3   OH216642   3.415   1.121   9.220
 1940TIP3    H116643   3.471   1.179   9.163
 1940TIP3    H216644   3.347   1.092   9.155
 1941TIP3   OH216645   3.079   0.475   8.133
 1941TIP3    H116646   2.998   0.420   8.140
 1941TIP3    H216647   3.075   0.532   8.212
 1942TIP3   OH216648   2.756   1.204   9.500
 1942TIP3    H116649   2.708   1.179   9.581
 1942TIP3    H216650   2.738   1.299   9.495
 1943TIP3   OH216651   3.119   0.641   8.365
 1943TIP3    H116652   3.207   0.656   8.404
 1943TIP3    H216653   3.113   0.723   8.311
 1944TIP3   OH216654   2.210   1.112   8.926
 1944TIP3    H116655   2.248   1.090   8.838
 1944TIP3    H216656   2.237   1.036   8.981
 1945TIP3   OH216657   2.921   1.325   8.292
 1945TIP3    H116658   2.875   1.413   8.292
 1945TIP3    H216659   2.845   1.265   8.307
 1946TIP3   OH216660   1.903   0.900   9.468
 1946TIP3    H116661   1.852   0.853   9.536
 1946TIP3    H216662   1.870   0.859   9.386
 1947TIP3   OH216663   2.547   0.888   9.647
 1947TIP3    H116664   2.586   0.906   9.560
 1947TIP3    H216665   2.619   0.905   9.709
 1948TIP3   OH216666   3.080   1.420   9.465
 1948TIP3    H116667   2.996   1.466   9.460
 1948TIP3    H216668   3.108   1.445   9.557
 1949TIP3   OH216669   3.571   0.675   8.373
 1949TIP3    H116670   3.529   0.662   8.284
 1949TIP3    H216671   3.606   0.766   8.363
 1950TIP3   OH216672   3.628   1.213   9.586
 1950TIP3    H116673   3.537   1.230   9.553
 1950TIP3    H216674   3.683   1.219   9.505
 1951TIP3   OH216675   3.489   1.503   8.363
 1951TIP3    H116676   3.401   1.472   8.387
 1951TIP3    H216677   3.493   1.486   8.266
 1952TIP3   OH216678   3.207   1.029   9.029
 1952TIP3    H116679   3.118   0.990   9.018
 1952TIP3    H216680   3.261   0.964   8.979
 1953TIP3   OH216681   2.405   1.457   8.706
 1953TIP3    H116682   2.425   1.550   8.680
 1953TIP3    H216683   2.327   1.440   8.652
 1954TIP3   OH216684   2.041   0.935   8.197
 1954TIP3    H116685   2.072   1.028   8.207
 1954TIP3    H216686   1.945   0.950   8.193
 1955TIP3   OH216687   2.545   1.243   8.620
 1955TIP3    H116688   2.504   1.328   8.642
 1955TIP3    H216689   2.505   1.184   8.685
 1956TIP3   OH216690   2.613   1.663   9.266
 1956TIP3    H116691   2.674   1.737   9.257
 1956TIP3    H216692   2.667   1.611   9.330
 1957TIP3   OH216693   2.433   1.723   8.606
 1957TIP3    H116694   2.336   1.731   8.615
 1957TIP3    H216695   2.462   1.811   8.635
 1958TIP3   OH216696   2.927   1.229   9.242
 1958TIP3    H116697   2.894   1.214   9.333
 1958TIP3    H216698   2.968   1.143   9.222
 1959TIP3   OH216699   3.206   1.390   8.143
 1959TIP3    H116700   3.183   1.342   8.224
 1959TIP3    H216701   3.130   1.451   8.136
 1960TIP3   OH216702   3.298   1.682   9.404
 1960TIP3    H116703   3.204   1.660   9.420
 1960TIP3    H216704   3.288   1.772   9.365
 1961TIP3   OH216705   3.664   1.777   8.172
 1961TIP3    H116706   3.723   1.841   8.128
 1961TIP3    H216707   3.591   1.836   8.201
 1962TIP3   OH216708   2.087   0.381   9.445
 1962TIP3    H116709   2.007   0.421   9.483
 1962TIP3    H216710   2.060   0.287   9.449
 1963TIP3   OH216711   3.294   1.206   8.372
 1963TIP3    H116712   3.278   1.113   8.396
 1963TIP3    H216713   3.392   1.210   8.369
 1964TIP3   OH216714   2.018   1.589   9.249
 1964TIP3    H116715   2.100   1.540   9.241
 1964TIP3    H216716   2.035   1.649   9.325
 1965TIP3   OH216717   2.458   1.413   8.240
 1965TIP3    H116718   2.543   1.379   8.272
 1965TIP3    H216719   2.466   1.507   8.272
 1966TIP3   OH216720   2.117   1.175   8.271
 1966TIP3    H116721   2.049   1.189   8.341
 1966TIP3    H216722   2.159   1.263   8.269
 1967TIP3   OH216723   2.922   0.441   9.295
 1967TIP3    H116724   2.986   0.482   9.357
 1967TIP3    H216725   2.911   0.353   9.338
 1968TIP3   OH216726   3.028   0.328   8.461
 1968TIP3    H116727   3.001   0.414   8.423
 1968TIP3    H216728   3.064   0.357   8.548
 1969TIP3   OH216729   2.791   1.571   8.301
 1969TIP3    H116730   2.722   1.638   8.282
 1969TIP3    H216731   2.863   1.598   8.240
 1970TIP3   OH216732   2.770   0.547   8.498
 1970TIP3    H116733   2.837   0.604   8.542
 1970TIP3    H216734   2.725   0.508   8.576
 1971TIP3   OH216735   2.818   0.666   9.417
 1971TIP3    H116736   2.796   0.644   9.508
 1971TIP3    H216737   2.835   0.578   9.378
 1972TIP3   OH216738   2.812   0.220   8.605
 1972TIP3    H116739   2.781   0.299   8.655
 1972TIP3    H216740   2.892   0.256   8.561
 1973TIP3   OH216741   2.487   1.651   8.349
 1973TIP3    H116742   2.526   1.729   8.304
 1973TIP3    H216743   2.459   1.694   8.433
 1974TIP3   OH216744   2.301   0.335   8.313
 1974TIP3    H116745   2.315   0.409   8.374
 1974TIP3    H216746   2.384   0.286   8.327
 1975TIP3   OH216747   3.390   0.463   9.537
 1975TIP3    H116748   3.297   0.480   9.560
 1975TIP3    H216749   3.378   0.430   9.445
 1976TIP3   OH216750   3.290   0.802   8.917
 1976TIP3    H116751   3.215   0.739   8.920
 1976TIP3    H216752   3.356   0.758   8.975
 1977TIP3   OH216753   2.195   1.419   8.157
 1977TIP3    H116754   2.281   1.439   8.201
 1977TIP3    H216755   2.226   1.357   8.089
 1978TIP3   OH216756   1.991   0.672   8.182
 1978TIP3    H116757   2.056   0.744   8.202
 1978TIP3    H216758   1.911   0.727   8.185
 1979TIP3   OH216759   3.350   1.745   9.058
 1979TIP3    H116760   3.361   1.802   8.980
 1979TIP3    H216761   3.443   1.721   9.077
 1980TIP3   OH216762   2.154   0.147   8.906
 1980TIP3    H116763   2.110   0.111   8.825
 1980TIP3    H216764   2.151   0.069   8.964
 1981TIP3   OH216765   1.955   1.506   8.557
 1981TIP3    H116766   1.888   1.573   8.575
 1981TIP3    H216767   2.017   1.561   8.507
 1982TIP3   OH216768   1.923   1.785   9.682
 1982TIP3    H116769   1.971   1.717   9.732
 1982TIP3    H216770   1.833   1.760   9.710
 1983TIP3   OH216771   2.673   1.653   8.060
 1983TIP3    H116772   2.624   1.589   8.006
 1983TIP3    H216773   2.767   1.631   8.042
 1984TIP3   OH216774   3.069   1.496   9.722
 1984TIP3    H116775   2.995   1.438   9.745
 1984TIP3    H216776   3.082   1.547   9.803
 1985TIP3   OH216777   3.321   1.689   8.103
 1985TIP3    H116778   3.329   1.600   8.139
 1985TIP3    H216779   3.246   1.676   8.042
 1986TIP3   OH216780   2.383   1.133   8.052
 1986TIP3    H116781   2.367   1.066   8.120
 1986TIP3    H216782   2.459   1.179   8.091
 1987TIP3   OH216783   3.175   1.158   9.476
 1987TIP3    H116784   3.258   1.208   9.483
 1987TIP3    H216785   3.113   1.234   9.473
 1988TIP3   OH216786   2.505   1.036   8.276
 1988TIP3    H116787   2.438   0.995   8.333
 1988TIP3    H216788   2.538   0.958   8.224
 1989TIP3   OH216789   2.346   0.801   9.421
 1989TIP3    H116790   2.306   0.890   9.405
 1989TIP3    H216791   2.433   0.830   9.452
 1990TIP3   OH216792   2.577   0.804   8.160
 1990TIP3    H116793   2.574   0.825   8.063
 1990TIP3    H216794   2.669   0.772   8.166
 1991TIP3   OH216795   3.444   1.081   8.121
 1991TIP3    H116796   3.523   1.057   8.071
 1991TIP3    H216797   3.452   1.177   8.122
 1992TIP3   OH216798   2.440   0.540   9.548
 1992TIP3    H116799   2.472   0.459   9.504
 1992TIP3    H216800   2.398   0.591   9.477
 1993TIP3   OH216801   2.531   0.356   9.369
 1993TIP3    H116802   2.576   0.418   9.306
 1993TIP3    H216803   2.449   0.336   9.319
 1994TIP3   OH216804   2.619   0.950   9.391
 1994TIP3    H116805   2.704   0.994   9.412
 1994TIP3    H216806   2.575   1.017   9.333
 1995TIP3   OH216807   2.322   0.609   9.784
 1995TIP3    H116808   2.244   0.564   9.748
 1995TIP3    H216809   2.384   0.597   9.709
 1996TIP3   OH216810   2.609   0.126   9.258
 1996TIP3    H116811   2.600   0.191   9.330
 1996TIP3    H216812   2.530   0.147   9.205
 1997TIP3   OH216813   2.088   0.407   9.794
 1997TIP3    H116814   2.088   0.339   9.725
 1997TIP3    H216815   2.120   0.358   9.872
 1998TIP3   OH216816   2.722   5.252   9.519
 1998TIP3    H116817   2.699   5.260   9.613
 1998TIP3    H216818   2.634   5.243   9.480
 1999TIP3   OH216819   2.588   0.255   9.766
 1999TIP3    H116820   2.599   0.170   9.815
 1999TIP3    H216821   2.517   0.298   9.819
 2000TIP3   OH216822   2.565   1.884   8.237
 2000TIP3    H116823   2.661   1.895   8.221
 2000TIP3    H216824   2.534   1.896   8.147
 2001TIP3   OH216825   1.918   1.392   8.132
 2001TIP3    H116826   2.006   1.435   8.139
 2001TIP3    H216827   1.940   1.318   8.074
 2002TIP3   OH216828   1.811   1.877   8.627
 2002TIP3    H116829   1.741   1.823   8.585
 2002TIP3    H216830   1.835   1.824   8.706
 2003TIP3   OH216831   1.876   1.715   8.825
 2003TIP3    H116832   1.820   1.640   8.851
 2003TIP3    H216833   1.907   1.746   8.913
 2004TIP3   OH216834   3.618   1.715   9.084
 2004TIP3    H116835   3.670   1.738   9.163
 2004TIP3    H216836   3.648   1.776   9.015
 2005TIP3   OH216837   3.611   1.744   9.382
 2005TIP3    H116838   3.555   1.683   9.328
 2005TIP3    H216839   3.649   1.678   9.445
 2006TIP3   OH216840   3.561   1.178   8.382
 2006TIP3    H116841   3.642   1.229   8.404
 2006TIP3    H216842   3.548   1.122   8.460
 2007TIP3   OH216843   3.615   0.974   8.593
 2007TIP3    H116844   3.535   0.923   8.622
 2007TIP3    H216845   3.632   1.027   8.672
 2008TIP3   OH216846   3.601   1.237   9.069
 2008TIP3    H116847   3.666   1.168   9.045
 2008TIP3    H216848   3.650   1.318   9.043
 2009TIP3   OH216849   3.458   1.509   9.266
 2009TIP3    H116850   3.382   1.559   9.303
 2009TIP3    H216851   3.420   1.475   9.182
 2010TIP3   OH216852   3.634   0.929   8.256
 2010TIP3    H116853   3.545   0.940   8.216
 2010TIP3    H216854   3.638   1.014   8.304
 2011TIP3   OH216855   3.429   0.667   8.145
 2011TIP3    H116856   3.440   0.698   8.052
 2011TIP3    H216857   3.404   0.574   8.130
 2012TIP3   OH216858   3.398   0.853   8.683
 2012TIP3    H116859   3.374   0.763   8.652
 2012TIP3    H216860   3.369   0.845   8.777
 2013TIP3   OH216861   1.903   1.031   9.061
 2013TIP3    H116862   1.910   1.002   8.966
 2013TIP3    H216863   1.989   0.995   9.093
 2014TIP3   OH216864   3.395   0.396   8.115
 2014TIP3    H116865   3.479   0.349   8.132
 2014TIP3    H216866   3.333   0.351   8.174
 2015TIP3   OH216867   3.366   0.603   8.545
 2015TIP3    H116868   3.374   0.505   8.550
 2015TIP3    H216869   3.439   0.625   8.483
 2016TIP3   OH216870   3.457   0.654   9.055
 2016TIP3    H116871   3.555   0.664   9.066
 2016TIP3    H216872   3.428   0.656   9.149
 2017TIP3   OH216873   3.442   0.713   9.315
 2017TIP3    H116874   3.373   0.737   9.379
 2017TIP3    H216875   3.482   0.799   9.291
 2018TIP3   OH216876   1.868   0.522   9.636
 2018TIP3    H116877   1.939   0.499   9.700
 2018TIP3    H216878   1.794   0.469   9.672
 2019TIP3   OH216879   3.383   0.318   8.562
 2019TIP3    H116880   3.439   0.277   8.631
 2019TIP3    H216881   3.359   0.242   8.507
 2020TIP3   OH216882   1.966   0.385   8.969
 2020TIP3    H116883   1.997   0.294   8.970
 2020TIP3    H216884   2.051   0.432   8.972
 2021TIP3   OH216885   1.830   0.638   9.083
 2021TIP3    H116886   1.883   0.591   9.017
 2021TIP3    H216887   1.897   0.691   9.129
 2022TIP3   OH216888   3.652   0.301   8.161
 2022TIP3    H116889   3.714   0.279   8.089
 2022TIP3    H216890   3.706   0.363   8.215
 2023TIP3   OH216891   1.884   0.275   8.519
 2023TIP3    H116892   1.790   0.256   8.509
 2023TIP3    H216893   1.896   0.341   8.447
 2024TIP3   OH216894   3.324   1.813   8.664
 2024TIP3    H116895   3.398   1.796   8.601
 2024TIP3    H216896   3.364   1.867   8.733
 2025TIP3   OH216897   1.860   0.165   9.297
 2025TIP3    H116898   1.798   0.145   9.368
 2025TIP3    H216899   1.810   0.226   9.240
 2026TIP3   OH216900   2.337   1.606   9.286
 2026TIP3    H116901   2.333   1.705   9.279
 2026TIP3    H216902   2.434   1.596   9.277
 2027TIP3   OH216903   3.552   0.101   9.451
 2027TIP3    H116904   3.471   0.153   9.443
 2027TIP3    H216905   3.516   0.011   9.463
 2028TIP3   OH216906   2.077   1.878   9.352
 2028TIP3    H116907   2.001   1.930   9.317
 2028TIP3    H216908   2.085   1.920   9.441
 2029TIP3   OH216909   2.317   1.878   9.239
 2029TIP3    H116910   2.220   1.883   9.260
 2029TIP3    H216911   2.328   1.942   9.166
 2030TIP3   OH216912   2.837   1.853   9.127
 2030TIP3    H116913   2.762   1.881   9.073
 2030TIP3    H216914   2.827   1.910   9.206
 2031TIP3   OH216915   3.015   1.704   9.284
 2031TIP3    H116916   2.951   1.757   9.233
 2031TIP3    H216917   3.092   1.761   9.274
 2032TIP3   OH216918   3.266   1.911   9.266
 2032TIP3    H116919   3.270   2.007   9.247
 2032TIP3    H216920   3.287   1.873   9.179
 2033TIP3   OH216921   2.042   1.770   9.041
 2033TIP3    H116922   2.021   1.725   9.126
 2033TIP3    H216923   2.125   1.723   9.013
 2034TIP3   OH216924   2.255   1.650   8.940
 2034TIP3    H116925   2.247   1.552   8.945
 2034TIP3    H216926   2.351   1.662   8.955
 2035TIP3   OH216927   2.511   1.661   8.999
 2035TIP3    H116928   2.532   1.565   8.996
 2035TIP3    H216929   2.526   1.679   9.094
 2036TIP3   OH216930   2.852   0.331   8.921
 2036TIP3    H116931   2.789   0.257   8.921
 2036TIP3    H216932   2.928   0.288   8.877
 2037TIP3   OH216933   3.327   0.116   8.896
 2037TIP3    H116934   3.399   0.150   8.838
 2037TIP3    H216935   3.250   0.127   8.838
 2038TIP3   OH216936   3.546   0.178   8.739
 2038TIP3    H116937   3.599   0.106   8.700
 2038TIP3    H216938   3.609   0.254   8.744
 2039TIP3   OH216939   2.045   0.125   8.667
 2039TIP3    H116940   1.987   0.189   8.617
 2039TIP3    H216941   2.039   0.046   8.612
 2040TIP3   OH216942   2.011   0.100   8.320
 2040TIP3    H116943   2.022   0.147   8.234
 2040TIP3    H216944   1.977   0.171   8.378
 2041TIP3   OH216945   2.543   0.183   8.663
 2041TIP3    H116946   2.629   0.182   8.617
 2041TIP3    H216947   2.573   0.182   8.756
 2042TIP3   OH216948   3.061   0.153   8.800
 2042TIP3    H116949   3.043   0.165   8.706
 2042TIP3    H216950   3.064   0.056   8.806
 2043TIP3   OH216951   3.248   0.171   8.359
 2043TIP3    H116952   3.182   0.240   8.379
 2043TIP3    H216953   3.234   0.111   8.435
 2044TIP3   OH216954   1.971   1.734   8.400
 2044TIP3    H116955   1.889   1.718   8.347
 2044TIP3    H216956   1.992   1.823   8.366
 2045TIP3   OH216957   2.112   0.297   8.121
 2045TIP3    H116958   2.165   0.231   8.075
 2045TIP3    H216959   2.175   0.321   8.192
 2046TIP3   OH216960   2.657   0.306   8.370
 2046TIP3    H116961   2.728   0.275   8.428
 2046TIP3    H216962   2.662   0.402   8.388
 2047TIP3   OH216963   2.845   1.869   8.195
 2047TIP3    H116964   2.941   1.886   8.187
 2047TIP3    H216965   2.834   1.811   8.118
 2048TIP3   OH216966   3.500   1.761   8.474
 2048TIP3    H116967   3.500   1.675   8.427
 2048TIP3    H216968   3.496   1.825   8.399
 2049TIP3   OH216969   2.019   0.145   9.609
 2049TIP3    H116970   1.995   0.054   9.588
 2049TIP3    H216971   2.099   0.126   9.665
 2050TIP3   OH216972   2.246   0.070   9.744
 2050TIP3    H116973   2.321   0.090   9.803
 2050TIP3    H216974   2.231  -0.024   9.768
 2051TIP3   OH216975   2.088   1.764   8.116
 2051TIP3    H116976   2.064   1.826   8.188
 2051TIP3    H216977   2.165   1.719   8.153
 2052TIP3   OH216978   3.105   0.107   9.735
 2052TIP3    H116979   3.078   0.083   9.826
 2052TIP3    H216980   3.195   0.072   9.736
 2053TIP3   OH216981   3.424   1.671   9.647
 2053TIP3    H116982   3.381   1.651   9.562
 2053TIP3    H216983   3.446   1.763   9.630
 2054TIP3   OH216984   4.874   1.064   8.622
 2054TIP3    H116985   4.905   1.157   8.626
 2054TIP3    H216986   4.802   1.076   8.557
 2055TIP3   OH216987   4.792   0.925   8.991
 2055TIP3    H116988   4.814   0.938   9.086
 2055TIP3    H216989   4.708   0.874   8.997
 2056TIP3   OH216990   3.990   0.907   9.164
 2056TIP3    H116991   3.982   0.848   9.242
 2056TIP3    H216992   4.086   0.923   9.158
 2057TIP3   OH216993   4.108   1.394   8.960
 2057TIP3    H116994   4.076   1.303   8.945
 2057TIP3    H216995   4.202   1.384   8.938
 2058TIP3   OH216996   3.774   0.701   8.558
 2058TIP3    H116997   3.764   0.793   8.586
 2058TIP3    H216998   3.681   0.679   8.539
 2059TIP3   OH216999   3.797   0.962   8.829
 2059TIP3    H117000   3.839   0.875   8.848
 2059TIP3    H217001   3.853   0.997   8.759
 2060TIP3   OH217002   4.897   1.745   8.872
 2060TIP3    H117003   4.827   1.690   8.834
 2060TIP3    H217004   4.883   1.729   8.967
 2061TIP3   OH217005   4.633   1.147   9.109
 2061TIP3    H117006   4.638   1.177   9.018
 2061TIP3    H217007   4.719   1.180   9.143
 2062TIP3   OH217008   4.886   0.615   9.069
 2062TIP3    H117009   4.982   0.604   9.082
 2062TIP3    H217010   4.891   0.704   9.029
 2063TIP3   OH217011   4.260   0.427   8.798
 2063TIP3    H117012   4.271   0.513   8.753
 2063TIP3    H217013   4.197   0.385   8.736
 2064TIP3   OH217014   4.936   0.468   8.647
 2064TIP3    H117015   4.985   0.414   8.712
 2064TIP3    H217016   5.007   0.533   8.625
 2065TIP3   OH217017   3.889   0.715   8.876
 2065TIP3    H117018   3.957   0.690   8.940
 2065TIP3    H217019   3.921   0.663   8.799
 2066TIP3   OH217020   4.373   0.838   8.850
 2066TIP3    H117021   4.448   0.782   8.877
 2066TIP3    H217022   4.316   0.770   8.808
 2067TIP3   OH217023   4.142   0.343   9.205
 2067TIP3    H117024   4.094   0.378   9.127
 2067TIP3    H217025   4.074   0.349   9.275
 2068TIP3   OH217026   4.850   1.345   8.569
 2068TIP3    H117027   4.834   1.339   8.473
 2068TIP3    H217028   4.805   1.430   8.590
 2069TIP3   OH217029   4.370   1.126   9.206
 2069TIP3    H117030   4.324   1.208   9.241
 2069TIP3    H217031   4.452   1.164   9.170
 2070TIP3   OH217032   4.087   0.546   8.992
 2070TIP3    H117033   4.154   0.592   9.048
 2070TIP3    H217034   4.145   0.507   8.924
 2071TIP3   OH217035   4.271   1.353   9.296
 2071TIP3    H117036   4.265   1.448   9.278
 2071TIP3    H217037   4.183   1.338   9.337
 2072TIP3   OH217038   3.809   1.271   8.415
 2072TIP3    H117039   3.803   1.317   8.329
 2072TIP3    H217040   3.822   1.347   8.477
 2073TIP3   OH217041   4.506   0.120   8.878
 2073TIP3    H117042   4.542   0.074   8.956
 2073TIP3    H217043   4.439   0.177   8.924
 2074TIP3   OH217044   5.035   1.641   8.651
 2074TIP3    H117045   5.008   1.549   8.665
 2074TIP3    H217046   5.023   1.680   8.740
 2075TIP3   OH217047   4.731   0.922   8.377
 2075TIP3    H117048   4.671   1.000   8.364
 2075TIP3    H217049   4.814   0.953   8.336
 2076TIP3   OH217050   4.740   0.800   8.093
 2076TIP3    H117051   4.778   0.798   8.182
 2076TIP3    H217052   4.755   0.709   8.063
 2077TIP3   OH217053  -0.047   0.902   8.524
 2077TIP3    H117054  -0.138   0.929   8.507
 2077TIP3    H217055  -0.033   0.938   8.614
 2078TIP3   OH217056   5.023   0.757   9.427
 2078TIP3    H117057   4.972   0.791   9.500
 2078TIP3    H217058   4.970   0.791   9.352
 2079TIP3   OH217059   4.279   1.012   8.667
 2079TIP3    H117060   4.241   0.966   8.590
 2079TIP3    H217061   4.331   0.943   8.713
 2080TIP3   OH217062   4.415   1.403   8.973
 2080TIP3    H117063   4.419   1.373   8.881
 2080TIP3    H217064   4.449   1.326   9.020
 2081TIP3   OH217065   4.245   0.926   9.071
 2081TIP3    H117066   4.281   0.928   8.980
 2081TIP3    H217067   4.298   0.996   9.115
 2082TIP3   OH217068   4.922   1.499   9.144
 2082TIP3    H117069   4.916   1.558   9.222
 2082TIP3    H217070   4.907   1.410   9.182
 2083TIP3   OH217071   4.975   0.968   8.239
 2083TIP3    H117072   5.069   0.988   8.257
 2083TIP3    H217073   4.950   1.047   8.187
 2084TIP3   OH217074   4.090   0.979   9.432
 2084TIP3    H117075   4.101   1.055   9.491
 2084TIP3    H217076   3.993   0.970   9.437
 2085TIP3   OH217077   4.698   1.576   8.608
 2085TIP3    H117078   4.638   1.647   8.636
 2085TIP3    H217079   4.670   1.569   8.514
 2086TIP3   OH217080   4.137   0.923   8.451
 2086TIP3    H117081   4.096   1.011   8.431
 2086TIP3    H217082   4.081   0.862   8.402
 2087TIP3   OH217083   3.761   1.204   9.338
 2087TIP3    H117084   3.719   1.210   9.250
 2087TIP3    H217085   3.824   1.130   9.324
 2088TIP3   OH217086   3.770   1.456   8.993
 2088TIP3    H117087   3.865   1.459   9.008
 2088TIP3    H217088   3.738   1.534   9.041
 2089TIP3   OH217089   4.684   1.539   9.472
 2089TIP3    H117090   4.707   1.614   9.532
 2089TIP3    H217091   4.610   1.501   9.520
 2090TIP3   OH217092   4.708   1.878   8.462
 2090TIP3    H117093   4.696   1.909   8.371
 2090TIP3    H217094   4.701   1.962   8.511
 2091TIP3   OH217095   4.068   1.765   8.668
 2091TIP3    H117096   4.084   1.716   8.752
 2091TIP3    H217097   4.047   1.693   8.604
 2092TIP3   OH217098   5.011   1.731   8.183
 2092TIP3    H117099   5.039   1.639   8.173
 2092TIP3    H217100   4.970   1.730   8.272
 2093TIP3   OH217101   4.945   1.772   8.435
 2093TIP3    H117102   4.855   1.803   8.460
 2093TIP3    H217103   4.974   1.731   8.518
 2094TIP3   OH217104   4.012   1.330   9.410
 2094TIP3    H117105   4.023   1.311   9.505
 2094TIP3    H217106   3.923   1.293   9.395
 2095TIP3   OH217107   4.311   0.198   9.054
 2095TIP3    H117108   4.243   0.192   8.985
 2095TIP3    H217109   4.254   0.223   9.130
 2096TIP3   OH217110   4.717   0.089   9.439
 2096TIP3    H117111   4.657   0.131   9.507
 2096TIP3    H217112   4.659   0.101   9.360
 2097TIP3   OH217113   5.064   0.482   9.451
 2097TIP3    H117114   5.069   0.497   9.547
 2097TIP3    H217115   5.035   0.570   9.421
 2098TIP3   OH217116   4.710   0.383   8.143
 2098TIP3    H117117   4.631   0.393   8.199
 2098TIP3    H217118   4.667   0.363   8.059
 2099TIP3   OH217119   4.276   0.663   9.149
 2099TIP3    H117120   4.210   0.662   9.221
 2099TIP3    H217121   4.267   0.756   9.120
 2100TIP3   OH217122   4.258   0.660   8.676
 2100TIP3    H117123   4.172   0.665   8.630
 2100TIP3    H217124   4.316   0.642   8.599
 2101TIP3   OH217125   4.843   0.773   8.570
 2101TIP3    H117126   4.793   0.820   8.498
 2101TIP3    H217127   4.905   0.722   8.515
 2102TIP3   OH217128   4.706   0.777   9.644
 2102TIP3    H117129   4.658   0.710   9.697
 2102TIP3    H217130   4.756   0.827   9.711
 2103TIP3   OH217131   4.974   0.731   8.830
 2103TIP3    H117132   5.052   0.745   8.775
 2103TIP3    H217133   4.946   0.644   8.799
 2104TIP3   OH217134   4.017   0.661   9.299
 2104TIP3    H117135   4.049   0.704   9.380
 2104TIP3    H217136   3.993   0.571   9.329
 2105TIP3   OH217137   4.390   0.496   8.115
 2105TIP3    H117138   4.334   0.426   8.155
 2105TIP3    H217139   4.335   0.576   8.131
 2106TIP3   OH217140   3.700   0.402   8.753
 2106TIP3    H117141   3.745   0.418   8.838
 2106TIP3    H217142   3.749   0.459   8.693
 2107TIP3   OH217143   3.787   0.474   8.326
 2107TIP3    H117144   3.844   0.519   8.260
 2107TIP3    H217145   3.739   0.550   8.362
 2108TIP3   OH217146   4.818   0.805   9.246
 2108TIP3    H117147   4.872   0.735   9.205
 2108TIP3    H217148   4.757   0.752   9.302
 2109TIP3   OH217149   4.551   0.424   8.766
 2109TIP3    H117150   4.457   0.403   8.781
 2109TIP3    H217151   4.583   0.424   8.859
 2110TIP3   OH217152   3.979   0.573   8.665
 2110TIP3    H117153   3.916   0.604   8.596
 2110TIP3    H217154   4.015   0.491   8.628
 2111TIP3   OH217155   4.360   0.593   8.426
 2111TIP3    H117156   4.456   0.608   8.420
 2111TIP3    H217157   4.326   0.658   8.362
 2112TIP3   OH217158   5.043   0.296   9.079
 2112TIP3    H117159   4.950   0.285   9.100
 2112TIP3    H217160   5.041   0.389   9.052
 2113TIP3   OH217161   4.217   0.724   8.145
 2113TIP3    H117162   4.196   0.733   8.050
 2113TIP3    H217163   4.307   0.761   8.151
 2114TIP3   OH217164   4.020   1.193   9.644
 2114TIP3    H117165   4.101   1.237   9.677
 2114TIP3    H217166   3.963   1.207   9.721
 2115TIP3   OH217167   4.654   0.698   8.927
 2115TIP3    H117168   4.729   0.637   8.944
 2115TIP3    H217169   4.595   0.659   8.995
 2116TIP3   OH217170   4.108   0.338   8.602
 2116TIP3    H117171   4.054   0.264   8.638
 2116TIP3    H217172   4.169   0.290   8.543
 2117TIP3   OH217173   4.536   0.567   9.130
 2117TIP3    H117174   4.447   0.603   9.153
 2117TIP3    H217175   4.583   0.581   9.215
 2118TIP3   OH217176   4.585   1.149   8.399
 2118TIP3    H117177   4.500   1.119   8.358
 2118TIP3    H217178   4.547   1.199   8.476
 2119TIP3   OH217179   5.002   0.454   8.208
 2119TIP3    H117180   4.915   0.456   8.165
 2119TIP3    H217181   5.002   0.540   8.253
 2120TIP3   OH217182   4.691   1.192   9.444
 2120TIP3    H117183   4.615   1.131   9.430
 2120TIP3    H217184   4.651   1.280   9.436
 2121TIP3   OH217185   5.016   0.704   8.324
 2121TIP3    H117186   5.110   0.694   8.296
 2121TIP3    H217187   5.000   0.799   8.304
 2122TIP3   OH217188   4.097   1.118   8.919
 2122TIP3    H117189   4.148   1.096   8.839
 2122TIP3    H217190   4.109   1.042   8.978
 2123TIP3   OH217191   4.768   1.310   8.302
 2123TIP3    H117192   4.726   1.396   8.322
 2123TIP3    H217193   4.694   1.248   8.320
 2124TIP3   OH217194   3.821   0.931   9.431
 2124TIP3    H117195   3.778   0.906   9.514
 2124TIP3    H217196   3.753   0.902   9.368
 2125TIP3   OH217197   4.464   0.892   9.629
 2125TIP3    H117198   4.472   0.945   9.547
 2125TIP3    H217199   4.542   0.834   9.622
 2126TIP3   OH217200   4.937   1.445   9.500
 2126TIP3    H117201   4.848   1.441   9.459
 2126TIP3    H217202   4.966   1.532   9.465
 2127TIP3   OH217203   4.996   1.059   9.091
 2127TIP3    H117204   4.968   1.023   9.006
 2127TIP3    H217205   5.089   1.081   9.069
 2128TIP3   OH217206   4.305   1.441   8.704
 2128TIP3    H117207   4.340   1.531   8.688
 2128TIP3    H217208   4.227   1.442   8.642
 2129TIP3   OH217209   3.957   0.947   8.163
 2129TIP3    H117210   3.990   1.032   8.200
 2129TIP3    H217211   3.871   0.971   8.128
 2130TIP3   OH217212   4.455   1.225   8.628
 2130TIP3    H117213   4.403   1.304   8.654
 2130TIP3    H217214   4.398   1.152   8.658
 2131TIP3   OH217215   4.536   1.673   9.275
 2131TIP3    H117216   4.589   1.750   9.253
 2131TIP3    H217217   4.597   1.627   9.337
 2132TIP3   OH217218   4.371   1.736   8.611
 2132TIP3    H117219   4.274   1.732   8.615
 2132TIP3    H217220   4.389   1.833   8.612
 2133TIP3   OH217221   4.858   1.248   9.215
 2133TIP3    H117222   4.817   1.214   9.297
 2133TIP3    H217223   4.901   1.169   9.174
 2134TIP3   OH217224   4.987   1.281   8.153
 2134TIP3    H117225   5.043   1.309   8.228
 2134TIP3    H217226   4.898   1.298   8.192
 2135TIP3   OH217227   3.926   0.385   9.370
 2135TIP3    H117228   3.846   0.438   9.380
 2135TIP3    H217229   3.886   0.295   9.364
 2136TIP3   OH217230   3.915   1.614   9.229
 2136TIP3    H117231   3.997   1.562   9.236
 2136TIP3    H217232   3.894   1.628   9.322
 2137TIP3   OH217233   4.355   1.427   8.240
 2137TIP3    H117234   4.316   1.405   8.327
 2137TIP3    H217235   4.358   1.525   8.251
 2138TIP3   OH217236   4.026   1.156   8.313
 2138TIP3    H117237   3.953   1.189   8.370
 2138TIP3    H217238   4.064   1.241   8.285
 2139TIP3   OH217239   4.765   0.389   9.426
 2139TIP3    H117240   4.859   0.365   9.419
 2139TIP3    H217241   4.722   0.302   9.430
 2140TIP3   OH217242   4.881   0.318   8.420
 2140TIP3    H117243   4.851   0.348   8.333
 2140TIP3    H217244   4.898   0.404   8.464
 2141TIP3   OH217245   4.660   1.555   8.342
 2141TIP3    H117246   4.573   1.599   8.334
 2141TIP3    H217247   4.708   1.591   8.263
 2142TIP3   OH217248   4.648   0.565   8.530
 2142TIP3    H117249   4.730   0.612   8.555
 2142TIP3    H217250   4.616   0.535   8.618
 2143TIP3   OH217251   4.649   0.626   9.388
 2143TIP3    H117252   4.640   0.649   9.481
 2143TIP3    H217253   4.691   0.537   9.395
 2144TIP3   OH217254   4.703   0.251   8.620
 2144TIP3    H117255   4.651   0.299   8.688
 2144TIP3    H217256   4.766   0.323   8.599
 2145TIP3   OH217257   4.389   1.676   8.316
 2145TIP3    H117258   4.384   1.766   8.279
 2145TIP3    H217259   4.369   1.693   8.410
 2146TIP3   OH217260   4.236   0.339   8.291
 2146TIP3    H117261   4.231   0.414   8.353
 2146TIP3    H217262   4.327   0.309   8.309
 2147TIP3   OH217263   4.090   1.410   8.185
 2147TIP3    H117264   4.109   1.456   8.270
 2147TIP3    H217265   4.179   1.397   8.148
 2148TIP3   OH217266   3.887   0.692   8.172
 2148TIP3    H117267   3.941   0.775   8.173
 2148TIP3    H217268   3.799   0.735   8.175
 2149TIP3   OH217269   4.023   0.162   8.963
 2149TIP3    H117270   3.995   0.143   8.872
 2149TIP3    H217271   4.021   0.071   9.001
 2150TIP3   OH217272   3.823   1.498   8.562
 2150TIP3    H117273   3.788   1.580   8.525
 2150TIP3    H217274   3.919   1.512   8.542
 2151TIP3   OH217275   3.839   1.760   9.653
 2151TIP3    H117276   3.852   1.751   9.748
 2151TIP3    H217277   3.808   1.670   9.628
 2152TIP3   OH217278   4.693   1.638   8.070
 2152TIP3    H117279   4.603   1.604   8.072
 2152TIP3    H217280   4.707   1.642   7.972
 2153TIP3   OH217281   4.927   1.512   9.755
 2153TIP3    H117282   4.916   1.480   9.663
 2153TIP3    H217283   5.020   1.492   9.768
 2154TIP3   OH217284   3.831   1.194   9.852
 2154TIP3    H117285   3.814   1.114   9.800
 2154TIP3    H217286   3.757   1.251   9.827
 2155TIP3   OH217287   4.281   1.167   8.056
 2155TIP3    H117288   4.275   1.125   8.144
 2155TIP3    H217289   4.370   1.204   8.063
 2156TIP3   OH217290   5.043   1.188   9.552
 2156TIP3    H117291   5.098   1.209   9.475
 2156TIP3    H217292   4.976   1.257   9.541
 2157TIP3   OH217293   3.860   0.868   9.765
 2157TIP3    H117294   3.920   0.840   9.695
 2157TIP3    H217295   3.922   0.867   9.840
 2158TIP3   OH217296   4.379   1.028   8.277
 2158TIP3    H117297   4.306   0.994   8.332
 2158TIP3    H217298   4.411   0.947   8.232
 2159TIP3   OH217299   4.251   0.780   9.396
 2159TIP3    H117300   4.190   0.856   9.410
 2159TIP3    H217301   4.335   0.826   9.409
 2160TIP3   OH217302   4.476   0.805   8.151
 2160TIP3    H117303   4.454   0.814   8.055
 2160TIP3    H217304   4.573   0.801   8.139
 2161TIP3   OH217305   4.323   0.561   9.541
 2161TIP3    H117306   4.344   0.484   9.483
 2161TIP3    H217307   4.299   0.630   9.475
 2162TIP3   OH217308   4.380   0.376   9.339
 2162TIP3    H117309   4.433   0.365   9.259
 2162TIP3    H217310   4.290   0.354   9.307
 2163TIP3   OH217311   4.511   0.976   9.384
 2163TIP3    H117312   4.573   0.922   9.333
 2163TIP3    H217313   4.458   1.023   9.315
 2164TIP3   OH217314   4.080   0.665   9.707
 2164TIP3    H117315   4.073   0.577   9.669
 2164TIP3    H217316   4.173   0.684   9.686
 2165TIP3   OH217317   4.500   0.123   9.287
 2165TIP3    H117318   4.458   0.190   9.343
 2165TIP3    H217319   4.444   0.047   9.307
 2166TIP3   OH217320   4.535   0.580   9.725
 2166TIP3    H117321   4.475   0.629   9.784
 2166TIP3    H217322   4.467   0.538   9.666
 2167TIP3   OH217323   4.069   0.389   9.814
 2167TIP3    H117324   4.152   0.348   9.783
 2167TIP3    H217325   4.104   0.460   9.870
 2168TIP3   OH217326   4.440   1.942   8.215
 2168TIP3    H117327   4.534   1.941   8.194
 2168TIP3    H217328   4.403   1.957   8.127
 2169TIP3   OH217329   3.825   1.371   8.143
 2169TIP3    H117330   3.922   1.384   8.157
 2169TIP3    H217331   3.830   1.311   8.067
 2170TIP3   OH217332   3.677   1.890   8.623
 2170TIP3    H117333   3.620   1.827   8.573
 2170TIP3    H217334   3.721   1.829   8.686
 2171TIP3   OH217335   3.782   1.726   8.809
 2171TIP3    H117336   3.766   1.630   8.818
 2171TIP3    H217337   3.845   1.745   8.881
 2172TIP3   OH217338   3.801   1.056   9.073
 2172TIP3    H117339   3.798   1.021   8.981
 2172TIP3    H217340   3.885   1.015   9.104
 2173TIP3   OH217341   3.739   0.591   9.667
 2173TIP3    H117342   3.810   0.563   9.726
 2173TIP3    H217343   3.663   0.542   9.698
 2174TIP3   OH217344   3.854   0.378   8.989
 2174TIP3    H117345   3.906   0.297   9.004
 2174TIP3    H217346   3.925   0.443   8.986
 2175TIP3   OH217347   3.719   0.666   9.078
 2175TIP3    H117348   3.767   0.658   8.993
 2175TIP3    H217349   3.790   0.692   9.139
 2176TIP3   OH217350   3.745   0.271   8.492
 2176TIP3    H117351   3.651   0.261   8.479
 2176TIP3    H217352   3.761   0.352   8.439
 2177TIP3   OH217353   3.769   0.173   9.297
 2177TIP3    H117354   3.707   0.114   9.345
 2177TIP3    H217355   3.708   0.226   9.243
 2178TIP3   OH217356   4.272   1.628   9.266
 2178TIP3    H117357   4.257   1.724   9.278
 2178TIP3    H217358   4.370   1.627   9.276
 2179TIP3   OH217359   4.696   1.764   9.624
 2179TIP3    H117360   4.703   1.747   9.722
 2179TIP3    H217361   4.748   1.848   9.618
 2180TIP3   OH217362   4.875   1.961   9.598
 2180TIP3    H117363   4.929   1.903   9.542
 2180TIP3    H217364   4.929   1.968   9.680
 2181TIP3   OH217365   3.994   1.923   9.326
 2181TIP3    H117366   3.912   1.977   9.315
 2181TIP3    H217367   3.985   1.892   9.417
 2182TIP3   OH217368   4.242   1.897   9.227
 2182TIP3    H117369   4.156   1.925   9.268
 2182TIP3    H217370   4.222   1.907   9.133
 2183TIP3   OH217371   4.751   1.875   9.126
 2183TIP3    H117372   4.665   1.883   9.080
 2183TIP3    H217373   4.740   1.941   9.198
 2184TIP3   OH217374   4.897   1.712   9.304
 2184TIP3    H117375   4.845   1.759   9.235
 2184TIP3    H217376   4.969   1.775   9.316
 2185TIP3   OH217377   3.935   1.768   9.022
 2185TIP3    H117378   3.911   1.717   9.103
 2185TIP3    H217379   4.023   1.728   9.001
 2186TIP3   OH217380   4.147   1.659   8.915
 2186TIP3    H117381   4.138   1.564   8.939
 2186TIP3    H217382   4.244   1.671   8.923
 2187TIP3   OH217383   4.404   1.682   8.964
 2187TIP3    H117384   4.419   1.587   8.986
 2187TIP3    H217385   4.429   1.726   9.046
 2188TIP3   OH217386   4.755   0.275   8.916
 2188TIP3    H117387   4.681   0.217   8.891
 2188TIP3    H217388   4.831   0.219   8.901
 2189TIP3   OH217389   3.946   0.134   8.656
 2189TIP3    H117390   3.883   0.179   8.595
 2189TIP3    H217391   3.937   0.043   8.625
 2190TIP3   OH217392   3.878   0.116   8.289
 2190TIP3    H117393   3.869   0.145   8.197
 2190TIP3    H217394   3.821   0.179   8.338
 2191TIP3   OH217395   4.412   0.176   8.621
 2191TIP3    H117396   4.489   0.216   8.580
 2191TIP3    H217397   4.452   0.140   8.704
 2192TIP3   OH217398   4.965   0.127   8.788
 2192TIP3    H117399   5.039   0.190   8.810
 2192TIP3    H217400   4.979   0.056   8.852
 2193TIP3   OH217401   3.848   1.725   8.387
 2193TIP3    H117402   3.776   1.692   8.331
 2193TIP3    H217403   3.843   1.820   8.366
 2194TIP3   OH217404   3.987   0.316   8.099
 2194TIP3    H117405   4.058   0.249   8.094
 2194TIP3    H217406   4.026   0.382   8.156
 2195TIP3   OH217407   4.545   0.326   8.371
 2195TIP3    H117408   4.610   0.271   8.418
 2195TIP3    H217409   4.560   0.412   8.414
 2196TIP3   OH217410   4.750   1.895   8.175
 2196TIP3    H117411   4.846   1.881   8.184
 2196TIP3    H217412   4.730   1.814   8.125
 2197TIP3   OH217413   3.998   1.730   8.141
 2197TIP3    H117414   3.957   1.771   8.220
 2197TIP3    H217415   4.021   1.642   8.176
 2198TIP3   OH217416   4.975   5.250   9.853
 2198TIP3    H117417   4.945   5.160   9.874
 2198TIP3    H217418   4.981   5.245   9.756
 2199TIP3   OH217419   1.127   2.938   8.651
 2199TIP3    H117420   1.119   3.034   8.671
 2199TIP3    H217421   1.052   2.927   8.590
 2200TIP3   OH217422   0.995   2.819   9.006
 2200TIP3    H117423   0.995   2.773   9.092
 2200TIP3    H217424   0.931   2.767   8.954
 2201TIP3   OH217425   0.202   2.765   9.135
 2201TIP3    H117426   0.177   2.683   9.184
 2201TIP3    H217427   0.281   2.794   9.183
 2202TIP3   OH217428   1.294   3.126   8.874
 2202TIP3    H117429   1.275   3.051   8.931
 2202TIP3    H217430   1.326   3.193   8.938
 2203TIP3   OH217431   0.282   3.266   8.991
 2203TIP3    H117432   0.256   3.173   8.980
 2203TIP3    H217433   0.378   3.250   8.989
 2204TIP3   OH217434  -0.040   2.545   8.574
 2204TIP3    H117435  -0.033   2.642   8.561
 2204TIP3    H217436  -0.081   2.524   8.488
 2205TIP3   OH217437  -0.007   2.774   8.807
 2205TIP3    H117438   0.067   2.709   8.795
 2205TIP3    H217439   0.017   2.845   8.744
 2206TIP3   OH217440   1.114   3.699   8.854
 2206TIP3    H117441   1.182   3.632   8.830
 2206TIP3    H217442   1.050   3.638   8.894
 2207TIP3   OH217443   0.818   3.102   9.081
 2207TIP3    H117444   0.847   3.052   9.004
 2207TIP3    H217445   0.906   3.127   9.118
 2208TIP3   OH217446   1.681   2.228   9.096
 2208TIP3    H117447   1.723   2.286   9.162
 2208TIP3    H217448   1.755   2.217   9.034
 2209TIP3   OH217449   1.195   2.531   9.135
 2209TIP3    H117450   1.213   2.435   9.127
 2209TIP3    H217451   1.162   2.550   9.045
 2210TIP3   OH217452   0.469   2.331   8.810
 2210TIP3    H117453   0.483   2.412   8.756
 2210TIP3    H217454   0.421   2.275   8.746
 2211TIP3   OH217455   1.232   2.382   8.680
 2211TIP3    H117456   1.289   2.336   8.747
 2211TIP3    H217457   1.300   2.431   8.630
 2212TIP3   OH217458   0.210   2.577   8.812
 2212TIP3    H117459   0.188   2.525   8.890
 2212TIP3    H217460   0.226   2.510   8.743
 2213TIP3   OH217461   0.586   2.757   8.840
 2213TIP3    H117462   0.670   2.713   8.864
 2213TIP3    H217463   0.548   2.684   8.787
 2214TIP3   OH217464   1.728   2.372   9.351
 2214TIP3    H117465   1.674   2.450   9.322
 2214TIP3    H217466   1.722   2.385   9.447
 2215TIP3   OH217467   0.378   2.221   9.214
 2215TIP3    H117468   0.344   2.281   9.144
 2215TIP3    H217469   0.305   2.233   9.277
 2216TIP3   OH217470   1.056   3.191   8.588
 2216TIP3    H117471   1.035   3.198   8.493
 2216TIP3    H217472   1.020   3.276   8.623
 2217TIP3   OH217473   0.632   2.998   9.235
 2217TIP3    H117474   0.567   3.059   9.275
 2217TIP3    H217475   0.688   3.060   9.183
 2218TIP3   OH217476   1.432   2.310   8.832
 2218TIP3    H117477   1.440   2.273   8.921
 2218TIP3    H217478   1.521   2.340   8.813
 2219TIP3   OH217479   0.312   2.404   9.014
 2219TIP3    H117480   0.365   2.476   9.053
 2219TIP3    H217481   0.372   2.377   8.941
 2220TIP3   OH217482   0.409   3.140   9.285
 2220TIP3    H117483   0.402   3.144   9.188
 2220TIP3    H217484   0.372   3.051   9.305
 2221TIP3   OH217485   0.020   3.128   8.445
 2221TIP3    H117486  -0.022   3.157   8.361
 2221TIP3    H217487   0.049   3.211   8.488
 2222TIP3   OH217488   1.407   3.320   9.057
 2222TIP3    H117489   1.315   3.349   9.083
 2222TIP3    H217490   1.435   3.399   9.010
 2223TIP3   OH217491   1.437   2.261   9.231
 2223TIP3    H117492   1.372   2.284   9.162
 2223TIP3    H217493   1.521   2.266   9.180
 2224TIP3   OH217494   0.709   1.957   8.940
 2224TIP3    H117495   0.685   1.868   8.970
 2224TIP3    H217496   0.632   2.010   8.977
 2225TIP3   OH217497   1.264   3.501   8.771
 2225TIP3    H117498   1.268   3.428   8.707
 2225TIP3    H217499   1.335   3.561   8.737
 2226TIP3   OH217500   1.348   3.291   8.577
 2226TIP3    H117501   1.323   3.233   8.503
 2226TIP3    H217502   1.311   3.240   8.652
 2227TIP3   OH217503   1.482   3.147   9.444
 2227TIP3    H117504   1.505   3.091   9.366
 2227TIP3    H217505   1.463   3.233   9.402
 2228TIP3   OH217506   0.967   2.846   8.408
 2228TIP3    H117507   0.913   2.895   8.344
 2228TIP3    H217508   1.043   2.814   8.353
 2229TIP3   OH217509   0.988   2.682   8.126
 2229TIP3    H117510   1.071   2.720   8.160
 2229TIP3    H217511   1.012   2.590   8.107
 2230TIP3   OH217512   1.716   2.812   9.241
 2230TIP3    H117513   1.644   2.876   9.232
 2230TIP3    H217514   1.777   2.844   9.170
 2231TIP3   OH217515   1.336   2.839   8.509
 2231TIP3    H117516   1.264   2.879   8.562
 2231TIP3    H217517   1.400   2.818   8.581
 2232TIP3   OH217518   1.329   2.684   9.442
 2232TIP3    H117519   1.310   2.742   9.520
 2232TIP3    H217520   1.268   2.718   9.374
 2233TIP3   OH217521   0.445   2.927   8.692
 2233TIP3    H117522   0.436   2.873   8.611
 2233TIP3    H217523   0.502   2.871   8.749
 2234TIP3   OH217524   0.603   3.254   8.976
 2234TIP3    H117525   0.621   3.217   8.889
 2234TIP3    H217526   0.675   3.217   9.030
 2235TIP3   OH217527   0.517   2.793   9.094
 2235TIP3    H117528   0.538   2.804   8.998
 2235TIP3    H217529   0.555   2.873   9.135
 2236TIP3   OH217530   1.166   3.377   9.142
 2236TIP3    H117531   1.144   3.448   9.205
 2236TIP3    H217532   1.106   3.305   9.168
 2237TIP3   OH217533   0.607   3.250   9.528
 2237TIP3    H117534   0.634   3.278   9.617
 2237TIP3    H217535   0.685   3.194   9.509
 2238TIP3   OH217536   1.203   2.794   8.287
 2238TIP3    H117537   1.258   2.809   8.369
 2238TIP3    H217538   1.238   2.864   8.228
 2239TIP3   OH217539   0.332   2.890   9.365
 2239TIP3    H117540   0.337   2.933   9.453
 2239TIP3    H217541   0.237   2.864   9.366
 2240TIP3   OH217542   0.974   3.442   8.662
 2240TIP3    H117543   1.025   3.521   8.683
 2240TIP3    H217544   0.929   3.465   8.580
 2241TIP3   OH217545   0.374   3.464   9.602
 2241TIP3    H117546   0.444   3.517   9.644
 2241TIP3    H217547   0.302   3.528   9.587
 2242TIP3   OH217548   1.615   1.955   8.262
 2242TIP3    H117549   1.524   1.987   8.282
 2242TIP3    H217550   1.657   2.033   8.222
 2243TIP3   OH217551   0.368   2.803   8.448
 2243TIP3    H117552   0.331   2.894   8.442
 2243TIP3    H217553   0.303   2.754   8.396
 2244TIP3   OH217554   1.668   3.403   8.135
 2244TIP3    H117555   1.699   3.495   8.139
 2244TIP3    H217556   1.751   3.355   8.115
 2245TIP3   OH217557   0.047   3.125   9.262
 2245TIP3    H117558  -0.026   3.103   9.201
 2245TIP3    H217559   0.065   3.033   9.295
 2246TIP3   OH217560   0.010   3.350   8.971
 2246TIP3    H117561   0.067   3.274   8.949
 2246TIP3    H217562   0.021   3.358   9.067
 2247TIP3   OH217563   1.682   3.439   9.614
 2247TIP3    H117564   1.708   3.346   9.623
 2247TIP3    H217565   1.589   3.435   9.648
 2248TIP3   OH217566   0.934   3.427   9.483
 2248TIP3    H117567   0.946   3.516   9.523
 2248TIP3    H217568   0.865   3.391   9.541
 2249TIP3   OH217569   0.934   3.733   8.432
 2249TIP3    H117570   0.930   3.764   8.339
 2249TIP3    H217571   0.917   3.816   8.481
 2250TIP3   OH217572   0.304   3.598   8.692
 2250TIP3    H117573   0.335   3.569   8.781
 2250TIP3    H217574   0.207   3.584   8.701
 2251TIP3   OH217575   1.194   3.662   8.193
 2251TIP3    H117576   1.275   3.631   8.146
 2251TIP3    H217577   1.220   3.652   8.287
 2252TIP3   OH217578   1.207   3.686   8.475
 2252TIP3    H117579   1.109   3.686   8.470
 2252TIP3    H217580   1.226   3.607   8.527
 2253TIP3   OH217581   1.487   2.565   9.634
 2253TIP3    H117582   1.439   2.614   9.565
 2253TIP3    H217583   1.502   2.478   9.590
 2254TIP3   OH217584   0.199   3.270   9.458
 2254TIP3    H117585   0.216   3.186   9.505
 2254TIP3    H217586   0.133   3.240   9.391
 2255TIP3   OH217587   0.508   2.101   9.020
 2255TIP3    H117588   0.424   2.068   8.980
 2255TIP3    H217589   0.475   2.167   9.084
 2256TIP3   OH217590   0.988   2.011   9.374
 2256TIP3    H117591   1.028   1.966   9.451
 2256TIP3    H217592   0.890   2.008   9.389
 2257TIP3   OH217593   1.204   2.435   9.491
 2257TIP3    H117594   1.210   2.452   9.586
 2257TIP3    H217595   1.221   2.524   9.453
 2258TIP3   OH217596   1.281   2.950   8.086
 2258TIP3    H117597   1.298   2.882   8.020
 2258TIP3    H217598   1.373   2.983   8.099
 2259TIP3   OH217599   0.919   2.295   8.176
 2259TIP3    H117600   0.860   2.256   8.243
 2259TIP3    H217601   0.876   2.267   8.095
 2260TIP3   OH217602   0.490   2.541   9.160
 2260TIP3    H117603   0.429   2.553   9.235
 2260TIP3    H217604   0.504   2.636   9.135
 2261TIP3   OH217605   0.496   2.551   8.659
 2261TIP3    H117606   0.409   2.589   8.635
 2261TIP3    H217607   0.519   2.519   8.570
 2262TIP3   OH217608   1.075   2.657   8.570
 2262TIP3    H117609   1.025   2.728   8.523
 2262TIP3    H217610   1.123   2.615   8.498
 2263TIP3   OH217611   1.125   2.612   8.856
 2263TIP3    H117612   1.117   2.683   8.789
 2263TIP3    H217613   1.129   2.534   8.797
 2264TIP3   OH217614   0.238   2.567   9.318
 2264TIP3    H117615   0.244   2.594   9.412
 2264TIP3    H217616   0.224   2.470   9.322
 2265TIP3   OH217617   0.600   2.369   8.098
 2265TIP3    H117618   0.565   2.306   8.165
 2265TIP3    H217619   0.568   2.454   8.132
 2266TIP3   OH217620  -0.016   2.239   8.724
 2266TIP3    H117621   0.036   2.235   8.807
 2266TIP3    H217622  -0.022   2.145   8.702
 2267TIP3   OH217623   0.060   2.333   8.286
 2267TIP3    H117624   0.120   2.408   8.264
 2267TIP3    H217625  -0.008   2.343   8.217
 2268TIP3   OH217626   1.036   2.705   9.263
 2268TIP3    H117627   1.106   2.647   9.223
 2268TIP3    H217628   0.996   2.643   9.329
 2269TIP3   OH217629   0.770   2.315   8.770
 2269TIP3    H117630   0.674   2.317   8.789
 2269TIP3    H217631   0.806   2.280   8.853
 2270TIP3   OH217632   0.233   2.476   8.559
 2270TIP3    H117633   0.136   2.474   8.549
 2270TIP3    H217634   0.256   2.381   8.569
 2271TIP3   OH217635   0.529   2.514   8.387
 2271TIP3    H117636   0.603   2.575   8.401
 2271TIP3    H217637   0.473   2.567   8.326
 2272TIP3   OH217638   1.208   2.261   9.072
 2272TIP3    H117639   1.133   2.258   9.134
 2272TIP3    H217640   1.177   2.205   8.999
 2273TIP3   OH217641   0.430   2.643   8.154
 2273TIP3    H117642   0.403   2.636   8.062
 2273TIP3    H217643   0.526   2.657   8.145
 2274TIP3   OH217644   1.492   3.823   9.689
 2274TIP3    H117645   1.550   3.830   9.610
 2274TIP3    H217646   1.558   3.820   9.759
 2275TIP3   OH217647   0.288   3.028   9.595
 2275TIP3    H117648   0.340   2.988   9.665
 2275TIP3    H217649   0.197   2.996   9.621
 2276TIP3   OH217650   0.809   2.609   8.912
 2276TIP3    H117651   0.901   2.578   8.896
 2276TIP3    H217652   0.774   2.535   8.966
 2277TIP3   OH217653   0.323   2.219   8.615
 2277TIP3    H117654   0.280   2.143   8.660
 2277TIP3    H217655   0.377   2.171   8.550
 2278TIP3   OH217656   0.731   2.411   9.163
 2278TIP3    H117657   0.650   2.468   9.164
 2278TIP3    H217658   0.792   2.462   9.218
 2279TIP3   OH217659   0.780   3.099   8.369
 2279TIP3    H117660   0.718   3.026   8.347
 2279TIP3    H217661   0.752   3.116   8.462
 2280TIP3   OH217662   1.527   3.017   9.216
 2280TIP3    H117663   1.579   3.057   9.143
 2280TIP3    H217664   1.450   2.984   9.164
 2281TIP3   OH217665   1.196   2.360   8.138
 2281TIP3    H117666   1.103   2.335   8.155
 2281TIP3    H217667   1.211   2.430   8.206
 2282TIP3   OH217668   0.865   3.129   9.501
 2282TIP3    H117669   0.915   3.050   9.474
 2282TIP3    H217670   0.938   3.188   9.527
 2283TIP3   OH217671   1.236   2.532   8.355
 2283TIP3    H117672   1.324   2.530   8.398
 2283TIP3    H217673   1.238   2.624   8.320
 2284TIP3   OH217674   0.379   3.024   8.956
 2284TIP3    H117675   0.403   3.017   8.861
 2284TIP3    H217676   0.330   2.942   8.968
 2285TIP3   OH217677   1.016   3.219   8.304
 2285TIP3    H117678   0.965   3.301   8.323
 2285TIP3    H217679   0.944   3.153   8.310
 2286TIP3   OH217680   0.061   2.880   9.392
 2286TIP3    H117681   0.067   2.847   9.483
 2286TIP3    H217682  -0.024   2.841   9.366
 2287TIP3   OH217683   0.683   2.748   9.658
 2287TIP3    H117684   0.672   2.753   9.560
 2287TIP3    H217685   0.751   2.816   9.671
 2288TIP3   OH217686   1.202   3.315   9.485
 2288TIP3    H117687   1.124   3.373   9.482
 2288TIP3    H217688   1.259   3.356   9.553
 2289TIP3   OH217689   1.737   2.517   8.345
 2289TIP3    H117690   1.670   2.520   8.273
 2289TIP3    H217691   1.768   2.610   8.340
 2290TIP3   OH217692   1.733   3.112   9.567
 2290TIP3    H117693   1.656   3.152   9.521
 2290TIP3    H217694   1.792   3.092   9.492
 2291TIP3   OH217695   1.656   3.391   8.409
 2291TIP3    H117696   1.584   3.327   8.419
 2291TIP3    H217697   1.680   3.381   8.314
 2292TIP3   OH217698   1.289   2.900   9.060
 2292TIP3    H117699   1.199   2.877   9.030
 2292TIP3    H217700   1.337   2.828   9.014
 2293TIP3   OH217701   0.527   3.345   8.665
 2293TIP3    H117702   0.557   3.437   8.650
 2293TIP3    H217703   0.433   3.352   8.645
 2294TIP3   OH217704   0.083   2.877   8.215
 2294TIP3    H117705   0.146   2.918   8.277
 2294TIP3    H217706   0.046   2.955   8.170
 2295TIP3   OH217707   0.677   3.121   8.618
 2295TIP3    H117708   0.626   3.205   8.631
 2295TIP3    H217709   0.662   3.075   8.701
 2296TIP3   OH217710   0.731   3.533   9.284
 2296TIP3    H117711   0.788   3.611   9.268
 2296TIP3    H217712   0.789   3.482   9.344
 2297TIP3   OH217713   0.582   3.612   8.610
 2297TIP3    H117714   0.486   3.609   8.631
 2297TIP3    H217715   0.599   3.708   8.621
 2298TIP3   OH217716   1.070   3.112   9.183
 2298TIP3    H117717   1.049   3.040   9.245
 2298TIP3    H217718   1.160   3.088   9.156
 2299TIP3   OH217719   1.308   3.253   8.126
 2299TIP3    H117720   1.327   3.206   8.210
 2299TIP3    H217721   1.217   3.278   8.141
 2300TIP3   OH217722   1.381   3.567   9.422
 2300TIP3    H117723   1.284   3.564   9.422
 2300TIP3    H217724   1.390   3.652   9.375
 2301TIP3   OH217725   1.793   3.652   8.197
 2301TIP3    H117726   1.837   3.706   8.129
 2301TIP3    H217727   1.731   3.719   8.235
 2302TIP3   OH217728   0.174   2.312   9.374
 2302TIP3    H117729   0.095   2.364   9.398
 2302TIP3    H217730   0.174   2.246   9.444
 2303TIP3   OH217731   1.375   3.114   8.355
 2303TIP3    H117732   1.350   3.024   8.380
 2303TIP3    H217733   1.472   3.113   8.370
 2304TIP3   OH217734   0.129   3.493   9.256
 2304TIP3    H117735   0.155   3.401   9.267
 2304TIP3    H217736   0.185   3.536   9.322
 2305TIP3   OH217737   0.577   3.291   8.241
 2305TIP3    H117738   0.642   3.239   8.290
 2305TIP3    H217739   0.598   3.382   8.275
 2306TIP3   OH217740   0.247   3.031   8.366
 2306TIP3    H117741   0.159   3.067   8.392
 2306TIP3    H217742   0.282   3.110   8.319
 2307TIP3   OH217743   1.052   2.301   9.304
 2307TIP3    H117744   1.121   2.326   9.368
 2307TIP3    H217745   1.026   2.212   9.336
 2308TIP3   OH217746   1.102   2.279   8.472
 2308TIP3    H117747   1.126   2.327   8.391
 2308TIP3    H217748   1.141   2.338   8.539
 2309TIP3   OH217749   0.861   3.433   8.378
 2309TIP3    H117750   0.773   3.475   8.384
 2309TIP3    H217751   0.882   3.460   8.286
 2310TIP3   OH217752   0.835   2.423   8.528
 2310TIP3    H117753   0.905   2.485   8.555
 2310TIP3    H217754   0.801   2.389   8.614
 2311TIP3   OH217755   0.933   2.518   9.423
 2311TIP3    H117756   0.918   2.481   9.512
 2311TIP3    H217757   0.977   2.443   9.379
 2312TIP3   OH217758   0.914   2.119   8.589
 2312TIP3    H117759   0.877   2.192   8.643
 2312TIP3    H217760   0.996   2.163   8.554
 2313TIP3   OH217761   0.620   3.535   8.352
 2313TIP3    H117762   0.649   3.619   8.308
 2313TIP3    H217763   0.595   3.573   8.440
 2314TIP3   OH217764   0.483   2.225   8.299
 2314TIP3    H117765   0.475   2.300   8.360
 2314TIP3    H217766   0.566   2.183   8.332
 2315TIP3   OH217767   1.498   2.318   9.500
 2315TIP3    H117768   1.403   2.317   9.476
 2315TIP3    H217769   1.538   2.301   9.412
 2316TIP3   OH217770   1.393   2.665   8.919
 2316TIP3    H117771   1.320   2.600   8.922
 2316TIP3    H217772   1.467   2.615   8.959
 2317TIP3   OH217773   0.297   3.260   8.217
 2317TIP3    H117774   0.383   3.295   8.249
 2317TIP3    H217775   0.326   3.230   8.130
 2318TIP3   OH217776   0.112   2.589   8.200
 2318TIP3    H117777   0.152   2.677   8.204
 2318TIP3    H217778   0.079   2.595   8.108
 2319TIP3   OH217779   1.471   3.635   9.053
 2319TIP3    H117780   1.485   3.703   8.984
 2319TIP3    H217781   1.563   3.606   9.066
 2320TIP3   OH217782   0.291   1.993   8.924
 2320TIP3    H117783   0.267   1.958   8.835
 2320TIP3    H217784   0.237   1.932   8.979
 2321TIP3   OH217785   0.098   3.374   8.552
 2321TIP3    H117786   0.059   3.461   8.531
 2321TIP3    H217787   0.186   3.390   8.517
 2322TIP3   OH217788   0.121   3.732   9.721
 2322TIP3    H117789   0.171   3.694   9.794
 2322TIP3    H217790   0.031   3.704   9.748
 2323TIP3   OH217791   0.852   3.454   8.098
 2323TIP3    H117792   0.792   3.401   8.043
 2323TIP3    H217793   0.899   3.505   8.030
 2324TIP3   OH217794   1.421   3.571   8.092
 2324TIP3    H117795   1.426   3.481   8.126
 2324TIP3    H217796   1.405   3.551   7.997
 2325TIP3   OH217797   0.198   3.150   9.846
 2325TIP3    H117798   0.142   3.082   9.886
 2325TIP3    H217799   0.189   3.121   9.754
 2326TIP3   OH217800   0.503   3.022   8.062
 2326TIP3    H117801   0.509   2.969   8.144
 2326TIP3    H217802   0.591   3.064   8.067
 2327TIP3   OH217803   1.240   3.047   9.504
 2327TIP3    H117804   1.338   3.064   9.501
 2327TIP3    H217805   1.213   3.141   9.503
 2328TIP3   OH217806   0.141   2.699   9.645
 2328TIP3    H117807   0.082   2.624   9.667
 2328TIP3    H217808   0.123   2.761   9.719
 2329TIP3   OH217809   0.615   2.909   8.269
 2329TIP3    H117810   0.547   2.871   8.327
 2329TIP3    H217811   0.646   2.830   8.218
 2330TIP3   OH217812   0.479   2.676   9.427
 2330TIP3    H117813   0.411   2.738   9.393
 2330TIP3    H217814   0.560   2.714   9.387
 2331TIP3   OH217815   0.695   2.687   8.151
 2331TIP3    H117816   0.699   2.708   8.054
 2331TIP3    H217817   0.789   2.661   8.164
 2332TIP3   OH217818   1.035   2.924   9.795
 2332TIP3    H117819   1.109   2.985   9.786
 2332TIP3    H217820   1.068   2.850   9.742
 2333TIP3   OH217821   1.552   2.964   8.103
 2333TIP3    H117822   1.618   2.923   8.044
 2333TIP3    H217823   1.584   3.055   8.110
 2334TIP3   OH217824   0.648   2.228   9.348
 2334TIP3    H117825   0.692   2.291   9.288
 2334TIP3    H217826   0.558   2.228   9.311
 2335TIP3   OH217827   0.748   2.813   9.399
 2335TIP3    H117828   0.830   2.780   9.359
 2335TIP3    H217829   0.713   2.877   9.333
 2336TIP3   OH217830   1.288   2.834   9.659
 2336TIP3    H117831   1.269   2.916   9.607
 2336TIP3    H217832   1.385   2.838   9.667
 2337TIP3   OH217833   0.715   1.962   9.376
 2337TIP3    H117834   0.679   2.054   9.374
 2337TIP3    H217835   0.639   1.911   9.343
 2338TIP3   OH217836   0.673   3.786   8.259
 2338TIP3    H117837   0.758   3.828   8.242
 2338TIP3    H217838   0.635   3.796   8.171
 2339TIP3   OH217839   0.022   3.326   8.036
 2339TIP3    H117840   0.086   3.373   8.091
 2339TIP3    H217841   0.045   3.234   8.054
 2340TIP3   OH217842  -0.023   3.841   8.651
 2340TIP3    H117843  -0.049   3.883   8.566
 2340TIP3    H217844  -0.035   3.747   8.634
 2341TIP3   OH217845   0.067   3.577   8.841
 2341TIP3    H117846   0.047   3.485   8.873
 2341TIP3    H217847   0.098   3.618   8.923
 2342TIP3   OH217848   1.745   3.685   9.073
 2342TIP3    H117849   1.756   3.664   9.167
 2342TIP3    H217850   1.791   3.771   9.067
 2343TIP3   OH217851   1.724   3.600   9.355
 2343TIP3    H117852   1.677   3.526   9.311
 2343TIP3    H217853   1.723   3.564   9.445
 2344TIP3   OH217854   1.639   3.082   8.389
 2344TIP3    H117855   1.731   3.116   8.400
 2344TIP3    H217856   1.637   3.009   8.454
 2345TIP3   OH217857   1.714   2.817   8.576
 2345TIP3    H117858   1.632   2.780   8.620
 2345TIP3    H217859   1.745   2.880   8.643
 2346TIP3   OH217860   1.693   3.101   9.032
 2346TIP3    H117861   1.766   3.036   9.026
 2346TIP3    H217862   1.742   3.186   9.026
 2347TIP3   OH217863   1.570   3.396   9.275
 2347TIP3    H117864   1.494   3.447   9.312
 2347TIP3    H217865   1.526   3.351   9.200
 2348TIP3   OH217866   1.746   2.830   8.252
 2348TIP3    H117867   1.652   2.835   8.227
 2348TIP3    H217868   1.761   2.916   8.294
 2349TIP3   OH217869   1.526   2.548   8.142
 2349TIP3    H117870   1.554   2.584   8.054
 2349TIP3    H217871   1.525   2.452   8.122
 2350TIP3   OH217872   1.495   2.734   8.689
 2350TIP3    H117873   1.454   2.653   8.653
 2350TIP3    H217874   1.474   2.724   8.784
 2351TIP3   OH217875   0.085   2.955   8.993
 2351TIP3    H117876   0.049   2.888   8.932
 2351TIP3    H217877   0.121   2.895   9.062
 2352TIP3   OH217878   1.563   2.892   9.602
 2352TIP3    H117879   1.641   2.848   9.640
 2352TIP3    H217880   1.597   2.983   9.593
 2353TIP3   OH217881   1.737   2.671   9.643
 2353TIP3    H117882   1.640   2.657   9.645
 2353TIP3    H217883   1.767   2.589   9.686
 2354TIP3   OH217884   1.519   2.282   8.113
 2354TIP3    H117885   1.600   2.229   8.128
 2354TIP3    H217886   1.451   2.235   8.164
 2355TIP3   OH217887   1.468   2.491   8.490
 2355TIP3    H117888   1.481   2.396   8.511
 2355TIP3    H217889   1.550   2.507   8.440
 2356TIP3   OH217890   1.566   2.514   9.057
 2356TIP3    H117891   1.665   2.525   9.051
 2356TIP3    H217892   1.554   2.541   9.151
 2357TIP3   OH217893   1.560   2.592   9.321
 2357TIP3    H117894   1.472   2.616   9.357
 2357TIP3    H217895   1.602   2.681   9.318
 2358TIP3   OH217896   0.007   2.445   9.694
 2358TIP3    H117897   0.052   2.471   9.777
 2358TIP3    H217898  -0.061   2.385   9.728
 2359TIP3   OH217899   1.523   2.230   8.528
 2359TIP3    H117900   1.578   2.188   8.596
 2359TIP3    H217901   1.483   2.151   8.488
 2360TIP3   OH217902   0.119   2.203   8.941
 2360TIP3    H117903   0.198   2.147   8.936
 2360TIP3    H217904   0.149   2.286   8.981
 2361TIP3   OH217905  -0.044   2.581   9.052
 2361TIP3    H117906  -0.086   2.549   8.971
 2361TIP3    H217907  -0.019   2.671   9.026
 2362TIP3   OH217908   1.677   2.167   9.693
 2362TIP3    H117909   1.635   2.249   9.664
 2362TIP3    H217910   1.666   2.110   9.614
 2363TIP3   OH217911   1.766   2.153   8.149
 2363TIP3    H117912   1.821   2.120   8.075
 2363TIP3    H217913   1.827   2.218   8.190
 2364TIP3   OH217914  -0.062   2.160   8.455
 2364TIP3    H117915  -0.156   2.189   8.459
 2364TIP3    H217916  -0.023   2.236   8.406
 2365TIP3   OH217917   1.427   3.675   8.672
 2365TIP3    H117918   1.488   3.661   8.596
 2365TIP3    H217919   1.477   3.733   8.733
 2366TIP3   OH217920  -0.011   2.033   9.298
 2366TIP3    H117921  -0.039   2.121   9.328
 2366TIP3    H217922  -0.014   2.045   9.202
 2367TIP3   OH217923   0.134   3.426   9.801
 2367TIP3    H117924   0.162   3.395   9.715
 2367TIP3    H217925   0.157   3.348   9.856
 2368TIP3   OH217926   0.456   3.519   9.294
 2368TIP3    H117927   0.442   3.612   9.263
 2368TIP3    H217928   0.555   3.519   9.293
 2369TIP3   OH217929   0.939   3.666   9.617
 2369TIP3    H117930   0.965   3.641   9.707
 2369TIP3    H217931   1.019   3.716   9.590
 2370TIP3   OH217932   1.196   3.783   9.564
 2370TIP3    H117933   1.292   3.775   9.571
 2370TIP3    H217934   1.176   3.828   9.648
 2371TIP3   OH217935   1.642   2.000   9.472
 2371TIP3    H117936   1.562   1.973   9.428
 2371TIP3    H217937   1.674   1.915   9.508
 2372TIP3   OH217938   0.243   3.819   9.361
 2372TIP3    H117939   0.164   3.828   9.305
 2372TIP3    H217940   0.207   3.864   9.441
 2373TIP3   OH217941   0.474   3.778   9.238
 2373TIP3    H117942   0.388   3.796   9.284
 2373TIP3    H217943   0.467   3.837   9.161
 2374TIP3   OH217944   0.892   3.735   9.180
 2374TIP3    H117945   0.914   3.795   9.108
 2374TIP3    H217946   0.907   3.795   9.258
 2375TIP3   OH217947   1.132   3.608   9.277
 2375TIP3    H117948   1.050   3.655   9.255
 2375TIP3    H217949   1.199   3.675   9.254
 2376TIP3   OH217950   1.377   3.798   9.260
 2376TIP3    H117951   1.363   3.891   9.236
 2376TIP3    H217952   1.409   3.758   9.176
 2377TIP3   OH217953   0.210   3.662   9.065
 2377TIP3    H117954   0.172   3.611   9.141
 2377TIP3    H217955   0.283   3.602   9.038
 2378TIP3   OH217956   0.388   3.511   8.938
 2378TIP3    H117957   0.371   3.418   8.964
 2378TIP3    H217958   0.483   3.523   8.958
 2379TIP3   OH217959   0.650   3.557   9.014
 2379TIP3    H117960   0.690   3.468   9.015
 2379TIP3    H217961   0.667   3.586   9.105
 2380TIP3   OH217962   0.908   2.129   8.946
 2380TIP3    H117963   0.830   2.068   8.947
 2380TIP3    H217964   0.963   2.088   8.878
 2381TIP3   OH217965   1.481   1.962   8.894
 2381TIP3    H117966   1.551   2.014   8.846
 2381TIP3    H217967   1.401   2.013   8.872
 2382TIP3   OH217968   1.651   2.058   8.721
 2382TIP3    H117969   1.711   1.995   8.676
 2382TIP3    H217970   1.717   2.126   8.750
 2383TIP3   OH217971   0.235   1.960   8.672
 2383TIP3    H117972   0.148   1.962   8.626
 2383TIP3    H217973   0.269   1.868   8.655
 2384TIP3   OH217974   0.130   2.014   8.312
 2384TIP3    H117975   0.154   2.067   8.233
 2384TIP3    H217976   0.060   2.071   8.349
 2385TIP3   OH217977   0.610   1.993   8.671
 2385TIP3    H117978   0.691   2.028   8.632
 2385TIP3    H217979   0.625   2.003   8.767
 2386TIP3   OH217980   1.186   2.056   8.805
 2386TIP3    H117981   1.170   2.044   8.711
 2386TIP3    H217982   1.160   1.968   8.841
 2387TIP3   OH217983   1.406   2.019   8.393
 2387TIP3    H117984   1.321   2.066   8.399
 2387TIP3    H217985   1.374   1.931   8.425
 2388TIP3   OH217986   0.046   3.615   8.429
 2388TIP3    H117987  -0.048   3.621   8.403
 2388TIP3    H217988   0.080   3.698   8.388
 2389TIP3   OH217989   0.230   2.162   8.106
 2389TIP3    H117990   0.298   2.125   8.051
 2389TIP3    H217991   0.283   2.200   8.179
 2390TIP3   OH217992   0.746   2.191   8.387
 2390TIP3    H117993   0.803   2.146   8.451
 2390TIP3    H217994   0.769   2.284   8.405
 2391TIP3   OH217995   0.971   3.799   8.178
 2391TIP3    H117996   1.055   3.747   8.186
 2391TIP3    H217997   0.954   3.798   8.082
 2392TIP3   OH217998   1.603   3.646   8.480
 2392TIP3    H117999   1.629   3.557   8.446
 2392TIP3    H218000   1.600   3.699   8.397
 2393TIP3   OH218001   0.207   2.102   9.663
 2393TIP3    H118002   0.136   2.048   9.702
 2393TIP3    H218003   0.197   2.182   9.719
 2394TIP3   OH218004   0.426   2.033   9.844
 2394TIP3    H118005   0.362   2.043   9.772
 2394TIP3    H218006   0.380   1.976   9.908
 2395TIP3   OH218007   0.278   3.601   8.182
 2395TIP3    H118008   0.239   3.683   8.216
 2395TIP3    H218009   0.372   3.619   8.174
 2396TIP3   OH218010   3.016   2.942   8.667
 2396TIP3    H118011   3.024   3.032   8.706
 2396TIP3    H218012   2.947   2.962   8.603
 2397TIP3   OH218013   2.893   2.815   8.979
 2397TIP3    H118014   2.882   2.780   9.071
 2397TIP3    H218015   2.810   2.788   8.935
 2398TIP3   OH218016   2.099   2.814   9.187
 2398TIP3    H118017   2.108   2.734   9.243
 2398TIP3    H218018   2.184   2.811   9.137
 2399TIP3   OH218019   3.186   3.143   8.854
 2399TIP3    H118020   3.174   3.073   8.920
 2399TIP3    H218021   3.228   3.212   8.908
 2400TIP3   OH218022   2.228   3.333   8.926
 2400TIP3    H118023   2.197   3.240   8.934
 2400TIP3    H218024   2.324   3.318   8.938
 2401TIP3   OH218025   1.877   2.592   8.568
 2401TIP3    H118026   1.829   2.676   8.578
 2401TIP3    H218027   1.806   2.538   8.530
 2402TIP3   OH218028   1.934   2.824   8.819
 2402TIP3    H118029   1.968   2.732   8.824
 2402TIP3    H218030   1.977   2.860   8.740
 2403TIP3   OH218031   2.966   3.700   8.871
 2403TIP3    H118032   3.031   3.643   8.825
 2403TIP3    H218033   2.934   3.638   8.937
 2404TIP3   OH218034   2.706   3.055   9.142
 2404TIP3    H118035   2.707   3.030   9.049
 2404TIP3    H218036   2.795   3.094   9.150
 2405TIP3   OH218037   3.564   2.187   9.127
 2405TIP3    H118038   3.592   2.270   9.172
 2405TIP3    H218039   3.630   2.184   9.057
 2406TIP3   OH218040   3.083   2.537   9.144
 2406TIP3    H118041   3.098   2.444   9.167
 2406TIP3    H218042   3.062   2.531   9.048
 2407TIP3   OH218043   2.362   2.315   8.803
 2407TIP3    H118044   2.367   2.400   8.757
 2407TIP3    H218045   2.312   2.261   8.738
 2408TIP3   OH218046   3.157   2.361   8.641
 2408TIP3    H118047   3.197   2.317   8.721
 2408TIP3    H218048   3.232   2.416   8.611
 2409TIP3   OH218049   2.027   2.584   8.883
 2409TIP3    H118050   2.085   2.537   8.945
 2409TIP3    H218051   2.040   2.529   8.802
 2410TIP3   OH218052   2.464   2.742   8.835
 2410TIP3    H118053   2.551   2.698   8.840
 2410TIP3    H218054   2.410   2.673   8.791
 2411TIP3   OH218055   3.629   2.382   9.341
 2411TIP3    H118056   3.595   2.471   9.318
 2411TIP3    H218057   3.560   2.357   9.406
 2412TIP3   OH218058   2.262   2.238   9.209
 2412TIP3    H118059   2.225   2.298   9.142
 2412TIP3    H218060   2.190   2.241   9.275
 2413TIP3   OH218061   2.932   3.185   8.601
 2413TIP3    H118062   2.856   3.180   8.542
 2413TIP3    H218063   2.900   3.254   8.663
 2414TIP3   OH218064   2.452   2.991   9.234
 2414TIP3    H118065   2.398   3.064   9.271
 2414TIP3    H218066   2.523   3.041   9.189
 2415TIP3   OH218067   3.306   2.308   8.856
 2415TIP3    H118068   3.265   2.275   8.937
 2415TIP3    H218069   3.400   2.292   8.873
 2416TIP3   OH218070   2.216   2.423   9.007
 2416TIP3    H118071   2.270   2.499   9.041
 2416TIP3    H218072   2.279   2.384   8.941
 2417TIP3   OH218073   2.325   3.216   9.332
 2417TIP3    H118074   2.302   3.307   9.307
 2417TIP3    H218075   2.243   3.187   9.378
 2418TIP3   OH218076   1.901   3.136   8.389
 2418TIP3    H118077   1.903   3.186   8.303
 2418TIP3    H218078   1.920   3.208   8.453
 2419TIP3   OH218079   3.288   3.367   9.051
 2419TIP3    H118080   3.198   3.364   9.088
 2419TIP3    H218081   3.284   3.459   9.022
 2420TIP3   OH218082   3.306   2.198   9.255
 2420TIP3    H118083   3.245   2.243   9.193
 2420TIP3    H218084   3.391   2.201   9.206
 2421TIP3   OH218085   2.595   1.966   8.961
 2421TIP3    H118086   2.573   1.872   8.963
 2421TIP3    H218087   2.507   2.005   8.983
 2422TIP3   OH218088   3.150   3.518   8.773
 2422TIP3    H118089   3.153   3.446   8.708
 2422TIP3    H218090   3.214   3.579   8.730
 2423TIP3   OH218091   3.244   3.312   8.597
 2423TIP3    H118092   3.230   3.251   8.522
 2423TIP3    H218093   3.210   3.260   8.672
 2424TIP3   OH218094   3.402   3.173   9.437
 2424TIP3    H118095   3.415   3.100   9.372
 2424TIP3    H218096   3.424   3.250   9.380
 2425TIP3   OH218097   2.846   2.828   8.372
 2425TIP3    H118098   2.789   2.903   8.346
 2425TIP3    H218099   2.934   2.854   8.332
 2426TIP3   OH218100   2.904   2.684   8.129
 2426TIP3    H118101   2.981   2.744   8.132
 2426TIP3    H218102   2.912   2.645   8.040
 2427TIP3   OH218103   3.629   2.801   9.247
 2427TIP3    H118104   3.580   2.881   9.271
 2427TIP3    H218105   3.675   2.836   9.167
 2428TIP3   OH218106   3.243   2.821   8.543
 2428TIP3    H118107   3.189   2.881   8.597
 2428TIP3    H218108   3.310   2.789   8.608
 2429TIP3   OH218109   3.221   2.713   9.443
 2429TIP3    H118110   3.158   2.759   9.500
 2429TIP3    H218111   3.171   2.705   9.361
 2430TIP3   OH218112   2.389   2.931   8.670
 2430TIP3    H118113   2.350   2.888   8.591
 2430TIP3    H218114   2.418   2.855   8.724
 2431TIP3   OH218115   2.489   3.256   8.972
 2431TIP3    H118116   2.515   3.241   8.880
 2431TIP3    H218117   2.559   3.213   9.022
 2432TIP3   OH218118   2.330   2.822   9.056
 2432TIP3    H118119   2.391   2.819   8.979
 2432TIP3    H218120   2.376   2.879   9.122
 2433TIP3   OH218121   3.046   3.379   9.157
 2433TIP3    H118122   2.982   3.423   9.212
 2433TIP3    H218123   3.017   3.285   9.163
 2434TIP3   OH218124   3.104   2.834   8.325
 2434TIP3    H118125   3.167   2.822   8.400
 2434TIP3    H218126   3.158   2.877   8.254
 2435TIP3   OH218127   2.227   2.831   9.442
 2435TIP3    H118128   2.189   2.876   9.518
 2435TIP3    H218129   2.170   2.859   9.370
 2436TIP3   OH218130   2.814   3.410   8.690
 2436TIP3    H118131   2.836   3.500   8.717
 2436TIP3    H218132   2.792   3.423   8.597
 2437TIP3   OH218133   3.476   1.955   8.287
 2437TIP3    H118134   3.384   1.960   8.255
 2437TIP3    H218135   3.519   2.031   8.243
 2438TIP3   OH218136   2.252   2.802   8.462
 2438TIP3    H118137   2.192   2.878   8.447
 2438TIP3    H218138   2.192   2.727   8.460
 2439TIP3   OH218139   3.567   3.392   8.113
 2439TIP3    H118140   3.599   3.484   8.135
 2439TIP3    H218141   3.654   3.346   8.104
 2440TIP3   OH218142   1.874   3.086   9.343
 2440TIP3    H118143   1.825   3.086   9.259
 2440TIP3    H218144   1.898   2.992   9.350
 2441TIP3   OH218145   1.847   3.330   9.014
 2441TIP3    H118146   1.937   3.295   9.009
 2441TIP3    H218147   1.860   3.401   9.078
 2442TIP3   OH218148   3.608   3.437   9.595
 2442TIP3    H118149   3.662   3.356   9.601
 2442TIP3    H218150   3.523   3.402   9.625
 2443TIP3   OH218151   2.796   3.727   8.457
 2443TIP3    H118152   2.781   3.757   8.365
 2443TIP3    H218153   2.805   3.813   8.503
 2444TIP3   OH218154   2.168   3.593   8.672
 2444TIP3    H118155   2.203   3.601   8.764
 2444TIP3    H218156   2.083   3.549   8.686
 2445TIP3   OH218157   3.070   3.649   8.166
 2445TIP3    H118158   3.155   3.609   8.140
 2445TIP3    H218159   3.090   3.677   8.257
 2446TIP3   OH218160   3.074   3.694   8.439
 2446TIP3    H118161   2.977   3.701   8.450
 2446TIP3    H218162   3.092   3.605   8.473
 2447TIP3   OH218163   2.092   3.142   9.483
 2447TIP3    H118164   2.050   3.113   9.567
 2447TIP3    H218165   2.018   3.125   9.421
 2448TIP3   OH218166   2.357   2.063   9.031
 2448TIP3    H118167   2.275   2.093   8.988
 2448TIP3    H218168   2.350   2.117   9.114
 2449TIP3   OH218169   2.810   1.953   9.407
 2449TIP3    H118170   2.811   1.987   9.498
 2449TIP3    H218171   2.727   1.992   9.373
 2450TIP3   OH218172   3.138   2.451   9.447
 2450TIP3    H118173   3.116   2.482   9.537
 2450TIP3    H218174   3.197   2.523   9.418
 2451TIP3   OH218175   3.209   2.911   8.100
 2451TIP3    H118176   3.244   2.844   8.040
 2451TIP3    H218177   3.287   2.970   8.109
 2452TIP3   OH218178   2.820   2.328   8.128
 2452TIP3    H118179   2.776   2.291   8.207
 2452TIP3    H218180   2.764   2.288   8.060
 2453TIP3   OH218181   2.372   2.579   9.159
 2453TIP3    H118182   2.303   2.565   9.228
 2453TIP3    H218183   2.358   2.675   9.142
 2454TIP3   OH218184   2.327   2.557   8.691
 2454TIP3    H118185   2.239   2.516   8.676
 2454TIP3    H218186   2.358   2.568   8.599
 2455TIP3   OH218187   2.946   2.676   8.577
 2455TIP3    H118188   2.909   2.761   8.545
 2455TIP3    H218189   3.039   2.704   8.591
 2456TIP3   OH218190   3.044   2.596   8.873
 2456TIP3    H118191   3.007   2.680   8.838
 2456TIP3    H218192   3.047   2.542   8.792
 2457TIP3   OH218193   2.155   2.552   9.314
 2457TIP3    H118194   2.182   2.593   9.399
 2457TIP3    H218195   2.110   2.471   9.346
 2458TIP3   OH218196   2.483   2.381   8.104
 2458TIP3    H118197   2.417   2.329   8.153
 2458TIP3    H218198   2.435   2.464   8.085
 2459TIP3   OH218199   1.813   2.257   8.765
 2459TIP3    H118200   1.890   2.275   8.821
 2459TIP3    H218201   1.848   2.273   8.676
 2460TIP3   OH218202   1.936   2.338   8.283
 2460TIP3    H118203   1.997   2.397   8.235
 2460TIP3    H218204   1.868   2.406   8.306
 2461TIP3   OH218205   2.900   2.710   9.229
 2461TIP3    H118206   2.976   2.650   9.208
 2461TIP3    H218207   2.864   2.664   9.308
 2462TIP3   OH218208   2.690   2.302   8.733
 2462TIP3    H118209   2.596   2.295   8.756
 2462TIP3    H218210   2.731   2.263   8.814
 2463TIP3   OH218211   2.073   2.429   8.662
 2463TIP3    H118212   2.020   2.481   8.597
 2463TIP3    H218213   2.111   2.354   8.612
 2464TIP3   OH218214   2.394   2.508   8.403
 2464TIP3    H118215   2.488   2.528   8.392
 2464TIP3    H218216   2.357   2.552   8.324
 2465TIP3   OH218217   3.101   2.262   9.083
 2465TIP3    H118218   3.030   2.272   9.150
 2465TIP3    H218219   3.054   2.208   9.016
 2466TIP3   OH218220   2.306   2.639   8.151
 2466TIP3    H118221   2.295   2.662   8.057
 2466TIP3    H218222   2.401   2.660   8.161
 2467TIP3   OH218223   2.707   2.604   8.867
 2467TIP3    H118224   2.800   2.590   8.890
 2467TIP3    H218225   2.667   2.524   8.903
 2468TIP3   OH218226   2.225   2.192   8.612
 2468TIP3    H118227   2.171   2.124   8.657
 2468TIP3    H218228   2.286   2.134   8.562
 2469TIP3   OH218229   2.578   2.414   9.207
 2469TIP3    H118230   2.500   2.471   9.184
 2469TIP3    H218231   2.651   2.465   9.171
 2470TIP3   OH218232   2.706   3.072   8.385
 2470TIP3    H118233   2.633   3.022   8.342
 2470TIP3    H218234   2.654   3.111   8.460
 2471TIP3   OH218235   3.428   2.993   9.240
 2471TIP3    H118236   3.468   3.035   9.161
 2471TIP3    H218237   3.343   2.964   9.202
 2472TIP3   OH218238   3.075   2.320   8.211
 2472TIP3    H118239   2.985   2.322   8.171
 2472TIP3    H218240   3.095   2.414   8.229
 2473TIP3   OH218241   3.126   2.554   8.336
 2473TIP3    H118242   3.200   2.535   8.398
 2473TIP3    H218243   3.170   2.627   8.290
 2474TIP3   OH218244   2.178   3.013   8.903
 2474TIP3    H118245   2.244   3.014   8.832
 2474TIP3    H218246   2.213   2.946   8.963
 2475TIP3   OH218247   2.938   3.150   8.239
 2475TIP3    H118248   2.927   3.241   8.267
 2475TIP3    H218249   2.861   3.111   8.284
 2476TIP3   OH218250   1.883   2.830   9.457
 2476TIP3    H118251   1.844   2.783   9.534
 2476TIP3    H218252   1.818   2.804   9.389
 2477TIP3   OH218253   3.059   3.293   9.538
 2477TIP3    H118254   3.054   3.363   9.470
 2477TIP3    H218255   3.136   3.318   9.590
 2478TIP3   OH218256   3.626   2.535   8.310
 2478TIP3    H118257   3.537   2.532   8.269
 2478TIP3    H218258   3.651   2.628   8.292
 2479TIP3   OH218259   3.644   3.163   9.575
 2479TIP3    H118260   3.563   3.178   9.521
 2479TIP3    H218261   3.707   3.137   9.505
 2480TIP3   OH218262   3.518   3.380   8.380
 2480TIP3    H118263   3.432   3.341   8.401
 2480TIP3    H218264   3.529   3.363   8.284
 2481TIP3   OH218265   3.179   2.914   9.074
 2481TIP3    H118266   3.090   2.890   9.047
 2481TIP3    H218267   3.228   2.839   9.034
 2482TIP3   OH218268   2.404   3.330   8.703
 2482TIP3    H118269   2.432   3.421   8.678
 2482TIP3    H218270   2.308   3.342   8.707
 2483TIP3   OH218271   2.042   2.873   8.064
 2483TIP3    H118272   2.087   2.918   8.138
 2483TIP3    H218273   1.957   2.851   8.103
 2484TIP3   OH218274   2.568   3.140   8.606
 2484TIP3    H118275   2.511   3.212   8.637
 2484TIP3    H218276   2.528   3.062   8.650
 2485TIP3   OH218277   2.603   3.551   9.326
 2485TIP3    H118278   2.671   3.604   9.279
 2485TIP3    H218279   2.658   3.511   9.395
 2486TIP3   OH218280   2.439   3.592   8.606
 2486TIP3    H118281   2.342   3.600   8.618
 2486TIP3    H218282   2.470   3.674   8.650
 2487TIP3   OH218283   2.977   3.126   9.194
 2487TIP3    H118284   3.000   3.089   9.280
 2487TIP3    H218285   3.029   3.068   9.136
 2488TIP3   OH218286   3.206   3.220   8.095
 2488TIP3    H118287   3.233   3.211   8.189
 2488TIP3    H218288   3.110   3.217   8.107
 2489TIP3   OH218289   3.271   3.571   9.480
 2489TIP3    H118290   3.175   3.569   9.459
 2489TIP3    H218291   3.294   3.647   9.423
 2490TIP3   OH218292   3.668   3.640   8.185
 2490TIP3    H118293   3.704   3.685   8.107
 2490TIP3    H218294   3.617   3.716   8.226
 2491TIP3   OH218295   2.018   2.310   9.389
 2491TIP3    H118296   1.927   2.344   9.380
 2491TIP3    H218297   2.007   2.236   9.451
 2492TIP3   OH218298   3.276   3.135   8.354
 2492TIP3    H118299   3.237   3.048   8.345
 2492TIP3    H218300   3.371   3.113   8.370
 2493TIP3   OH218301   2.023   3.507   9.247
 2493TIP3    H118302   2.094   3.443   9.260
 2493TIP3    H218303   2.057   3.583   9.298
 2494TIP3   OH218304   2.458   3.283   8.225
 2494TIP3    H118305   2.534   3.245   8.271
 2494TIP3    H218306   2.462   3.375   8.262
 2495TIP3   OH218307   2.117   3.027   8.285
 2495TIP3    H118308   2.045   3.057   8.344
 2495TIP3    H218309   2.150   3.114   8.251
 2496TIP3   OH218310   2.946   2.299   9.316
 2496TIP3    H118311   3.027   2.324   9.364
 2496TIP3    H218312   2.909   2.227   9.369
 2497TIP3   OH218313   2.987   2.262   8.461
 2497TIP3    H118314   3.031   2.280   8.376
 2497TIP3    H218315   3.056   2.294   8.523
 2498TIP3   OH218316   2.726   3.400   8.409
 2498TIP3    H118317   2.644   3.453   8.401
 2498TIP3    H218318   2.773   3.428   8.329
 2499TIP3   OH218319   2.751   2.475   8.505
 2499TIP3    H118320   2.797   2.534   8.568
 2499TIP3    H218321   2.729   2.400   8.565
 2500TIP3   OH218322   2.840   2.536   9.431
 2500TIP3    H118323   2.784   2.486   9.491
 2500TIP3    H218324   2.881   2.461   9.384
 2501TIP3   OH218325   2.809   2.109   8.585
 2501TIP3    H118326   2.757   2.171   8.641
 2501TIP3    H218327   2.885   2.167   8.558
 2502TIP3   OH218328   2.484   3.525   8.344
 2502TIP3    H118329   2.514   3.609   8.301
 2502TIP3    H218330   2.451   3.560   8.430
 2503TIP3   OH218331   2.340   2.230   8.297
 2503TIP3    H118332   2.350   2.308   8.356
 2503TIP3    H218333   2.422   2.181   8.318
 2504TIP3   OH218334   3.427   2.303   9.517
 2504TIP3    H118335   3.345   2.347   9.544
 2504TIP3    H218336   3.392   2.249   9.445
 2505TIP3   OH218337   3.296   2.685   8.941
 2505TIP3    H118338   3.213   2.634   8.951
 2505TIP3    H218339   3.361   2.620   8.975
 2506TIP3   OH218340   2.186   3.277   8.179
 2506TIP3    H118341   2.202   3.352   8.238
 2506TIP3    H218342   2.279   3.261   8.152
 2507TIP3   OH218343   2.047   2.557   8.160
 2507TIP3    H118344   2.139   2.590   8.164
 2507TIP3    H218345   1.995   2.636   8.147
 2508TIP3   OH218346   3.346   3.648   9.083
 2508TIP3    H118347   3.353   3.708   9.005
 2508TIP3    H218348   3.439   3.622   9.092
 2509TIP3   OH218349   2.084   2.025   8.990
 2509TIP3    H118350   2.085   2.009   8.894
 2509TIP3    H218351   2.075   1.933   9.022
 2510TIP3   OH218352   1.934   3.371   8.526
 2510TIP3    H118353   1.869   3.430   8.567
 2510TIP3    H218354   1.981   3.439   8.474
 2511TIP3   OH218355   1.913   3.691   9.679
 2511TIP3    H118356   1.902   3.667   9.772
 2511TIP3    H218357   1.861   3.619   9.638
 2512TIP3   OH218358   2.742   3.463   8.105
 2512TIP3    H118359   2.675   3.410   8.060
 2512TIP3    H218360   2.784   3.504   8.026
 2513TIP3   OH218361   3.324   3.581   8.083
 2513TIP3    H118362   3.374   3.501   8.105
 2513TIP3    H218363   3.287   3.555   7.996
 2514TIP3   OH218364   2.002   3.107   9.787
 2514TIP3    H118365   2.006   3.010   9.800
 2514TIP3    H218366   1.907   3.126   9.799
 2515TIP3   OH218367   2.398   2.986   8.036
 2515TIP3    H118368   2.413   2.929   8.112
 2515TIP3    H218369   2.450   3.064   8.062
 2516TIP3   OH218370   3.160   3.048   9.508
 2516TIP3    H118371   3.250   3.086   9.494
 2516TIP3    H218372   3.108   3.131   9.513
 2517TIP3   OH218373   2.008   2.835   9.779
 2517TIP3    H118374   2.010   2.772   9.705
 2517TIP3    H218375   1.944   2.793   9.837
 2518TIP3   OH218376   2.514   2.928   8.267
 2518TIP3    H118377   2.434   2.909   8.319
 2518TIP3    H218378   2.532   2.841   8.225
 2519TIP3   OH218379   2.570   2.684   8.154
 2519TIP3    H118380   2.559   2.703   8.057
 2519TIP3    H218381   2.667   2.672   8.156
 2520TIP3   OH218382   3.465   2.981   8.122
 2520TIP3    H118383   3.548   2.969   8.074
 2520TIP3    H218384   3.492   3.044   8.193
 2521TIP3   OH218385   2.427   2.475   9.532
 2521TIP3    H118386   2.438   2.379   9.519
 2521TIP3    H218387   2.495   2.511   9.475
 2522TIP3   OH218388   2.483   2.242   9.385
 2522TIP3    H118389   2.534   2.306   9.330
 2522TIP3    H218390   2.400   2.237   9.333
 2523TIP3   OH218391   2.655   2.873   9.396
 2523TIP3    H118392   2.719   2.889   9.326
 2523TIP3    H218393   2.571   2.899   9.351
 2524TIP3   OH218394   3.234   2.857   9.695
 2524TIP3    H118395   3.191   2.917   9.631
 2524TIP3    H218396   3.325   2.855   9.660
 2525TIP3   OH218397   2.586   2.021   9.276
 2525TIP3    H118398   2.545   2.102   9.315
 2525TIP3    H218399   2.517   1.956   9.292
 2526TIP3   OH218400   2.922   2.313   9.679
 2526TIP3    H118401   2.845   2.255   9.692
 2526TIP3    H218402   2.988   2.257   9.722
 2527TIP3   OH218403   2.545   3.763   8.238
 2527TIP3    H118404   2.641   3.773   8.221
 2527TIP3    H218405   2.512   3.807   8.159
 2528TIP3   OH218406   1.909   3.271   8.130
 2528TIP3    H118407   2.000   3.303   8.144
 2528TIP3    H218408   1.927   3.212   8.054
 2529TIP3   OH218409   1.810   3.756   8.603
 2529TIP3    H118410   1.735   3.699   8.574
 2529TIP3    H218411   1.843   3.702   8.678
 2530TIP3   OH218412   1.875   3.591   8.797
 2530TIP3    H118413   1.813   3.524   8.829
 2530TIP3    H218414   1.912   3.626   8.880
 2531TIP3   OH218415   3.640   3.724   9.069
 2531TIP3    H118416   3.690   3.733   9.153
 2531TIP3    H218417   3.598   3.810   9.061
 2532TIP3   OH218418   3.636   3.618   9.391
 2532TIP3    H118419   3.594   3.553   9.331
 2532TIP3    H218420   3.657   3.555   9.464
 2533TIP3   OH218421   3.353   3.243   9.834
 2533TIP3    H118422   3.263   3.244   9.873
 2533TIP3    H218423   3.371   3.149   9.847
 2534TIP3   OH218424   3.538   3.059   8.376
 2534TIP3    H118425   3.619   3.109   8.402
 2534TIP3    H218426   3.537   2.991   8.446
 2535TIP3   OH218427   3.596   2.821   8.583
 2535TIP3    H118428   3.521   2.770   8.623
 2535TIP3    H218429   3.647   2.844   8.663
 2536TIP3   OH218430   3.570   3.128   9.066
 2536TIP3    H118431   3.635   3.064   9.031
 2536TIP3    H218432   3.596   3.212   9.021
 2537TIP3   OH218433   3.461   3.399   9.285
 2537TIP3    H118434   3.401   3.458   9.334
 2537TIP3    H218435   3.411   3.384   9.203
 2538TIP3   OH218436   3.659   2.814   8.251
 2538TIP3    H118437   3.566   2.842   8.237
 2538TIP3    H218438   3.692   2.881   8.314
 2539TIP3   OH218439   3.370   2.572   8.143
 2539TIP3    H118440   3.408   2.601   8.057
 2539TIP3    H218441   3.360   2.476   8.128
 2540TIP3   OH218442   3.410   2.680   8.706
 2540TIP3    H118443   3.389   2.587   8.694
 2540TIP3    H218444   3.377   2.694   8.798
 2541TIP3   OH218445   1.889   2.923   9.067
 2541TIP3    H118446   1.909   2.888   8.976
 2541TIP3    H218447   1.972   2.895   9.114
 2542TIP3   OH218448   3.494   2.899   9.615
 2542TIP3    H118449   3.549   2.930   9.692
 2542TIP3    H218450   3.504   2.974   9.554
 2543TIP3   OH218451   3.573   2.670   9.726
 2543TIP3    H118452   3.534   2.749   9.683
 2543TIP3    H218453   3.666   2.697   9.737
 2544TIP3   OH218454   3.419   2.284   8.107
 2544TIP3    H118455   3.504   2.234   8.119
 2544TIP3    H218456   3.359   2.240   8.170
 2545TIP3   OH218457   3.349   2.500   8.482
 2545TIP3    H118458   3.380   2.407   8.496
 2545TIP3    H218459   3.436   2.540   8.461
 2546TIP3   OH218460   3.447   2.507   9.073
 2546TIP3    H118461   3.545   2.516   9.060
 2546TIP3    H218462   3.442   2.532   9.167
 2547TIP3   OH218463   3.466   2.600   9.331
 2547TIP3    H118464   3.391   2.643   9.376
 2547TIP3    H218465   3.528   2.674   9.312
 2548TIP3   OH218466   1.854   2.373   9.629
 2548TIP3    H118467   1.936   2.395   9.677
 2548TIP3    H218468   1.829   2.288   9.669
 2549TIP3   OH218469   3.449   2.257   8.517
 2549TIP3    H118470   3.471   2.205   8.597
 2549TIP3    H218471   3.385   2.195   8.476
 2550TIP3   OH218472   1.985   2.261   9.054
 2550TIP3    H118473   2.016   2.168   9.043
 2550TIP3    H218474   2.061   2.315   9.028
 2551TIP3   OH218475   1.824   2.561   9.059
 2551TIP3    H118476   1.882   2.566   8.981
 2551TIP3    H218477   1.875   2.610   9.124
 2552TIP3   OH218478   3.646   2.150   8.159
 2552TIP3    H118479   3.692   2.110   8.082
 2552TIP3    H218480   3.714   2.212   8.195
 2553TIP3   OH218481   1.856   2.176   8.477
 2553TIP3    H118482   1.774   2.143   8.440
 2553TIP3    H218483   1.890   2.229   8.402
 2554TIP3   OH218484   3.318   3.699   8.672
 2554TIP3    H118485   3.391   3.682   8.610
 2554TIP3    H218486   3.363   3.752   8.741
 2555TIP3   OH218487   1.867   2.026   9.291
 2555TIP3    H118488   1.789   2.010   9.348
 2555TIP3    H218489   1.848   2.110   9.248
 2556TIP3   OH218490   2.325   3.511   9.314
 2556TIP3    H118491   2.332   3.609   9.314
 2556TIP3    H218492   2.420   3.489   9.316
 2557TIP3   OH218493   2.795   3.607   9.650
 2557TIP3    H118494   2.787   3.608   9.746
 2557TIP3    H218495   2.883   3.649   9.639
 2558TIP3   OH218496   3.055   3.757   9.621
 2558TIP3    H118497   3.036   3.741   9.526
 2558TIP3    H218498   3.028   3.851   9.632
 2559TIP3   OH218499   3.483   1.962   9.473
 2559TIP3    H118500   3.402   1.957   9.419
 2559TIP3    H218501   3.535   1.887   9.438
 2560TIP3   OH218502   2.058   3.800   9.329
 2560TIP3    H118503   1.996   3.864   9.288
 2560TIP3    H218504   2.060   3.838   9.418
 2561TIP3   OH218505   2.312   3.769   9.231
 2561TIP3    H118506   2.219   3.788   9.257
 2561TIP3    H218507   2.324   3.831   9.154
 2562TIP3   OH218508   2.814   3.707   9.198
 2562TIP3    H118509   2.766   3.751   9.125
 2562TIP3    H218510   2.819   3.778   9.265
 2563TIP3   OH218511   3.039   3.644   9.343
 2563TIP3    H118512   2.967   3.655   9.278
 2563TIP3    H218513   3.112   3.685   9.293
 2564TIP3   OH218514   3.268   3.791   9.296
 2564TIP3    H118515   3.268   3.887   9.275
 2564TIP3    H218516   3.294   3.756   9.208
 2565TIP3   OH218517   2.040   3.678   9.031
 2565TIP3    H118518   2.009   3.636   9.114
 2565TIP3    H218519   2.133   3.645   9.024
 2566TIP3   OH218520   2.288   3.599   8.908
 2566TIP3    H118521   2.264   3.505   8.921
 2566TIP3    H218522   2.369   3.603   8.963
 2567TIP3   OH218523   2.522   3.555   9.038
 2567TIP3    H118524   2.518   3.457   9.048
 2567TIP3    H218525   2.524   3.591   9.129
 2568TIP3   OH218526   2.794   2.135   8.943
 2568TIP3    H118527   2.717   2.077   8.970
 2568TIP3    H218528   2.854   2.068   8.907
 2569TIP3   OH218529   3.380   1.958   8.882
 2569TIP3    H118530   3.447   2.017   8.839
 2569TIP3    H218531   3.296   1.997   8.847
 2570TIP3   OH218532   3.536   2.094   8.719
 2570TIP3    H118533   3.582   2.018   8.675
 2570TIP3    H218534   3.611   2.156   8.728
 2571TIP3   OH218535   2.087   1.966   8.700
 2571TIP3    H118536   2.004   1.962   8.648
 2571TIP3    H218537   2.117   1.873   8.695
 2572TIP3   OH218538   1.992   1.976   8.265
 2572TIP3    H118539   2.021   2.039   8.195
 2572TIP3    H218540   1.951   2.038   8.328
 2573TIP3   OH218541   2.521   1.961   8.683
 2573TIP3    H118542   2.604   1.955   8.633
 2573TIP3    H218543   2.553   1.965   8.775
 2574TIP3   OH218544   3.112   2.024   8.770
 2574TIP3    H118545   3.083   2.019   8.678
 2574TIP3    H218546   3.069   1.944   8.807
 2575TIP3   OH218547   3.269   2.059   8.432
 2575TIP3    H118548   3.184   2.045   8.388
 2575TIP3    H218549   3.273   1.979   8.487
 2576TIP3   OH218550   1.978   3.601   8.390
 2576TIP3    H118551   1.897   3.588   8.335
 2576TIP3    H218552   1.998   3.694   8.366
 2577TIP3   OH218553   2.144   2.143   8.112
 2577TIP3    H118554   2.220   2.095   8.077
 2577TIP3    H218555   2.186   2.191   8.186
 2578TIP3   OH218556   2.678   2.211   8.356
 2578TIP3    H118557   2.722   2.157   8.424
 2578TIP3    H218558   2.682   2.299   8.395
 2579TIP3   OH218559   2.810   3.724   8.177
 2579TIP3    H118560   2.904   3.715   8.152
 2579TIP3    H218561   2.781   3.632   8.160
 2580TIP3   OH218562   3.480   3.646   8.470
 2580TIP3    H118563   3.487   3.561   8.422
 2580TIP3    H218564   3.489   3.712   8.399
 2581TIP3   OH218565   2.074   2.004   9.590
 2581TIP3    H118566   2.012   1.935   9.622
 2581TIP3    H218567   2.137   2.000   9.662
 2582TIP3   OH218568   2.159   3.613   8.136
 2582TIP3    H118569   2.119   3.671   8.203
 2582TIP3    H218570   2.254   3.632   8.142
 2583TIP3   OH218571   4.911   2.952   8.640
 2583TIP3    H118572   4.899   3.049   8.655
 2583TIP3    H218573   4.821   2.929   8.614
 2584TIP3   OH218574   4.732   2.817   9.016
 2584TIP3    H118575   4.748   2.777   9.105
 2584TIP3    H218576   4.686   2.745   8.969
 2585TIP3   OH218577   4.002   2.826   9.189
 2585TIP3    H118578   3.989   2.738   9.228
 2585TIP3    H218579   4.095   2.819   9.159
 2586TIP3   OH218580   4.087   3.331   8.980
 2586TIP3    H118581   4.037   3.251   8.960
 2586TIP3    H218582   4.178   3.295   8.978
 2587TIP3   OH218583   3.756   2.575   8.564
 2587TIP3    H118584   3.722   2.661   8.592
 2587TIP3    H218585   3.726   2.572   8.472
 2588TIP3   OH218586   3.803   2.811   8.808
 2588TIP3    H118587   3.851   2.726   8.825
 2588TIP3    H218588   3.871   2.865   8.764
 2589TIP3   OH218589   4.859   3.619   8.893
 2589TIP3    H118590   4.906   3.564   8.828
 2589TIP3    H218591   4.855   3.561   8.971
 2590TIP3   OH218592   4.615   3.062   9.101
 2590TIP3    H118593   4.657   2.978   9.071
 2590TIP3    H218594   4.694   3.119   9.109
 2591TIP3   OH218595   4.876   2.521   9.098
 2591TIP3    H118596   4.961   2.475   9.117
 2591TIP3    H218597   4.901   2.572   9.019
 2592TIP3   OH218598   4.253   2.321   8.796
 2592TIP3    H118599   4.252   2.402   8.743
 2592TIP3    H218600   4.202   2.261   8.737
 2593TIP3   OH218601   4.960   2.380   8.675
 2593TIP3    H118602   5.034   2.321   8.706
 2593TIP3    H218603   5.017   2.453   8.642
 2594TIP3   OH218604   3.931   2.593   8.888
 2594TIP3    H118605   3.977   2.533   8.951
 2594TIP3    H218606   3.960   2.556   8.802
 2595TIP3   OH218607   4.382   2.736   8.837
 2595TIP3    H118608   4.459   2.689   8.873
 2595TIP3    H218609   4.338   2.664   8.787
 2596TIP3   OH218610   4.153   2.254   9.219
 2596TIP3    H118611   4.121   2.293   9.135
 2596TIP3    H218612   4.099   2.306   9.280
 2597TIP3   OH218613   4.829   3.204   8.584
 2597TIP3    H118614   4.788   3.197   8.497
 2597TIP3    H218615   4.791   3.288   8.616
 2598TIP3   OH218616   4.359   3.012   9.177
 2598TIP3    H118617   4.306   3.090   9.204
 2598TIP3    H218618   4.444   3.051   9.147
 2599TIP3   OH218619   4.097   2.410   8.996
 2599TIP3    H118620   4.153   2.477   9.044
 2599TIP3    H218621   4.159   2.380   8.926
 2600TIP3   OH218622   4.214   3.201   9.297
 2600TIP3    H118623   4.169   3.253   9.230
 2600TIP3    H218624   4.142   3.176   9.359
 2601TIP3   OH218625   3.792   3.137   8.405
 2601TIP3    H118626   3.795   3.192   8.325
 2601TIP3    H218627   3.813   3.208   8.471
 2602TIP3   OH218628   4.482   1.997   8.978
 2602TIP3    H118629   4.445   1.933   8.915
 2602TIP3    H218630   4.398   2.047   8.999
 2603TIP3   OH218631   5.028   3.537   8.699
 2603TIP3    H118632   5.031   3.441   8.687
 2603TIP3    H218633   5.118   3.554   8.737
 2604TIP3   OH218634   4.713   2.823   8.383
 2604TIP3    H118635   4.634   2.874   8.359
 2604TIP3    H218636   4.781   2.864   8.328
 2605TIP3   OH218637   4.724   2.599   8.172
 2605TIP3    H118638   4.778   2.670   8.212
 2605TIP3    H218639   4.783   2.570   8.102
 2606TIP3   OH218640   5.102   2.807   8.498
 2606TIP3    H118641   5.036   2.854   8.556
 2606TIP3    H218642   5.163   2.881   8.479
 2607TIP3   OH218643   5.035   2.672   9.413
 2607TIP3    H118644   4.996   2.736   9.474
 2607TIP3    H218645   4.999   2.703   9.329
 2608TIP3   OH218646   4.240   2.910   8.681
 2608TIP3    H118647   4.231   2.869   8.593
 2608TIP3    H218648   4.304   2.851   8.727
 2609TIP3   OH218649   4.358   3.267   8.951
 2609TIP3    H118650   4.369   3.260   8.853
 2609TIP3    H218651   4.440   3.227   8.985
 2610TIP3   OH218652   4.246   2.803   9.065
 2610TIP3    H118653   4.299   2.794   8.983
 2610TIP3    H218654   4.299   2.872   9.112
 2611TIP3   OH218655   4.886   3.381   9.154
 2611TIP3    H118656   4.912   3.425   9.237
 2611TIP3    H218657   4.874   3.287   9.179
 2612TIP3   OH218658   4.403   3.265   9.486
 2612TIP3    H118659   4.342   3.265   9.562
 2612TIP3    H218660   4.345   3.231   9.415
 2613TIP3   OH218661   4.968   2.806   8.248
 2613TIP3    H118662   5.010   2.810   8.337
 2613TIP3    H218663   5.008   2.881   8.202
 2614TIP3   OH218664   4.066   2.791   9.470
 2614TIP3    H118665   4.090   2.884   9.483
 2614TIP3    H218666   3.968   2.796   9.476
 2615TIP3   OH218667   4.708   3.444   8.649
 2615TIP3    H118668   4.758   3.527   8.647
 2615TIP3    H218669   4.652   3.449   8.568
 2616TIP3   OH218670   4.200   3.384   9.620
 2616TIP3    H118671   4.242   3.442   9.556
 2616TIP3    H218672   4.106   3.404   9.607
 2617TIP3   OH218673   4.144   2.810   8.433
 2617TIP3    H118674   4.080   2.883   8.433
 2617TIP3    H218675   4.087   2.732   8.439
 2618TIP3   OH218676   3.752   3.090   9.336
 2618TIP3    H118677   3.708   3.109   9.252
 2618TIP3    H218678   3.810   3.016   9.311
 2619TIP3   OH218679   3.728   3.346   9.014
 2619TIP3    H118680   3.792   3.290   9.060
 2619TIP3    H218681   3.735   3.425   9.069
 2620TIP3   OH218682   4.653   3.348   9.469
 2620TIP3    H118683   4.645   3.428   9.523
 2620TIP3    H218684   4.560   3.314   9.471
 2621TIP3   OH218685   4.692   3.733   8.447
 2621TIP3    H118686   4.704   3.768   8.356
 2621TIP3    H218687   4.669   3.814   8.497
 2622TIP3   OH218688   4.069   3.601   8.667
 2622TIP3    H118689   4.095   3.609   8.762
 2622TIP3    H218690   3.983   3.556   8.675
 2623TIP3   OH218691   4.979   3.616   8.183
 2623TIP3    H118692   5.042   3.542   8.174
 2623TIP3    H218693   4.968   3.621   8.280
 2624TIP3   OH218694   4.944   3.637   8.459
 2624TIP3    H118695   4.848   3.661   8.463
 2624TIP3    H218696   4.964   3.615   8.553
 2625TIP3   OH218697   4.001   3.170   9.472
 2625TIP3    H118698   3.999   3.203   9.565
 2625TIP3    H218699   3.909   3.180   9.446
 2626TIP3   OH218700   4.245   2.101   9.020
 2626TIP3    H118701   4.152   2.083   8.995
 2626TIP3    H218702   4.232   2.142   9.109
 2627TIP3   OH218703   4.710   2.027   9.345
 2627TIP3    H118704   4.739   2.034   9.438
 2627TIP3    H218705   4.612   2.024   9.358
 2628TIP3   OH218706   5.017   2.396   9.429
 2628TIP3    H118707   4.989   2.381   9.521
 2628TIP3    H218708   5.039   2.491   9.435
 2629TIP3   OH218709   4.711   2.274   8.142
 2629TIP3    H118710   4.640   2.294   8.207
 2629TIP3    H218711   4.676   2.194   8.100
 2630TIP3   OH218712   4.247   2.554   9.156
 2630TIP3    H118713   4.204   2.562   9.244
 2630TIP3    H218714   4.245   2.648   9.127
 2631TIP3   OH218715   4.251   2.551   8.660
 2631TIP3    H118716   4.157   2.534   8.638
 2631TIP3    H218717   4.295   2.535   8.573
 2632TIP3   OH218718   4.831   2.665   8.558
 2632TIP3    H118719   4.786   2.728   8.496
 2632TIP3    H218720   4.877   2.605   8.497
 2633TIP3   OH218721   4.747   2.678   9.643
 2633TIP3    H118722   4.688   2.632   9.706
 2633TIP3    H218723   4.832   2.671   9.686
 2634TIP3   OH218724   4.908   2.602   8.839
 2634TIP3    H118725   4.926   2.678   8.779
 2634TIP3    H218726   4.914   2.526   8.778
 2635TIP3   OH218727   3.995   2.555   9.314
 2635TIP3    H118728   4.017   2.616   9.387
 2635TIP3    H218729   3.962   2.477   9.364
 2636TIP3   OH218730   4.401   2.378   8.105
 2636TIP3    H118731   4.393   2.304   8.167
 2636TIP3    H218732   4.318   2.425   8.121
 2637TIP3   OH218733   3.732   2.267   8.759
 2637TIP3    H118734   3.818   2.262   8.802
 2637TIP3    H218735   3.753   2.280   8.664
 2638TIP3   OH218736   3.821   2.337   8.254
 2638TIP3    H118737   3.897   2.383   8.214
 2638TIP3    H218738   3.764   2.415   8.264
 2639TIP3   OH218739   4.809   2.733   9.258
 2639TIP3    H118740   4.858   2.662   9.212
 2639TIP3    H218741   4.752   2.680   9.317
 2640TIP3   OH218742   4.537   2.298   8.760
 2640TIP3    H118743   4.443   2.319   8.777
 2640TIP3    H218744   4.575   2.296   8.849
 2641TIP3   OH218745   3.993   2.483   8.628
 2641TIP3    H118746   3.901   2.502   8.599
 2641TIP3    H218747   4.001   2.386   8.618
 2642TIP3   OH218748   4.366   2.509   8.418
 2642TIP3    H118749   4.461   2.520   8.438
 2642TIP3    H218750   4.354   2.571   8.344
 2643TIP3   OH218751   4.984   2.244   9.087
 2643TIP3    H118752   4.900   2.236   9.137
 2643TIP3    H218753   4.957   2.238   8.994
 2644TIP3   OH218754   4.197   2.625   8.155
 2644TIP3    H118755   4.190   2.617   8.059
 2644TIP3    H218756   4.292   2.645   8.167
 2645TIP3   OH218757   4.642   2.551   8.946
 2645TIP3    H118758   4.739   2.539   8.942
 2645TIP3    H218759   4.621   2.511   9.031
 2646TIP3   OH218760   4.084   2.236   8.597
 2646TIP3    H118761   4.043   2.151   8.624
 2646TIP3    H218762   4.101   2.223   8.503
 2647TIP3   OH218763   4.460   2.399   9.183
 2647TIP3    H118764   4.384   2.460   9.183
 2647TIP3    H218765   4.529   2.446   9.232
 2648TIP3   OH218766   4.553   3.091   8.362
 2648TIP3    H118767   4.480   3.028   8.344
 2648TIP3    H218768   4.527   3.120   8.454
 2649TIP3   OH218769   4.988   2.331   8.151
 2649TIP3    H118770   4.896   2.297   8.146
 2649TIP3    H218771   4.977   2.406   8.211
 2650TIP3   OH218772   4.670   3.076   9.427
 2650TIP3    H118773   4.663   3.063   9.522
 2650TIP3    H218774   4.644   3.170   9.417
 2651TIP3   OH218775   5.027   2.534   8.345
 2651TIP3    H118776   5.115   2.506   8.313
 2651TIP3    H218777   5.026   2.627   8.316
 2652TIP3   OH218778   4.077   3.001   8.906
 2652TIP3    H118779   4.132   2.994   8.824
 2652TIP3    H218780   4.112   2.930   8.962
 2653TIP3   OH218781   4.797   3.192   8.262
 2653TIP3    H118782   4.754   3.277   8.245
 2653TIP3    H218783   4.718   3.139   8.286
 2654TIP3   OH218784   3.797   2.743   9.455
 2654TIP3    H118785   3.730   2.753   9.524
 2654TIP3    H218786   3.746   2.761   9.373
 2655TIP3   OH218787   4.960   3.324   9.513
 2655TIP3    H118788   4.907   3.309   9.434
 2655TIP3    H218789   4.920   3.407   9.543
 2656TIP3   OH218790   4.994   2.910   9.080
 2656TIP3    H118791   4.910   2.884   9.037
 2656TIP3    H218792   5.050   2.933   9.004
 2657TIP3   OH218793   4.291   3.341   8.680
 2657TIP3    H118794   4.321   3.432   8.655
 2657TIP3    H218795   4.203   3.342   8.643
 2658TIP3   OH218796   3.889   2.864   8.044
 2658TIP3    H118797   3.969   2.911   8.072
 2658TIP3    H218798   3.849   2.847   8.130
 2659TIP3   OH218799   4.435   3.130   8.599
 2659TIP3    H118800   4.393   3.214   8.627
 2659TIP3    H218801   4.382   3.065   8.647
 2660TIP3   OH218802   4.496   3.571   9.245
 2660TIP3    H118803   4.579   3.623   9.236
 2660TIP3    H218804   4.537   3.492   9.285
 2661TIP3   OH218805   4.337   3.605   8.598
 2661TIP3    H118806   4.239   3.612   8.608
 2661TIP3    H218807   4.364   3.689   8.637
 2662TIP3   OH218808   4.867   3.102   9.219
 2662TIP3    H118809   4.806   3.068   9.288
 2662TIP3    H218810   4.907   3.017   9.189
 2663TIP3   OH218811   5.087   3.115   8.205
 2663TIP3    H118812   5.076   3.187   8.139
 2663TIP3    H218813   4.997   3.118   8.246
 2664TIP3   OH218814   3.904   2.302   9.410
 2664TIP3    H118815   3.831   2.311   9.346
 2664TIP3    H218816   3.925   2.208   9.407
 2665TIP3   OH218817   3.904   3.475   9.230
 2665TIP3    H118818   3.986   3.424   9.217
 2665TIP3    H218819   3.918   3.509   9.320
 2666TIP3   OH218820   4.347   3.292   8.231
 2666TIP3    H118821   4.413   3.251   8.290
 2666TIP3    H218822   4.343   3.386   8.265
 2667TIP3   OH218823   4.009   3.021   8.258
 2667TIP3    H118824   3.972   3.099   8.302
 2667TIP3    H218825   4.093   3.057   8.225
 2668TIP3   OH218826   4.767   2.295   9.334
 2668TIP3    H118827   4.857   2.328   9.352
 2668TIP3    H218828   4.775   2.200   9.352
 2669TIP3   OH218829   4.878   2.250   8.456
 2669TIP3    H118830   4.833   2.307   8.392
 2669TIP3    H218831   4.893   2.311   8.532
 2670TIP3   OH218832   4.610   3.409   8.390
 2670TIP3    H118833   4.520   3.446   8.383
 2670TIP3    H218834   4.652   3.451   8.312
 2671TIP3   OH218835   4.633   2.448   8.554
 2671TIP3    H118836   4.701   2.514   8.578
 2671TIP3    H218837   4.611   2.405   8.639
 2672TIP3   OH218838   4.667   2.545   9.409
 2672TIP3    H118839   4.694   2.575   9.498
 2672TIP3    H218840   4.705   2.455   9.407
 2673TIP3   OH218841   4.669   2.115   8.582
 2673TIP3    H118842   4.647   2.162   8.664
 2673TIP3    H218843   4.750   2.164   8.556
 2674TIP3   OH218844   4.366   3.539   8.341
 2674TIP3    H118845   4.405   3.616   8.295
 2674TIP3    H218846   4.341   3.582   8.426
 2675TIP3   OH218847   4.261   2.235   8.304
 2675TIP3    H118848   4.275   2.325   8.340
 2675TIP3    H218849   4.342   2.189   8.334
 2676TIP3   OH218850   4.068   3.302   8.156
 2676TIP3    H118851   4.109   3.384   8.189
 2676TIP3    H218852   4.147   3.248   8.138
 2677TIP3   OH218853   3.899   2.562   8.129
 2677TIP3    H118854   3.985   2.602   8.150
 2677TIP3    H218855   3.834   2.634   8.127
 2678TIP3   OH218856   3.987   2.025   8.975
 2678TIP3    H118857   3.984   2.018   8.877
 2678TIP3    H218858   3.958   1.935   9.001
 2679TIP3   OH218859   3.837   3.356   8.541
 2679TIP3    H118860   3.770   3.405   8.590
 2679TIP3    H218861   3.865   3.428   8.481
 2680TIP3   OH218862   4.648   3.440   8.115
 2680TIP3    H118863   4.558   3.411   8.095
 2680TIP3    H218864   4.677   3.482   8.031
 2681TIP3   OH218865   3.647   3.016   9.804
 2681TIP3    H118866   3.738   3.026   9.838
 2681TIP3    H218867   3.649   3.080   9.729
 2682TIP3   OH218868   4.241   3.044   8.096
 2682TIP3    H118869   4.287   2.996   8.169
 2682TIP3    H218870   4.310   3.108   8.073
 2683TIP3   OH218871   5.027   3.016   9.469
 2683TIP3    H118872   5.109   3.019   9.522
 2683TIP3    H218873   5.038   3.094   9.413
 2684TIP3   OH218874   3.826   2.783   9.761
 2684TIP3    H118875   3.894   2.727   9.720
 2684TIP3    H218876   3.884   2.847   9.806
 2685TIP3   OH218877   4.363   2.908   8.286
 2685TIP3    H118878   4.294   2.867   8.342
 2685TIP3    H218879   4.393   2.830   8.234
 2686TIP3   OH218880   4.267   2.615   9.413
 2686TIP3    H118881   4.206   2.679   9.456
 2686TIP3    H218882   4.339   2.674   9.379
 2687TIP3   OH218883   4.466   2.668   8.183
 2687TIP3    H118884   4.463   2.684   8.086
 2687TIP3    H218885   4.553   2.622   8.187
 2688TIP3   OH218886   4.228   2.394   9.549
 2688TIP3    H118887   4.301   2.338   9.514
 2688TIP3    H218888   4.249   2.480   9.505
 2689TIP3   OH218889   4.372   2.240   9.381
 2689TIP3    H118890   4.416   2.296   9.312
 2689TIP3    H218891   4.279   2.247   9.351
 2690TIP3   OH218892   4.456   2.806   9.328
 2690TIP3    H118893   4.546   2.825   9.358
 2690TIP3    H218894   4.426   2.895   9.300
 2691TIP3   OH218895   4.214   2.481   9.798
 2691TIP3    H118896   4.165   2.411   9.845
 2691TIP3    H218897   4.208   2.448   9.705
 2692TIP3   OH218898   4.448   1.987   9.386
 2692TIP3    H118899   4.412   2.078   9.383
 2692TIP3    H218900   4.393   1.945   9.316
 2693TIP3   OH218901   4.574   2.461   9.732
 2693TIP3    H118902   4.588   2.439   9.828
 2693TIP3    H218903   4.510   2.395   9.703
 2694TIP3   OH218904   4.829   2.365   9.654
 2694TIP3    H118905   4.735   2.378   9.674
 2694TIP3    H218906   4.862   2.314   9.731
 2695TIP3   OH218907   4.998   2.230   9.818
 2695TIP3    H118908   5.016   2.136   9.828
 2695TIP3    H218909   5.025   2.269   9.905
 2696TIP3   OH218910   4.460   1.893   9.653
 2696TIP3    H118911   4.536   1.832   9.638
 2696TIP3    H218912   4.451   1.934   9.564
 2697TIP3   OH218913   4.455   3.773   8.221
 2697TIP3    H118914   4.540   3.811   8.191
 2697TIP3    H218915   4.392   3.824   8.169
 2698TIP3   OH218916   3.806   3.258   8.138
 2698TIP3    H118917   3.890   3.311   8.144
 2698TIP3    H218918   3.844   3.182   8.090
 2699TIP3   OH218919   3.673   3.762   8.617
 2699TIP3    H118920   3.601   3.712   8.573
 2699TIP3    H218921   3.710   3.694   8.678
 2700TIP3   OH218922   3.764   3.589   8.806
 2700TIP3    H118923   3.715   3.509   8.829
 2700TIP3    H218924   3.744   3.644   8.884
 2701TIP3   OH218925   3.779   2.914   9.059
 2701TIP3    H118926   3.782   2.875   8.969
 2701TIP3    H218927   3.873   2.900   9.088
 2702TIP3   OH218928   3.870   2.255   9.059
 2702TIP3    H118929   3.901   2.165   9.035
 2702TIP3    H218930   3.949   2.310   9.043
 2703TIP3   OH218931   3.701   2.564   9.051
 2703TIP3    H118932   3.768   2.537   8.986
 2703TIP3    H218933   3.739   2.646   9.085
 2704TIP3   OH218934   3.720   2.221   8.476
 2704TIP3    H118935   3.626   2.246   8.475
 2704TIP3    H218936   3.749   2.257   8.390
 2705TIP3   OH218937   3.744   2.047   9.317
 2705TIP3    H118938   3.678   1.993   9.365
 2705TIP3    H218939   3.688   2.094   9.254
 2706TIP3   OH218940   3.925   3.336   9.678
 2706TIP3    H118941   3.876   3.413   9.709
 2706TIP3    H218942   3.947   3.286   9.758
 2707TIP3   OH218943   4.209   3.525   9.323
 2707TIP3    H118944   4.248   3.614   9.318
 2707TIP3    H218945   4.290   3.473   9.317
 2708TIP3   OH218946   4.696   3.633   9.654
 2708TIP3    H118947   4.691   3.606   9.747
 2708TIP3    H218948   4.762   3.705   9.655
 2709TIP3   OH218949   4.892   3.820   9.617
 2709TIP3    H118950   4.934   3.768   9.547
 2709TIP3    H218951   4.952   3.806   9.692
 2710TIP3   OH218952   3.989   3.833   9.349
 2710TIP3    H118953   3.899   3.869   9.336
 2710TIP3    H218954   3.980   3.776   9.426
 2711TIP3   OH218955   4.271   3.798   9.261
 2711TIP3    H118956   4.273   3.867   9.329
 2711TIP3    H218957   4.300   3.847   9.181
 2712TIP3   OH218958   4.710   3.711   9.175
 2712TIP3    H118959   4.737   3.763   9.098
 2712TIP3    H218960   4.736   3.766   9.252
 2713TIP3   OH218961   4.915   3.615   9.329
 2713TIP3    H118962   4.865   3.627   9.246
 2713TIP3    H218963   4.999   3.659   9.309
 2714TIP3   OH218964   3.940   3.669   9.040
 2714TIP3    H118965   3.908   3.595   9.097
 2714TIP3    H218966   4.014   3.626   8.991
 2715TIP3   OH218967   4.162   3.585   8.916
 2715TIP3    H118968   4.144   3.490   8.931
 2715TIP3    H218969   4.257   3.591   8.941
 2716TIP3   OH218970   4.427   3.594   8.979
 2716TIP3    H118971   4.428   3.498   8.978
 2716TIP3    H218972   4.446   3.608   9.075
 2717TIP3   OH218973   4.731   2.098   8.906
 2717TIP3    H118974   4.640   2.084   8.939
 2717TIP3    H218975   4.778   2.031   8.957
 2718TIP3   OH218976   3.965   2.014   8.702
 2718TIP3    H118977   3.880   1.992   8.658
 2718TIP3    H218978   4.015   1.931   8.682
 2719TIP3   OH218979   3.843   1.978   8.267
 2719TIP3    H118980   3.888   2.036   8.200
 2719TIP3    H218981   3.814   2.044   8.333
 2720TIP3   OH218982   4.413   2.026   8.654
 2720TIP3    H118983   4.502   2.051   8.623
 2720TIP3    H218984   4.394   2.096   8.719
 2721TIP3   OH218985   4.985   2.013   8.805
 2721TIP3    H118986   4.906   2.068   8.818
 2721TIP3    H218987   4.957   1.930   8.847
 2722TIP3   OH218988   3.837   3.589   8.394
 2722TIP3    H118989   3.762   3.577   8.332
 2722TIP3    H218990   3.864   3.679   8.368
 2723TIP3   OH218991   4.028   2.127   8.125
 2723TIP3    H118992   4.080   2.069   8.068
 2723TIP3    H218993   4.096   2.148   8.192
 2724TIP3   OH218994   4.544   2.248   8.353
 2724TIP3    H118995   4.600   2.185   8.403
 2724TIP3    H218996   4.551   2.326   8.410
 2725TIP3   OH218997   4.758   3.788   8.186
 2725TIP3    H118998   4.841   3.736   8.193
 2725TIP3    H218999   4.749   3.792   8.090
 2726TIP3   OH219000   4.077   3.612   8.179
 2726TIP3    H119001   4.031   3.693   8.208
 2726TIP3    H219002   4.153   3.643   8.128
 2727TIP3   OH219003   5.026   1.931   9.845
 2727TIP3    H119004   5.032   1.898   9.936
 2727TIP3    H219005   5.114   1.907   9.807
 2728TIP3   OH219006   1.161   4.845   8.647
 2728TIP3    H119007   1.139   4.938   8.667
 2728TIP3    H219008   1.074   4.809   8.627
 2729TIP3   OH219009   0.981   4.732   8.997
 2729TIP3    H119010   1.001   4.687   9.082
 2729TIP3    H219011   0.913   4.674   8.958
 2730TIP3   OH219012   0.202   4.673   9.182
 2730TIP3    H119013   0.226   4.589   9.229
 2730TIP3    H219014   0.258   4.738   9.231
 2731TIP3   OH219015   1.358   5.052   8.862
 2731TIP3    H119016   1.324   4.971   8.906
 2731TIP3    H219017   1.433   5.076   8.920
 2732TIP3   OH219018   0.351   5.114   9.078
 2732TIP3    H119019   0.312   5.035   9.037
 2732TIP3    H219020   0.436   5.115   9.027
 2733TIP3   OH219021  -0.016   4.564   8.597
 2733TIP3    H119022  -0.016   4.644   8.541
 2733TIP3    H219023  -0.053   4.497   8.536
 2734TIP3   OH219024   0.144   4.736   8.804
 2734TIP3    H119025   0.151   4.644   8.839
 2734TIP3    H219026   0.092   4.721   8.725
 2735TIP3   OH219027   0.804   4.957   9.067
 2735TIP3    H119028   0.871   4.901   9.022
 2735TIP3    H219029   0.868   5.005   9.125
 2736TIP3   OH219030   1.637   4.119   9.127
 2736TIP3    H119031   1.658   4.182   9.199
 2736TIP3    H219032   1.712   4.139   9.068
 2737TIP3   OH219033   1.203   4.403   9.124
 2737TIP3    H119034   1.194   4.313   9.159
 2737TIP3    H219035   1.166   4.392   9.034
 2738TIP3   OH219036   0.487   4.217   8.792
 2738TIP3    H119037   0.476   4.299   8.739
 2738TIP3    H219038   0.435   4.154   8.738
 2739TIP3   OH219039   1.202   4.261   8.722
 2739TIP3    H119040   1.239   4.172   8.730
 2739TIP3    H219041   1.193   4.270   8.626
 2740TIP3   OH219042   0.192   4.492   8.896
 2740TIP3    H119043   0.240   4.439   8.962
 2740TIP3    H219044   0.188   4.431   8.819
 2741TIP3   OH219045   0.578   4.621   8.845
 2741TIP3    H119046   0.662   4.581   8.876
 2741TIP3    H219047   0.551   4.556   8.776
 2742TIP3   OH219048   1.715   4.281   9.349
 2742TIP3    H119049   1.683   4.373   9.337
 2742TIP3    H219050   1.757   4.287   9.437
 2743TIP3   OH219051   0.396   4.133   9.227
 2743TIP3    H119052   0.356   4.182   9.152
 2743TIP3    H219053   0.322   4.142   9.290
 2744TIP3   OH219054   1.052   5.096   8.550
 2744TIP3    H119055   1.046   5.056   8.462
 2744TIP3    H219056   1.023   5.187   8.533
 2745TIP3   OH219057   0.600   4.926   9.257
 2745TIP3    H119058   0.517   4.943   9.210
 2745TIP3    H219059   0.665   4.965   9.196
 2746TIP3   OH219060   1.460   4.218   8.905
 2746TIP3    H119061   1.418   4.145   8.953
 2746TIP3    H219062   1.480   4.280   8.980
 2747TIP3   OH219063   0.332   4.304   9.019
 2747TIP3    H119064   0.398   4.370   9.054
 2747TIP3    H219065   0.382   4.267   8.943
 2748TIP3   OH219066   0.447   5.195   9.312
 2748TIP3    H119067   0.406   5.164   9.229
 2748TIP3    H219068   0.386   5.155   9.377
 2749TIP3   OH219069   0.090   5.071   8.399
 2749TIP3    H119070   0.007   5.025   8.375
 2749TIP3    H219071   0.080   5.152   8.344
 2750TIP3   OH219072   1.349   5.175   9.163
 2750TIP3    H119073   1.286   5.176   9.090
 2750TIP3    H219074   1.399   5.258   9.151
 2751TIP3   OH219075   1.379   4.084   9.226
 2751TIP3    H119076   1.318   4.117   9.157
 2751TIP3    H219077   1.468   4.085   9.187
 2752TIP3   OH219078   0.711   3.848   8.934
 2752TIP3    H119079   0.693   3.753   8.943
 2752TIP3    H219080   0.631   3.887   8.978
 2753TIP3   OH219081   1.342   5.185   8.563
 2753TIP3    H119082   1.331   5.102   8.510
 2753TIP3    H219083   1.358   5.147   8.651
 2754TIP3   OH219084   1.575   5.079   9.421
 2754TIP3    H119085   1.577   4.999   9.476
 2754TIP3    H219086   1.484   5.079   9.390
 2755TIP3   OH219087   0.974   4.713   8.401
 2755TIP3    H119088   0.920   4.784   8.361
 2755TIP3    H219089   1.048   4.702   8.337
 2756TIP3   OH219090   1.000   4.602   8.123
 2756TIP3    H119091   1.089   4.637   8.138
 2756TIP3    H219092   1.017   4.509   8.103
 2757TIP3   OH219093   1.725   4.708   9.189
 2757TIP3    H119094   1.673   4.763   9.252
 2757TIP3    H219095   1.701   4.752   9.107
 2758TIP3   OH219096   1.352   4.693   8.527
 2758TIP3    H119097   1.282   4.751   8.564
 2758TIP3    H219098   1.416   4.700   8.600
 2759TIP3   OH219099   1.342   4.598   9.435
 2759TIP3    H119100   1.391   4.677   9.467
 2759TIP3    H219101   1.276   4.640   9.376
 2760TIP3   OH219102   0.520   4.813   8.678
 2760TIP3    H119103   0.469   4.773   8.604
 2760TIP3    H219104   0.535   4.738   8.740
 2761TIP3   OH219105   0.608   5.110   8.972
 2761TIP3    H119106   0.593   5.082   8.880
 2761TIP3    H219107   0.680   5.051   9.002
 2762TIP3   OH219108   0.491   4.724   9.088
 2762TIP3    H119109   0.510   4.718   8.991
 2762TIP3    H219110   0.567   4.773   9.122
 2763TIP3   OH219111   0.522   5.105   9.566
 2763TIP3    H119112   0.489   5.194   9.543
 2763TIP3    H219113   0.570   5.077   9.486
 2764TIP3   OH219114   1.216   4.658   8.303
 2764TIP3    H119115   1.265   4.665   8.388
 2764TIP3    H219116   1.266   4.720   8.244
 2765TIP3   OH219117   0.324   4.811   9.387
 2765TIP3    H119118   0.357   4.862   9.463
 2765TIP3    H219119   0.248   4.767   9.431
 2766TIP3   OH219120   1.611   3.828   8.288
 2766TIP3    H119121   1.515   3.839   8.271
 2766TIP3    H219122   1.651   3.904   8.242
 2767TIP3   OH219123   0.380   4.708   8.440
 2767TIP3    H119124   0.329   4.788   8.420
 2767TIP3    H219125   0.311   4.642   8.457
 2768TIP3   OH219126   0.009   4.977   9.352
 2768TIP3    H119127  -0.018   4.965   9.260
 2768TIP3    H219128   0.050   4.890   9.369
 2769TIP3   OH219129   1.479   4.453   9.631
 2769TIP3    H119130   1.416   4.504   9.576
 2769TIP3    H219131   1.450   4.361   9.616
 2770TIP3   OH219132   0.228   5.111   9.461
 2770TIP3    H119133   0.171   5.056   9.516
 2770TIP3    H219134   0.192   5.087   9.373
 2771TIP3   OH219135   0.482   3.974   9.027
 2771TIP3    H119136   0.389   3.975   8.997
 2771TIP3    H219137   0.478   4.030   9.107
 2772TIP3   OH219138   0.969   3.903   9.371
 2772TIP3    H119139   1.001   3.932   9.460
 2772TIP3    H219140   0.872   3.917   9.379
 2773TIP3   OH219141   1.205   4.297   9.549
 2773TIP3    H119142   1.115   4.267   9.580
 2773TIP3    H219143   1.190   4.387   9.517
 2774TIP3   OH219144   1.306   4.798   8.096
 2774TIP3    H119145   1.294   4.894   8.103
 2774TIP3    H219146   1.403   4.792   8.092
 2775TIP3   OH219147   0.934   4.200   8.144
 2775TIP3    H119148   0.882   4.198   8.227
 2775TIP3    H219149   0.893   4.123   8.100
 2776TIP3   OH219150   0.489   4.457   9.166
 2776TIP3    H119151   0.414   4.454   9.228
 2776TIP3    H219152   0.488   4.551   9.137
 2777TIP3   OH219153   0.454   4.461   8.675
 2777TIP3    H119154   0.357   4.463   8.657
 2777TIP3    H219155   0.490   4.437   8.587
 2778TIP3   OH219156   1.059   4.503   8.556
 2778TIP3    H119157   1.035   4.585   8.506
 2778TIP3    H219158   1.125   4.465   8.496
 2779TIP3   OH219159   0.900   4.552   9.619
 2779TIP3    H119160   0.822   4.519   9.664
 2779TIP3    H219161   0.971   4.537   9.683
 2780TIP3   OH219162   1.112   4.482   8.867
 2780TIP3    H119163   1.106   4.552   8.799
 2780TIP3    H219164   1.141   4.407   8.811
 2781TIP3   OH219165   0.252   4.440   9.315
 2781TIP3    H119166   0.299   4.461   9.398
 2781TIP3    H219167   0.222   4.348   9.336
 2782TIP3   OH219168   0.607   4.242   8.099
 2782TIP3    H119169   0.546   4.190   8.154
 2782TIP3    H219170   0.560   4.324   8.081
 2783TIP3   OH219171  -0.032   4.114   8.735
 2783TIP3    H119172   0.030   4.124   8.811
 2783TIP3    H219173  -0.011   4.024   8.706
 2784TIP3   OH219174   0.068   4.224   8.280
 2784TIP3    H119175   0.141   4.275   8.242
 2784TIP3    H219176  -0.004   4.254   8.220
 2785TIP3   OH219177   1.065   4.612   9.221
 2785TIP3    H119178   1.120   4.537   9.188
 2785TIP3    H219179   1.000   4.561   9.275
 2786TIP3   OH219180   0.770   4.199   8.763
 2786TIP3    H119181   0.673   4.198   8.783
 2786TIP3    H219182   0.808   4.179   8.850
 2787TIP3   OH219183   0.209   4.365   8.639
 2787TIP3    H119184   0.132   4.364   8.579
 2787TIP3    H219185   0.239   4.272   8.632
 2788TIP3   OH219186   0.555   4.399   8.428
 2788TIP3    H119187   0.650   4.415   8.424
 2788TIP3    H219188   0.521   4.457   8.355
 2789TIP3   OH219189   1.160   4.147   9.072
 2789TIP3    H119190   1.119   4.143   9.162
 2789TIP3    H219191   1.087   4.111   9.020
 2790TIP3   OH219192   0.454   4.500   8.190
 2790TIP3    H119193   0.420   4.487   8.100
 2790TIP3    H219194   0.544   4.534   8.175
 2791TIP3   OH219195   0.334   4.920   9.645
 2791TIP3    H119196   0.369   5.006   9.612
 2791TIP3    H219197   0.247   4.947   9.682
 2792TIP3   OH219198   0.816   4.524   8.933
 2792TIP3    H119199   0.902   4.496   8.897
 2792TIP3    H219200   0.805   4.457   9.003
 2793TIP3   OH219201   0.313   4.100   8.622
 2793TIP3    H119202   0.281   4.018   8.668
 2793TIP3    H219203   0.361   4.062   8.547
 2794TIP3   OH219204   0.730   4.334   9.183
 2794TIP3    H119205   0.650   4.391   9.179
 2794TIP3    H219206   0.789   4.383   9.244
 2795TIP3   OH219207   0.813   4.940   8.385
 2795TIP3    H119208   0.733   4.887   8.364
 2795TIP3    H219209   0.786   4.983   8.469
 2796TIP3   OH219210   1.511   4.877   9.236
 2796TIP3    H119211   1.541   4.965   9.204
 2796TIP3    H219212   1.428   4.868   9.188
 2797TIP3   OH219213   1.200   4.205   8.173
 2797TIP3    H119214   1.104   4.213   8.153
 2797TIP3    H219215   1.218   4.291   8.215
 2798TIP3   OH219216   0.884   5.022   9.510
 2798TIP3    H119217   0.910   4.944   9.561
 2798TIP3    H219218   0.968   5.075   9.512
 2799TIP3   OH219219   1.266   4.396   8.376
 2799TIP3    H119220   1.348   4.435   8.409
 2799TIP3    H219221   1.241   4.467   8.313
 2800TIP3   OH219222   0.344   4.893   8.933
 2800TIP3    H119223   0.339   4.852   8.846
 2800TIP3    H219224   0.337   4.815   8.991
 2801TIP3   OH219225   1.019   5.106   8.269
 2801TIP3    H119226   0.995   5.118   8.176
 2801TIP3    H219227   0.948   5.047   8.300
 2802TIP3   OH219228   0.071   4.732   9.444
 2802TIP3    H119229  -0.007   4.721   9.501
 2802TIP3    H219230   0.062   4.659   9.381
 2803TIP3   OH219231   1.120   5.150   9.505
 2803TIP3    H119232   1.141   5.227   9.449
 2803TIP3    H219233   1.151   5.186   9.590
 2804TIP3   OH219234   1.739   4.412   8.319
 2804TIP3    H119235   1.665   4.422   8.255
 2804TIP3    H219236   1.779   4.501   8.311
 2805TIP3   OH219237   1.279   4.795   9.022
 2805TIP3    H119238   1.185   4.771   9.009
 2805TIP3    H219239   1.319   4.708   8.997
 2806TIP3   OH219240   0.475   0.011   8.705
 2806TIP3    H119241   0.542   0.082   8.699
 2806TIP3    H219242   0.406   0.048   8.648
 2807TIP3   OH219243   0.101   4.714   8.193
 2807TIP3    H119244   0.172   4.782   8.193
 2807TIP3    H219245   0.039   4.748   8.127
 2808TIP3   OH219246   0.676   5.046   8.617
 2808TIP3    H119247   0.599   5.107   8.623
 2808TIP3    H219248   0.636   4.965   8.652
 2809TIP3   OH219249   1.013   5.013   9.222
 2809TIP3    H119250   0.998   5.013   9.318
 2809TIP3    H219251   1.087   4.951   9.212
 2810TIP3   OH219252   1.304   5.087   8.075
 2810TIP3    H119253   1.355   5.170   8.082
 2810TIP3    H219254   1.261   5.087   8.163
 2811TIP3   OH219255   0.191   4.205   9.417
 2811TIP3    H119256   0.103   4.220   9.454
 2811TIP3    H219257   0.211   4.120   9.460
 2812TIP3   OH219258   1.382   4.956   8.419
 2812TIP3    H119259   1.377   4.861   8.441
 2812TIP3    H219260   1.476   4.969   8.399
 2813TIP3   OH219261   0.661   5.204   8.256
 2813TIP3    H119262   0.684   5.130   8.313
 2813TIP3    H219263   0.701   5.280   8.300
 2814TIP3   OH219264   0.271   4.928   8.243
 2814TIP3    H119265   0.205   4.970   8.302
 2814TIP3    H219266   0.322   5.005   8.211
 2815TIP3   OH219267   1.065   4.175   9.327
 2815TIP3    H119268   1.148   4.182   9.377
 2815TIP3    H219269   1.011   4.121   9.389
 2816TIP3   OH219270   1.095   4.132   8.437
 2816TIP3    H119271   1.130   4.149   8.347
 2816TIP3    H219272   1.023   4.198   8.442
 2817TIP3   OH219273   0.866   4.312   8.532
 2817TIP3    H119274   0.905   4.401   8.546
 2817TIP3    H219275   0.837   4.285   8.622
 2818TIP3   OH219276   0.935   4.442   9.376
 2818TIP3    H119277   0.909   4.483   9.463
 2818TIP3    H219278   0.951   4.350   9.399
 2819TIP3   OH219279   0.901   3.986   8.599
 2819TIP3    H119280   0.865   4.064   8.645
 2819TIP3    H219281   0.983   4.022   8.560
 2820TIP3   OH219282   0.473   4.112   8.297
 2820TIP3    H119283   0.476   4.192   8.352
 2820TIP3    H219284   0.554   4.066   8.326
 2821TIP3   OH219285   1.515   4.177   9.500
 2821TIP3    H119286   1.424   4.167   9.467
 2821TIP3    H219287   1.562   4.217   9.424
 2822TIP3   OH219288   1.379   4.562   8.934
 2822TIP3    H119289   1.298   4.512   8.956
 2822TIP3    H219290   1.448   4.508   8.978
 2823TIP3   OH219291   0.355   5.189   8.146
 2823TIP3    H119292   0.381   5.238   8.226
 2823TIP3    H219293   0.433   5.133   8.128
 2824TIP3   OH219294   0.192   4.443   8.144
 2824TIP3    H119295   0.236   4.518   8.188
 2824TIP3    H219296   0.098   4.471   8.144
 2825TIP3   OH219297   0.220   3.906   8.987
 2825TIP3    H119298   0.223   3.873   8.894
 2825TIP3    H219299   0.198   3.821   9.032
 2826TIP3   OH219300   0.091   4.977   9.739
 2826TIP3    H119301   0.083   4.881   9.761
 2826TIP3    H219302   0.010   4.995   9.690
 2827TIP3   OH219303   0.535   4.981   8.103
 2827TIP3    H119304   0.543   4.909   8.170
 2827TIP3    H219305   0.617   4.966   8.056
 2828TIP3   OH219306   0.112   4.697   9.764
 2828TIP3    H119307   0.090   4.606   9.738
 2828TIP3    H219308   0.208   4.686   9.777
 2829TIP3   OH219309   0.610   4.795   8.284
 2829TIP3    H119310   0.538   4.756   8.337
 2829TIP3    H219311   0.652   4.713   8.247
 2830TIP3   OH219312   0.481   4.586   9.426
 2830TIP3    H119313   0.442   4.671   9.400
 2830TIP3    H219314   0.570   4.593   9.384
 2831TIP3   OH219315   0.735   4.585   8.172
 2831TIP3    H119316   0.718   4.576   8.076
 2831TIP3    H219317   0.834   4.587   8.170
 2832TIP3   OH219318   1.570   4.847   8.122
 2832TIP3    H119319   1.648   4.824   8.068
 2832TIP3    H219320   1.606   4.923   8.173
 2833TIP3   OH219321   0.547   4.359   9.567
 2833TIP3    H119322   0.567   4.297   9.496
 2833TIP3    H219323   0.512   4.438   9.521
 2834TIP3   OH219324   0.646   4.129   9.346
 2834TIP3    H119325   0.691   4.191   9.285
 2834TIP3    H219326   0.554   4.134   9.311
 2835TIP3   OH219327   0.743   4.716   9.344
 2835TIP3    H119328   0.830   4.754   9.326
 2835TIP3    H219329   0.684   4.794   9.334
 2836TIP3   OH219330   0.308   4.417   9.750
 2836TIP3    H119331   0.323   4.371   9.834
 2836TIP3    H219332   0.399   4.414   9.713
 2837TIP3   OH219333   0.700   3.875   9.357
 2837TIP3    H119334   0.681   3.971   9.355
 2837TIP3    H219335   0.622   3.842   9.308
 2838TIP3   OH219336   0.692   3.795   9.625
 2838TIP3    H119337   0.780   3.755   9.638
 2838TIP3    H219338   0.697   3.809   9.528
 2839TIP3   OH219339   0.098   5.143   8.051
 2839TIP3    H119340   0.183   5.105   8.081
 2839TIP3    H219341   0.046   5.065   8.025
 2840TIP3   OH219342   1.708   4.906   8.397
 2840TIP3    H119343   1.785   4.961   8.425
 2840TIP3    H219344   1.703   4.846   8.474
 2841TIP3   OH219345   1.742   4.728   8.598
 2841TIP3    H119346   1.663   4.699   8.649
 2841TIP3    H219347   1.801   4.756   8.671
 2842TIP3   OH219348   1.640   5.078   9.073
 2842TIP3    H119349   1.708   5.009   9.067
 2842TIP3    H219350   1.691   5.157   9.097
 2843TIP3   OH219351   1.762   4.674   8.240
 2843TIP3    H119352   1.668   4.686   8.220
 2843TIP3    H219353   1.776   4.754   8.295
 2844TIP3   OH219354   1.524   4.438   8.152
 2844TIP3    H119355   1.544   4.484   8.068
 2844TIP3    H219356   1.528   4.345   8.124
 2845TIP3   OH219357   1.528   4.638   8.726
 2845TIP3    H119358   1.502   4.554   8.684
 2845TIP3    H219359   1.479   4.631   8.811
 2846TIP3   OH219360   0.079   4.863   9.031
 2846TIP3    H119361   0.125   4.843   8.946
 2846TIP3    H219362   0.120   4.796   9.089
 2847TIP3   OH219363   1.576   4.772   9.544
 2847TIP3    H119364   1.643   4.723   9.597
 2847TIP3    H219365   1.550   4.842   9.607
 2848TIP3   OH219366   1.724   4.564   9.694
 2848TIP3    H119367   1.637   4.524   9.675
 2848TIP3    H219368   1.785   4.490   9.689
 2849TIP3   OH219369   1.528   4.157   8.074
 2849TIP3    H119370   1.580   4.088   8.121
 2849TIP3    H219371   1.438   4.144   8.107
 2850TIP3   OH219372   1.534   4.361   8.507
 2850TIP3    H119373   1.491   4.284   8.465
 2850TIP3    H219374   1.602   4.384   8.439
 2851TIP3   OH219375   1.550   4.404   9.070
 2851TIP3    H119376   1.647   4.409   9.054
 2851TIP3    H219377   1.544   4.428   9.166
 2852TIP3   OH219378   1.564   4.507   9.316
 2852TIP3    H119379   1.484   4.531   9.369
 2852TIP3    H219380   1.598   4.595   9.292
 2853TIP3   OH219381   0.009   4.344   9.719
 2853TIP3    H119382   0.101   4.351   9.751
 2853TIP3    H219383  -0.020   4.260   9.756
 2854TIP3   OH219384   1.493   4.067   8.543
 2854TIP3    H119385   1.564   4.013   8.583
 2854TIP3    H219386   1.462   4.009   8.470
 2855TIP3   OH219387   0.131   4.142   8.933
 2855TIP3    H119388   0.168   4.058   8.969
 2855TIP3    H219389   0.127   4.199   9.010
 2856TIP3   OH219390  -0.019   4.451   9.062
 2856TIP3    H119391   0.036   4.439   8.983
 2856TIP3    H219392   0.034   4.521   9.105
 2857TIP3   OH219393   1.706   4.074   9.721
 2857TIP3    H119394   1.628   4.099   9.777
 2857TIP3    H219395   1.665   4.075   9.632
 2858TIP3   OH219396   1.770   4.019   8.161
 2858TIP3    H119397   1.807   3.993   8.074
 2858TIP3    H219398   1.827   4.096   8.184
 2859TIP3   OH219399  -0.052   4.021   8.454
 2859TIP3    H119400  -0.143   4.053   8.477
 2859TIP3    H219401  -0.020   4.100   8.405
 2860TIP3   OH219402  -0.017   3.905   9.310
 2860TIP3    H119403  -0.030   3.981   9.370
 2860TIP3    H219404  -0.037   3.946   9.224
 2861TIP3   OH219405   1.611   3.865   9.443
 2861TIP3    H119406   1.519   3.878   9.415
 2861TIP3    H219407   1.628   3.774   9.411
 2862TIP3   OH219408   0.916   4.025   8.945
 2862TIP3    H119409   0.840   3.964   8.952
 2862TIP3    H219410   0.970   3.981   8.878
 2863TIP3   OH219411   1.478   3.842   8.873
 2863TIP3    H119412   1.552   3.891   8.831
 2863TIP3    H219413   1.403   3.882   8.824
 2864TIP3   OH219414   1.660   3.945   8.713
 2864TIP3    H119415   1.713   3.874   8.667
 2864TIP3    H219416   1.726   4.017   8.724
 2865TIP3   OH219417   0.233   3.858   8.721
 2865TIP3    H119418   0.142   3.857   8.682
 2865TIP3    H219419   0.264   3.766   8.705
 2866TIP3   OH219420   0.121   3.865   8.323
 2866TIP3    H119421   0.150   3.931   8.255
 2866TIP3    H219422   0.056   3.919   8.374
 2867TIP3   OH219423   0.610   3.882   8.670
 2867TIP3    H119424   0.706   3.873   8.665
 2867TIP3    H219425   0.596   3.919   8.758
 2868TIP3   OH219426   1.233   3.912   8.732
 2868TIP3    H119427   1.190   3.887   8.648
 2868TIP3    H219428   1.196   3.842   8.790
 2869TIP3   OH219429   1.360   3.911   8.363
 2869TIP3    H119430   1.276   3.959   8.351
 2869TIP3    H219431   1.330   3.837   8.420
 2870TIP3   OH219432   0.243   4.007   8.139
 2870TIP3    H119433   0.334   3.985   8.115
 2870TIP3    H219434   0.257   4.080   8.202
 2871TIP3   OH219435   0.791   4.104   8.363
 2871TIP3    H119436   0.829   4.042   8.428
 2871TIP3    H219437   0.797   4.189   8.412
 2872TIP3   OH219438   0.161   3.962   9.582
 2872TIP3    H119439   0.146   3.874   9.626
 2872TIP3    H219440   0.219   4.002   9.648
 2873TIP3   OH219441   0.438   3.934   9.811
 2873TIP3    H119442   0.494   3.886   9.747
 2873TIP3    H219443   0.396   3.862   9.859
 2874TIP3   OH219444   1.246   3.778   9.856
 2874TIP3    H119445   1.239   3.848   9.925
 2874TIP3    H219446   1.325   3.805   9.806
 2875TIP3   OH219447   3.015   4.849   8.665
 2875TIP3    H119448   3.001   4.945   8.671
 2875TIP3    H219449   2.945   4.823   8.603
 2876TIP3   OH219450   2.876   4.744   9.015
 2876TIP3    H119451   2.886   4.700   9.102
 2876TIP3    H219452   2.822   4.679   8.963
 2877TIP3   OH219453   3.257   5.035   8.862
 2877TIP3    H119454   3.242   4.956   8.917
 2877TIP3    H219455   3.309   5.091   8.921
 2878TIP3   OH219456   2.230   5.105   9.097
 2878TIP3    H119457   2.188   5.020   9.068
 2878TIP3    H219458   2.313   5.104   9.044
 2879TIP3   OH219459   1.891   4.463   8.546
 2879TIP3    H119460   1.878   4.559   8.554
 2879TIP3    H219461   1.810   4.435   8.499
 2880TIP3   OH219462   1.917   4.796   8.804
 2880TIP3    H119463   1.929   4.702   8.828
 2880TIP3    H219464   2.001   4.832   8.842
 2881TIP3   OH219465   2.703   4.949   9.073
 2881TIP3    H119466   2.766   4.883   9.038
 2881TIP3    H219467   2.761   4.997   9.136
 2882TIP3   OH219468   3.564   4.115   9.107
 2882TIP3    H119469   3.577   4.175   9.184
 2882TIP3    H219470   3.644   4.138   9.058
 2883TIP3   OH219471   3.062   4.443   9.128
 2883TIP3    H119472   3.067   4.347   9.146
 2883TIP3    H219473   3.039   4.436   9.032
 2884TIP3   OH219474   2.382   4.174   8.766
 2884TIP3    H119475   2.368   4.266   8.736
 2884TIP3    H219476   2.311   4.131   8.714
 2885TIP3   OH219477   3.104   4.260   8.705
 2885TIP3    H119478   3.163   4.214   8.768
 2885TIP3    H219479   3.167   4.310   8.651
 2886TIP3   OH219480   1.975   4.522   8.859
 2886TIP3    H119481   2.049   4.498   8.918
 2886TIP3    H219482   1.998   4.464   8.784
 2887TIP3   OH219483   2.492   4.625   8.824
 2887TIP3    H119484   2.583   4.592   8.839
 2887TIP3    H219485   2.446   4.545   8.792
 2888TIP3   OH219486   3.598   4.271   9.336
 2888TIP3    H119487   3.564   4.357   9.302
 2888TIP3    H219488   3.562   4.271   9.428
 2889TIP3   OH219489   2.242   4.113   9.193
 2889TIP3    H119490   2.210   4.164   9.116
 2889TIP3    H219491   2.197   4.164   9.264
 2890TIP3   OH219492   2.938   5.108   8.545
 2890TIP3    H119493   2.925   5.080   8.452
 2890TIP3    H219494   2.908   5.200   8.541
 2891TIP3   OH219495   2.442   4.856   9.202
 2891TIP3    H119496   2.396   4.925   9.253
 2891TIP3    H219497   2.500   4.912   9.146
 2892TIP3   OH219498   3.335   4.201   8.855
 2892TIP3    H119499   3.396   4.128   8.873
 2892TIP3    H219500   3.375   4.273   8.908
 2893TIP3   OH219501   2.194   4.310   9.007
 2893TIP3    H119502   2.252   4.377   9.048
 2893TIP3    H219503   2.238   4.294   8.922
 2894TIP3   OH219504   2.344   5.067   9.343
 2894TIP3    H119505   2.312   5.103   9.258
 2894TIP3    H219506   2.259   5.063   9.388
 2895TIP3   OH219507   1.941   5.043   8.401
 2895TIP3    H119508   1.888   5.054   8.319
 2895TIP3    H219509   1.989   5.128   8.393
 2896TIP3   OH219510   3.245   5.154   9.168
 2896TIP3    H119511   3.175   5.171   9.104
 2896TIP3    H219512   3.312   5.219   9.144
 2897TIP3   OH219513   3.291   4.069   9.199
 2897TIP3    H119514   3.234   4.124   9.142
 2897TIP3    H219515   3.379   4.087   9.162
 2898TIP3   OH219516   2.588   3.842   9.007
 2898TIP3    H119517   2.558   3.759   8.968
 2898TIP3    H219518   2.501   3.889   9.011
 2899TIP3   OH219519   3.220   5.183   8.569
 2899TIP3    H119520   3.216   5.110   8.503
 2899TIP3    H219521   3.225   5.128   8.648
 2900TIP3   OH219522   3.406   5.062   9.441
 2900TIP3    H119523   3.418   4.988   9.377
 2900TIP3    H219524   3.337   5.110   9.390
 2901TIP3   OH219525   2.857   4.728   8.415
 2901TIP3    H119526   2.795   4.784   8.366
 2901TIP3    H219527   2.935   4.724   8.355
 2902TIP3   OH219528   2.884   4.594   8.128
 2902TIP3    H119529   2.973   4.631   8.146
 2902TIP3    H219530   2.904   4.501   8.112
 2903TIP3   OH219531   3.611   4.696   9.207
 2903TIP3    H119532   3.538   4.761   9.215
 2903TIP3    H219533   3.671   4.744   9.145
 2904TIP3   OH219534   3.204   4.697   8.545
 2904TIP3    H119535   3.139   4.743   8.603
 2904TIP3    H219536   3.284   4.693   8.603
 2905TIP3   OH219537   3.234   4.594   9.412
 2905TIP3    H119538   3.215   4.684   9.443
 2905TIP3    H219539   3.157   4.579   9.356
 2906TIP3   OH219540   2.333   4.795   8.683
 2906TIP3    H119541   2.333   4.754   8.594
 2906TIP3    H219542   2.384   4.733   8.739
 2907TIP3   OH219543   2.471   5.070   8.961
 2907TIP3    H119544   2.467   5.129   8.883
 2907TIP3    H219545   2.560   5.033   8.955
 2908TIP3   OH219546   2.361   4.659   9.047
 2908TIP3    H119547   2.406   4.670   8.960
 2908TIP3    H219548   2.399   4.732   9.102
 2909TIP3   OH219549   2.470   5.133   9.575
 2909TIP3    H119550   2.401   5.195   9.603
 2909TIP3    H219551   2.437   5.105   9.487
 2910TIP3   OH219552   3.089   4.689   8.305
 2910TIP3    H119553   3.135   4.694   8.392
 2910TIP3    H219554   3.146   4.740   8.242
 2911TIP3   OH219555   3.526   3.835   8.282
 2911TIP3    H119556   3.429   3.849   8.281
 2911TIP3    H219557   3.561   3.923   8.261
 2912TIP3   OH219558   2.262   4.689   8.416
 2912TIP3    H119559   2.211   4.772   8.411
 2912TIP3    H219560   2.217   4.633   8.350
 2913TIP3   OH219561   2.349   3.943   9.030
 2913TIP3    H119562   2.263   3.951   8.984
 2913TIP3    H219563   2.338   4.016   9.096
 2914TIP3   OH219564   2.803   3.856   9.427
 2914TIP3    H119565   2.811   3.922   9.498
 2914TIP3    H219566   2.715   3.878   9.389
 2915TIP3   OH219567   3.147   4.334   9.484
 2915TIP3    H119568   3.118   4.332   9.577
 2915TIP3    H219569   3.184   4.424   9.478
 2916TIP3   OH219570   3.191   4.799   8.096
 2916TIP3    H119571   3.159   4.820   8.008
 2916TIP3    H219572   3.262   4.866   8.105
 2917TIP3   OH219573   2.818   4.185   8.148
 2917TIP3    H119574   2.756   4.176   8.222
 2917TIP3    H219575   2.773   4.132   8.080
 2918TIP3   OH219576   2.392   4.425   9.168
 2918TIP3    H119577   2.318   4.434   9.232
 2918TIP3    H219578   2.398   4.519   9.138
 2919TIP3   OH219579   2.333   4.432   8.689
 2919TIP3    H119580   2.253   4.466   8.647
 2919TIP3    H219581   2.390   4.428   8.608
 2920TIP3   OH219582   2.939   4.510   8.553
 2920TIP3    H119583   2.910   4.594   8.511
 2920TIP3    H219584   2.999   4.477   8.481
 2921TIP3   OH219585   2.872   4.470   9.631
 2921TIP3    H119586   2.816   4.413   9.688
 2921TIP3    H219587   2.943   4.494   9.694
 2922TIP3   OH219588   3.020   4.485   8.862
 2922TIP3    H119589   3.001   4.559   8.801
 2922TIP3    H219590   3.028   4.411   8.799
 2923TIP3   OH219591   2.456   4.251   8.055
 2923TIP3    H119592   2.430   4.191   8.127
 2923TIP3    H219593   2.420   4.335   8.085
 2924TIP3   OH219594   1.792   4.178   8.740
 2924TIP3    H119595   1.859   4.173   8.812
 2924TIP3    H219596   1.848   4.194   8.663
 2925TIP3   OH219597   1.914   4.223   8.245
 2925TIP3    H119598   1.994   4.276   8.226
 2925TIP3    H219599   1.854   4.296   8.270
 2926TIP3   OH219600   2.916   4.629   9.264
 2926TIP3    H119601   2.985   4.574   9.222
 2926TIP3    H219602   2.863   4.559   9.309
 2927TIP3   OH219603   2.660   4.213   8.774
 2927TIP3    H119604   2.564   4.205   8.791
 2927TIP3    H219605   2.697   4.155   8.844
 2928TIP3   OH219606   2.053   4.299   8.679
 2928TIP3    H119607   2.021   4.358   8.607
 2928TIP3    H219608   2.107   4.232   8.632
 2929TIP3   OH219609   2.441   4.425   8.441
 2929TIP3    H119610   2.538   4.426   8.432
 2929TIP3    H219611   2.413   4.487   8.373
 2930TIP3   OH219612   3.068   4.177   9.059
 2930TIP3    H119613   3.015   4.157   9.139
 2930TIP3    H219614   3.064   4.095   9.008
 2931TIP3   OH219615   2.338   4.546   8.153
 2931TIP3    H119616   2.322   4.537   8.058
 2931TIP3    H219617   2.433   4.565   8.160
 2932TIP3   OH219618   2.742   4.529   8.916
 2932TIP3    H119619   2.811   4.472   8.878
 2932TIP3    H219620   2.711   4.472   8.988
 2933TIP3   OH219621   2.203   4.094   8.581
 2933TIP3    H119622   2.148   4.032   8.633
 2933TIP3    H219623   2.251   4.031   8.524
 2934TIP3   OH219624   2.636   4.279   9.145
 2934TIP3    H119625   2.556   4.336   9.149
 2934TIP3    H219626   2.689   4.321   9.215
 2935TIP3   OH219627   2.688   4.976   8.383
 2935TIP3    H119628   2.611   4.923   8.354
 2935TIP3    H219629   2.660   4.998   8.475
 2936TIP3   OH219630   3.424   4.879   9.229
 2936TIP3    H119631   3.457   4.952   9.171
 2936TIP3    H219632   3.339   4.860   9.185
 2937TIP3   OH219633   3.081   4.203   8.228
 2937TIP3    H119634   2.988   4.201   8.195
 2937TIP3    H219635   3.094   4.296   8.255
 2938TIP3   OH219636   2.788   4.972   9.503
 2938TIP3    H119637   2.708   4.929   9.469
 2938TIP3    H219638   2.770   5.067   9.493
 2939TIP3   OH219639   3.121   4.429   8.361
 2939TIP3    H119640   3.200   4.432   8.420
 2939TIP3    H219641   3.120   4.519   8.324
 2940TIP3   OH219642   2.176   4.861   8.952
 2940TIP3    H119643   2.237   4.882   8.880
 2940TIP3    H219644   2.216   4.783   8.995
 2941TIP3   OH219645   2.907   5.108   8.268
 2941TIP3    H119646   2.878   5.127   8.177
 2941TIP3    H219647   2.831   5.056   8.301
 2942TIP3   OH219648   3.054   5.175   9.504
 2942TIP3    H119649   3.013   5.244   9.449
 2942TIP3    H219650   3.049   5.222   9.591
 2943TIP3   OH219651   3.628   4.428   8.322
 2943TIP3    H119652   3.554   4.413   8.258
 2943TIP3    H219653   3.651   4.520   8.297
 2944TIP3   OH219654   3.629   5.027   9.596
 2944TIP3    H119655   3.536   5.036   9.569
 2944TIP3    H219656   3.672   5.011   9.509
 2945TIP3   OH219657   3.186   4.798   9.017
 2945TIP3    H119658   3.100   4.811   8.975
 2945TIP3    H219659   3.207   4.706   8.990
 2946TIP3   OH219660   2.369  -0.003   8.735
 2946TIP3    H119661   2.433   0.067   8.708
 2946TIP3    H219662   2.316  -0.011   8.656
 2947TIP3   OH219663   2.046   4.742   8.081
 2947TIP3    H119664   2.112   4.787   8.138
 2947TIP3    H219665   1.968   4.791   8.109
 2948TIP3   OH219666   2.580   5.035   8.633
 2948TIP3    H119667   2.507   5.097   8.637
 2948TIP3    H219668   2.558   4.969   8.701
 2949TIP3   OH219669   2.932   5.017   9.234
 2949TIP3    H119670   2.962   4.998   9.325
 2949TIP3    H219671   2.994   4.964   9.181
 2950TIP3   OH219672   3.203   5.101   8.101
 2950TIP3    H119673   3.243   5.184   8.130
 2950TIP3    H219674   3.139   5.086   8.172
 2951TIP3   OH219675   2.083   4.230   9.375
 2951TIP3    H119676   2.007   4.287   9.355
 2951TIP3    H219677   2.047   4.166   9.439
 2952TIP3   OH219678   3.273   4.960   8.402
 2952TIP3    H119679   3.245   4.869   8.420
 2952TIP3    H219680   3.367   4.948   8.383
 2953TIP3   OH219681   2.491   5.236   8.325
 2953TIP3    H119682   2.543   5.155   8.318
 2953TIP3    H219683   2.561   5.304   8.324
 2954TIP3   OH219684   2.146   4.920   8.253
 2954TIP3    H119685   2.073   4.956   8.308
 2954TIP3    H219686   2.189   5.003   8.222
 2955TIP3   OH219687   2.965   4.182   9.323
 2955TIP3    H119688   3.026   4.223   9.387
 2955TIP3    H219689   2.923   4.119   9.382
 2956TIP3   OH219690   2.972   4.148   8.484
 2956TIP3    H119691   3.022   4.179   8.406
 2956TIP3    H219692   3.018   4.193   8.558
 2957TIP3   OH219693   2.736   4.322   8.539
 2957TIP3    H119694   2.807   4.387   8.555
 2957TIP3    H219695   2.722   4.278   8.627
 2958TIP3   OH219696   2.800   4.411   9.374
 2958TIP3    H119697   2.801   4.445   9.466
 2958TIP3    H219698   2.879   4.353   9.376
 2959TIP3   OH219699   2.792   3.977   8.588
 2959TIP3    H119700   2.753   4.036   8.657
 2959TIP3    H219701   2.866   4.034   8.554
 2960TIP3   OH219702   2.367   4.110   8.295
 2960TIP3    H119703   2.353   4.184   8.355
 2960TIP3    H219704   2.455   4.078   8.326
 2961TIP3   OH219705   3.417   4.240   9.531
 2961TIP3    H119706   3.325   4.252   9.561
 2961TIP3    H219707   3.400   4.208   9.441
 2962TIP3   OH219708   3.271   4.563   8.924
 2962TIP3    H119709   3.186   4.514   8.921
 2962TIP3    H219710   3.328   4.499   8.972
 2963TIP3   OH219711   2.230   5.160   8.137
 2963TIP3    H119712   2.274   5.205   8.210
 2963TIP3    H219713   2.303   5.110   8.095
 2964TIP3   OH219714   2.034   4.471   8.146
 2964TIP3    H119715   2.085   4.552   8.125
 2964TIP3    H219716   1.944   4.506   8.148
 2965TIP3   OH219717   2.092   3.931   8.945
 2965TIP3    H119718   2.090   3.900   8.851
 2965TIP3    H219719   2.072   3.846   8.988
 2966TIP3   OH219720   2.456   4.997   8.108
 2966TIP3    H119721   2.457   4.927   8.177
 2966TIP3    H219722   2.499   4.953   8.035
 2967TIP3   OH219723   3.163   4.933   9.458
 2967TIP3    H119724   3.242   4.957   9.511
 2967TIP3    H219725   3.101   5.000   9.493
 2968TIP3   OH219726   2.491   4.804   8.292
 2968TIP3    H119727   2.412   4.766   8.336
 2968TIP3    H219728   2.537   4.721   8.266
 2969TIP3   OH219729   2.614   4.583   8.193
 2969TIP3    H119730   2.605   4.591   8.095
 2969TIP3    H219731   2.712   4.575   8.197
 2970TIP3   OH219732   3.455   4.866   8.094
 2970TIP3    H119733   3.538   4.847   8.047
 2970TIP3    H219734   3.482   4.940   8.151
 2971TIP3   OH219735   2.485   4.336   9.531
 2971TIP3    H119736   2.481   4.259   9.472
 2971TIP3    H219737   2.465   4.408   9.470
 2972TIP3   OH219738   2.495   4.142   9.322
 2972TIP3    H119739   2.562   4.176   9.258
 2972TIP3    H219740   2.412   4.165   9.276
 2973TIP3   OH219741   2.631   4.766   9.390
 2973TIP3    H119742   2.709   4.764   9.334
 2973TIP3    H219743   2.560   4.786   9.327
 2974TIP3   OH219744   2.553   3.875   9.329
 2974TIP3    H119745   2.519   3.967   9.340
 2974TIP3    H219746   2.480   3.835   9.278
 2975TIP3   OH219747   2.687   4.286   9.744
 2975TIP3    H119748   2.630   4.312   9.819
 2975TIP3    H219749   2.626   4.296   9.669
 2976TIP3   OH219750   2.948   4.159   9.644
 2976TIP3    H119751   2.860   4.170   9.682
 2976TIP3    H219752   3.004   4.182   9.720
 2977TIP3   OH219753   2.084   4.229   9.748
 2977TIP3    H119754   2.107   4.141   9.716
 2977TIP3    H219755   2.142   4.239   9.826
 2978TIP3   OH219756   2.567   3.826   9.607
 2978TIP3    H119757   2.619   3.746   9.622
 2978TIP3    H219758   2.566   3.832   9.509
 2979TIP3   OH219759   2.569   4.009   9.867
 2979TIP3    H119760   2.567   3.959   9.784
 2979TIP3    H219761   2.532   4.094   9.840
 2980TIP3   OH219762   1.899   5.079   8.137
 2980TIP3    H119763   1.975   5.135   8.162
 2980TIP3    H219764   1.899   5.091   8.040
 2981TIP3   OH219765   3.599   4.919   8.383
 2981TIP3    H119766   3.632   4.998   8.426
 2981TIP3    H219767   3.604   4.853   8.456
 2982TIP3   OH219768   3.611   4.746   8.594
 2982TIP3    H119769   3.528   4.706   8.627
 2982TIP3    H219770   3.664   4.740   8.676
 2983TIP3   OH219771   3.547   5.059   9.063
 2983TIP3    H119772   3.601   4.985   9.031
 2983TIP3    H219773   3.612   5.130   9.073
 2984TIP3   OH219774   3.645   4.690   8.231
 2984TIP3    H119775   3.552   4.692   8.202
 2984TIP3    H219776   3.646   4.777   8.277
 2985TIP3   OH219777   3.436   4.411   8.132
 2985TIP3    H119778   3.434   4.460   8.046
 2985TIP3    H219779   3.438   4.317   8.104
 2986TIP3   OH219780   3.403   4.611   8.695
 2986TIP3    H119781   3.393   4.519   8.667
 2986TIP3    H219782   3.371   4.604   8.788
 2987TIP3   OH219783   3.414   4.136   8.091
 2987TIP3    H119784   3.502   4.103   8.117
 2987TIP3    H219785   3.360   4.094   8.159
 2988TIP3   OH219786   3.353   4.379   8.502
 2988TIP3    H119787   3.386   4.286   8.500
 2988TIP3    H219788   3.419   4.419   8.443
 2989TIP3   OH219789   3.441   4.383   9.032
 2989TIP3    H119790   3.538   4.406   9.027
 2989TIP3    H219791   3.426   4.404   9.127
 2990TIP3   OH219792   3.452   4.486   9.279
 2990TIP3    H119793   3.369   4.516   9.322
 2990TIP3    H219794   3.496   4.570   9.256
 2991TIP3   OH219795   1.859   4.284   9.610
 2991TIP3    H119796   1.949   4.278   9.652
 2991TIP3    H219797   1.821   4.206   9.654
 2992TIP3   OH219798   3.438   4.115   8.458
 2992TIP3    H119799   3.452   4.092   8.552
 2992TIP3    H219800   3.387   4.035   8.430
 2993TIP3   OH219801   1.925   4.157   8.988
 2993TIP3    H119802   1.986   4.082   8.973
 2993TIP3    H219803   1.988   4.230   9.001
 2994TIP3   OH219804   1.793   4.483   9.048
 2994TIP3    H119805   1.861   4.499   8.978
 2994TIP3    H219806   1.791   4.569   9.095
 2995TIP3   OH219807   3.657   4.045   8.171
 2995TIP3    H119808   3.696   4.003   8.091
 2995TIP3    H219809   3.722   4.115   8.194
 2996TIP3   OH219810   1.801   4.097   8.469
 2996TIP3    H119811   1.759   4.014   8.443
 2996TIP3    H219812   1.846   4.127   8.388
 2997TIP3   OH219813   1.825   3.938   9.290
 2997TIP3    H119814   1.761   3.902   9.353
 2997TIP3    H219815   1.774   4.010   9.249
 2998TIP3   OH219816   3.524   3.862   9.471
 2998TIP3    H119817   3.432   3.869   9.439
 2998TIP3    H219818   3.552   3.777   9.432
 2999TIP3   OH219819   2.780   3.974   8.882
 2999TIP3    H119820   2.705   3.925   8.924
 2999TIP3    H219821   2.836   3.900   8.855
 3000TIP3   OH219822   3.382   3.834   8.893
 3000TIP3    H119823   3.445   3.889   8.842
 3000TIP3    H219824   3.295   3.872   8.864
 3001TIP3   OH219825   3.528   3.983   8.725
 3001TIP3    H119826   3.591   3.921   8.682
 3001TIP3    H219827   3.588   4.062   8.734
 3002TIP3   OH219828   2.084   3.850   8.682
 3002TIP3    H119829   2.001   3.838   8.631
 3002TIP3    H219830   2.122   3.760   8.675
 3003TIP3   OH219831   2.002   3.854   8.281
 3003TIP3    H119832   2.029   3.926   8.218
 3003TIP3    H219833   1.918   3.887   8.318
 3004TIP3   OH219834   2.509   3.860   8.704
 3004TIP3    H119835   2.580   3.855   8.639
 3004TIP3    H219836   2.499   3.956   8.719
 3005TIP3   OH219837   3.122   3.905   8.806
 3005TIP3    H119838   3.061   3.939   8.739
 3005TIP3    H219839   3.073   3.824   8.836
 3006TIP3   OH219840   3.295   3.890   8.392
 3006TIP3    H119841   3.207   3.925   8.373
 3006TIP3    H219842   3.271   3.824   8.460
 3007TIP3   OH219843   2.136   4.015   8.107
 3007TIP3    H119844   2.210   3.968   8.065
 3007TIP3    H219845   2.183   4.073   8.169
 3008TIP3   OH219846   2.641   4.104   8.370
 3008TIP3    H119847   2.693   4.049   8.431
 3008TIP3    H219848   2.666   4.191   8.407
 3009TIP3   OH219849   2.069   3.948   9.640
 3009TIP3    H119850   2.003   3.876   9.639
 3009TIP3    H219851   2.148   3.904   9.678
 3010TIP3   OH219852   2.276   3.853   9.801
 3010TIP3    H119853   2.353   3.855   9.743
 3010TIP3    H219854   2.312   3.810   9.880
 3011TIP3   OH219855   4.885   4.862   8.648
 3011TIP3    H119856   4.824   4.898   8.714
 3011TIP3    H219857   4.826   4.813   8.588
 3012TIP3   OH219858   4.747   4.750   9.036
 3012TIP3    H119859   4.738   4.684   9.107
 3012TIP3    H219860   4.736   4.696   8.956
 3013TIP3   OH219861   3.994   4.696   9.187
 3013TIP3    H119862   3.990   4.626   9.253
 3013TIP3    H219863   4.086   4.727   9.191
 3014TIP3   OH219864   4.059   5.100   9.026
 3014TIP3    H119865   4.027   5.017   8.986
 3014TIP3    H219866   4.155   5.094   9.003
 3015TIP3   OH219867   3.772   4.498   8.547
 3015TIP3    H119868   3.752   4.594   8.546
 3015TIP3    H219869   3.706   4.461   8.485
 3016TIP3   OH219870   3.825   4.757   8.799
 3016TIP3    H119871   3.846   4.661   8.811
 3016TIP3    H219872   3.914   4.796   8.793
 3017TIP3   OH219873   4.588   5.041   9.135
 3017TIP3    H119874   4.603   5.011   9.045
 3017TIP3    H219875   4.675   5.016   9.175
 3018TIP3   OH219876   4.905   4.393   9.105
 3018TIP3    H119877   5.001   4.380   9.087
 3018TIP3    H219878   4.882   4.437   9.020
 3019TIP3   OH219879   4.247   4.163   8.779
 3019TIP3    H119880   4.255   4.255   8.749
 3019TIP3    H219881   4.193   4.126   8.706
 3020TIP3   OH219882   4.959   4.274   8.674
 3020TIP3    H119883   5.027   4.221   8.722
 3020TIP3    H219884   5.014   4.332   8.619
 3021TIP3   OH219885   3.884   4.496   8.859
 3021TIP3    H119886   3.951   4.466   8.923
 3021TIP3    H219887   3.903   4.434   8.785
 3022TIP3   OH219888   4.400   4.600   8.856
 3022TIP3    H119889   4.487   4.558   8.856
 3022TIP3    H219890   4.345   4.533   8.809
 3023TIP3   OH219891   4.110   4.102   9.180
 3023TIP3    H119892   4.099   4.150   9.095
 3023TIP3    H219893   4.066   4.168   9.237
 3024TIP3   OH219894   4.787   5.115   8.562
 3024TIP3    H119895   4.787   5.071   8.474
 3024TIP3    H219896   4.700   5.088   8.596
 3025TIP3   OH219897   4.328   4.902   9.198
 3025TIP3    H119898   4.276   4.975   9.237
 3025TIP3    H219899   4.397   4.955   9.154
 3026TIP3   OH219900   4.088   4.303   8.991
 3026TIP3    H119901   4.142   4.370   9.038
 3026TIP3    H219902   4.141   4.290   8.910
 3027TIP3   OH219903   4.191   5.114   9.300
 3027TIP3    H119904   4.130   5.141   9.231
 3027TIP3    H219905   4.131   5.074   9.369
 3028TIP3   OH219906   3.860   5.077   8.419
 3028TIP3    H119907   3.798   5.049   8.349
 3028TIP3    H219908   3.885   5.161   8.375
 3029TIP3   OH219909   4.499   3.849   8.924
 3029TIP3    H119910   4.499   3.751   8.935
 3029TIP3    H219911   4.429   3.871   8.989
 3030TIP3   OH219912   4.748   4.736   8.435
 3030TIP3    H119913   4.682   4.783   8.382
 3030TIP3    H219914   4.831   4.746   8.379
 3031TIP3   OH219915   4.775   4.578   8.133
 3031TIP3    H119916   4.853   4.625   8.165
 3031TIP3    H219917   4.816   4.508   8.078
 3032TIP3   OH219918   5.130   4.828   8.529
 3032TIP3    H119919   5.039   4.825   8.566
 3032TIP3    H219920   5.173   4.889   8.590
 3033TIP3   OH219921   5.023   4.529   9.430
 3033TIP3    H119922   4.988   4.601   9.483
 3033TIP3    H219923   5.017   4.564   9.340
 3034TIP3   OH219924   4.293   4.782   8.682
 3034TIP3    H119925   4.256   4.744   8.599
 3034TIP3    H219926   4.325   4.705   8.733
 3035TIP3   OH219927   4.327   5.089   8.947
 3035TIP3    H119928   4.335   5.143   8.865
 3035TIP3    H219929   4.369   5.146   9.012
 3036TIP3   OH219930   4.251   4.666   9.063
 3036TIP3    H119931   4.309   4.654   8.984
 3036TIP3    H219932   4.297   4.741   9.105
 3037TIP3   OH219933   4.343   5.170   9.548
 3037TIP3    H119934   4.384   5.247   9.593
 3037TIP3    H219935   4.265   5.209   9.505
 3038TIP3   OH219936   4.988   4.749   8.308
 3038TIP3    H119937   5.062   4.784   8.361
 3038TIP3    H219938   5.015   4.772   8.216
 3039TIP3   OH219939   4.059   4.617   9.489
 3039TIP3    H119940   4.098   4.600   9.577
 3039TIP3    H219941   4.057   4.713   9.498
 3040TIP3   OH219942   4.151   4.694   8.445
 3040TIP3    H119943   4.115   4.783   8.433
 3040TIP3    H219944   4.073   4.643   8.427
 3041TIP3   OH219945   3.756   4.981   9.351
 3041TIP3    H119946   3.745   4.979   9.255
 3041TIP3    H219947   3.778   4.887   9.370
 3042TIP3   OH219948   4.003   5.005   9.449
 3042TIP3    H119949   3.985   4.996   9.545
 3042TIP3    H219950   3.912   5.012   9.415
 3043TIP3   OH219951   4.271   3.928   9.036
 3043TIP3    H119952   4.270   3.948   8.940
 3043TIP3    H219953   4.231   4.010   9.070
 3044TIP3   OH219954   4.751   3.885   9.393
 3044TIP3    H119955   4.785   3.873   9.484
 3044TIP3    H219956   4.653   3.888   9.406
 3045TIP3   OH219957   5.044   4.247   9.461
 3045TIP3    H119958   5.033   4.248   9.558
 3045TIP3    H219959   5.040   4.342   9.441
 3046TIP3   OH219960   4.699   4.140   8.078
 3046TIP3    H119961   4.639   4.136   8.155
 3046TIP3    H219962   4.665   4.067   8.025
 3047TIP3   OH219963   4.234   4.426   9.181
 3047TIP3    H119964   4.145   4.428   9.225
 3047TIP3    H219965   4.241   4.517   9.144
 3048TIP3   OH219966   4.252   4.424   8.707
 3048TIP3    H119967   4.176   4.459   8.657
 3048TIP3    H219968   4.311   4.405   8.630
 3049TIP3   OH219969   4.826   4.524   8.567
 3049TIP3    H119970   4.777   4.597   8.521
 3049TIP3    H219971   4.886   4.493   8.496
 3050TIP3   OH219972   4.728   4.563   9.661
 3050TIP3    H119973   4.677   4.517   9.730
 3050TIP3    H219974   4.813   4.518   9.668
 3051TIP3   OH219975   4.886   4.479   8.833
 3051TIP3    H119976   4.895   4.544   8.761
 3051TIP3    H219977   4.909   4.399   8.781
 3052TIP3   OH219978   3.981   4.424   9.302
 3052TIP3    H119979   4.021   4.488   9.364
 3052TIP3    H219980   3.921   4.378   9.362
 3053TIP3   OH219981   4.332   4.248   8.028
 3053TIP3    H119982   4.339   4.179   8.097
 3053TIP3    H219983   4.294   4.319   8.083
 3054TIP3   OH219984   3.698   4.183   8.751
 3054TIP3    H119985   3.737   4.233   8.824
 3054TIP3    H219986   3.756   4.205   8.676
 3055TIP3   OH219987   3.827   4.223   8.264
 3055TIP3    H119988   3.892   4.272   8.210
 3055TIP3    H219989   3.768   4.298   8.285
 3056TIP3   OH219990   4.804   4.595   9.262
 3056TIP3    H119991   4.875   4.553   9.212
 3056TIP3    H219992   4.811   4.555   9.351
 3057TIP3   OH219993   4.565   4.234   8.789
 3057TIP3    H119994   4.473   4.204   8.798
 3057TIP3    H219995   4.616   4.158   8.826
 3058TIP3   OH219996   3.936   4.301   8.636
 3058TIP3    H119997   3.881   4.351   8.572
 3058TIP3    H219998   3.969   4.228   8.580
 3059TIP3   OH219999   4.359   4.381   8.470
 3059TIP3    H120000   4.457   4.375   8.475
 3059TIP3    H220001   4.343   4.426   8.386
 3060TIP3   OH220002   5.016   4.061   9.095
 3060TIP3    H120003   4.934   4.098   9.129
 3060TIP3    H220004   4.994   4.031   9.005
 3061TIP3   OH220005   4.211   4.513   8.143
 3061TIP3    H120006   4.209   4.508   8.046
 3061TIP3    H220007   4.306   4.522   8.162
 3062TIP3   OH220008   4.025   4.992   9.715
 3062TIP3    H120009   4.110   5.039   9.708
 3062TIP3    H220010   4.054   4.919   9.773
 3063TIP3   OH220011   4.661   4.432   8.962
 3063TIP3    H120012   4.725   4.452   8.890
 3063TIP3    H220013   4.618   4.355   8.922
 3064TIP3   OH220014   4.100   4.072   8.571
 3064TIP3    H120015   4.034   4.020   8.622
 3064TIP3    H220016   4.154   3.999   8.536
 3065TIP3   OH220017   4.476   4.349   9.270
 3065TIP3    H120018   4.399   4.393   9.228
 3065TIP3    H220019   4.495   4.413   9.341
 3066TIP3   OH220020   4.559   4.935   8.382
 3066TIP3    H120021   4.481   4.882   8.352
 3066TIP3    H220022   4.526   4.974   8.466
 3067TIP3   OH220023   4.883   4.198   8.258
 3067TIP3    H120024   4.811   4.169   8.197
 3067TIP3    H220025   4.934   4.252   8.192
 3068TIP3   OH220026   4.736   5.008   9.526
 3068TIP3    H120027   4.655   4.964   9.498
 3068TIP3    H220028   4.718   5.099   9.495
 3069TIP3   OH220029   5.044   4.395   8.410
 3069TIP3    H120030   5.045   4.307   8.369
 3069TIP3    H220031   5.026   4.445   8.328
 3070TIP3   OH220032   4.091   4.852   8.909
 3070TIP3    H120033   4.170   4.893   8.869
 3070TIP3    H220034   4.129   4.793   8.977
 3071TIP3   OH220035   4.771   5.056   8.291
 3071TIP3    H120036   4.753   5.076   8.199
 3071TIP3    H220037   4.688   5.009   8.315
 3072TIP3   OH220038   3.755   4.728   9.446
 3072TIP3    H120039   3.768   4.650   9.500
 3072TIP3    H220040   3.704   4.691   9.372
 3073TIP3   OH220041   4.939   5.230   9.585
 3073TIP3    H120042   4.988   5.212   9.504
 3073TIP3    H220043   4.850   5.239   9.546
 3074TIP3   OH220044   5.023   4.819   9.118
 3074TIP3    H120045   4.971   4.817   9.036
 3074TIP3    H220046   5.114   4.827   9.082
 3075TIP3   OH220047   4.223   0.026   8.727
 3075TIP3    H120048   4.258   0.105   8.680
 3075TIP3    H220049   4.148   0.001   8.671
 3076TIP3   OH220050   3.927   4.755   8.051
 3076TIP3    H120051   3.986   4.820   8.095
 3076TIP3    H220052   3.858   4.748   8.119
 3077TIP3   OH220053   4.465   5.027   8.627
 3077TIP3    H120054   4.397   5.084   8.666
 3077TIP3    H220055   4.439   4.938   8.660
 3078TIP3   OH220056   4.823   4.964   9.250
 3078TIP3    H120057   4.813   4.925   9.338
 3078TIP3    H220058   4.876   4.895   9.205
 3079TIP3   OH220059   5.050   5.091   8.245
 3079TIP3    H120060   5.048   5.023   8.173
 3079TIP3    H220061   4.957   5.084   8.273
 3080TIP3   OH220062   4.411   5.213   8.295
 3080TIP3    H120063   4.393   5.157   8.372
 3080TIP3    H220064   4.421   5.301   8.333
 3081TIP3   OH220065   4.032   4.920   8.243
 3081TIP3    H120066   3.956   4.964   8.286
 3081TIP3    H220067   4.077   4.998   8.203
 3082TIP3   OH220068   4.792   4.142   9.323
 3082TIP3    H120069   4.868   4.164   9.380
 3082TIP3    H220070   4.780   4.047   9.345
 3083TIP3   OH220071   4.879   4.087   8.505
 3083TIP3    H120072   4.862   4.131   8.418
 3083TIP3    H220073   4.900   4.164   8.563
 3084TIP3   OH220074   4.638   4.316   8.515
 3084TIP3    H120075   4.718   4.367   8.536
 3084TIP3    H220076   4.634   4.259   8.594
 3085TIP3   OH220077   4.678   4.416   9.442
 3085TIP3    H120078   4.665   4.485   9.511
 3085TIP3    H220079   4.690   4.336   9.497
 3086TIP3   OH220080   4.644   3.979   8.571
 3086TIP3    H120081   4.643   4.009   8.664
 3086TIP3    H220082   4.738   4.000   8.548
 3087TIP3   OH220083   4.298   4.138   8.279
 3087TIP3    H120084   4.265   4.197   8.349
 3087TIP3    H220085   4.379   4.101   8.318
 3088TIP3   OH220086   4.119   5.153   8.139
 3088TIP3    H120087   4.165   5.200   8.210
 3088TIP3    H220088   4.190   5.103   8.093
 3089TIP3   OH220089   3.903   4.462   8.145
 3089TIP3    H120090   3.980   4.522   8.132
 3089TIP3    H220091   3.827   4.520   8.127
 3090TIP3   OH220092   3.975   3.917   8.934
 3090TIP3    H120093   3.985   3.909   8.836
 3090TIP3    H220094   3.923   3.835   8.946
 3091TIP3   OH220095   4.321   4.971   8.095
 3091TIP3    H120096   4.324   4.911   8.172
 3091TIP3    H220097   4.403   4.946   8.051
 3092TIP3   OH220098   4.992   4.886   9.551
 3092TIP3    H120099   5.040   4.942   9.488
 3092TIP3    H220100   4.903   4.927   9.550
 3093TIP3   OH220101   4.372   4.773   8.285
 3093TIP3    H120102   4.294   4.727   8.322
 3093TIP3    H220103   4.415   4.698   8.240
 3094TIP3   OH220104   4.353   4.577   9.456
 3094TIP3    H120105   4.314   4.635   9.524
 3094TIP3    H220106   4.394   4.641   9.394
 3095TIP3   OH220107   4.496   4.547   8.168
 3095TIP3    H120108   4.472   4.561   8.073
 3095TIP3    H220109   4.594   4.554   8.161
 3096TIP3   OH220110   4.351   4.326   9.547
 3096TIP3    H120111   4.316   4.260   9.487
 3096TIP3    H220112   4.355   4.410   9.495
 3097TIP3   OH220113   4.354   4.113   9.338
 3097TIP3    H120114   4.409   4.189   9.308
 3097TIP3    H220115   4.267   4.138   9.306
 3098TIP3   OH220116   4.494   4.707   9.269
 3098TIP3    H120117   4.575   4.759   9.275
 3098TIP3    H220118   4.427   4.776   9.251
 3099TIP3   OH220119   4.189   4.405   9.755
 3099TIP3    H120120   4.261   4.375   9.696
 3099TIP3    H220121   4.198   4.502   9.742
 3100TIP3   OH220122   4.486   3.873   9.400
 3100TIP3    H120123   4.454   3.960   9.368
 3100TIP3    H220124   4.452   3.810   9.334
 3101TIP3   OH220125   4.547   4.334   9.735
 3101TIP3    H120126   4.507   4.351   9.822
 3101TIP3    H220127   4.471   4.307   9.680
 3102TIP3   OH220128   4.798   4.225   9.665
 3102TIP3    H120129   4.713   4.254   9.704
 3102TIP3    H220130   4.812   4.140   9.709
 3103TIP3   OH220131   5.035   4.076   9.876
 3103TIP3    H120132   4.963   4.023   9.918
 3103TIP3    H220133   5.046   4.145   9.945
 3104TIP3   OH220134   4.502   3.890   9.673
 3104TIP3    H120135   4.545   3.803   9.661
 3104TIP3    H220136   4.478   3.904   9.579
 3105TIP3   OH220137   4.591   4.048   9.881
 3105TIP3    H120138   4.542   3.995   9.815
 3105TIP3    H220139   4.532   4.125   9.887
 3106TIP3   OH220140   3.801   5.073   8.143
 3106TIP3    H120141   3.882   5.126   8.146
 3106TIP3    H220142   3.779   5.084   8.049
 3107TIP3   OH220143   3.785   4.818   9.055
 3107TIP3    H120144   3.779   4.790   8.962
 3107TIP3    H220145   3.875   4.789   9.080
 3108TIP3   OH220146   3.788   4.332   9.617
 3108TIP3    H120147   3.808   4.316   9.711
 3108TIP3    H220148   3.693   4.346   9.619
 3109TIP3   OH220149   3.859   4.142   9.022
 3109TIP3    H120150   3.894   4.063   8.975
 3109TIP3    H220151   3.926   4.208   8.998
 3110TIP3   OH220152   3.689   4.472   9.041
 3110TIP3    H120153   3.748   4.475   8.963
 3110TIP3    H220154   3.733   4.533   9.102
 3111TIP3   OH220155   3.745   4.041   8.462
 3111TIP3    H120156   3.650   4.041   8.443
 3111TIP3    H220157   3.775   4.101   8.391
 3112TIP3   OH220158   3.732   3.932   9.299
 3112TIP3    H120159   3.662   3.906   9.363
 3112TIP3    H220160   3.687   4.003   9.248
 3113TIP3   OH220161   4.697   4.012   8.856
 3113TIP3    H120162   4.650   3.938   8.898
 3113TIP3    H220163   4.777   3.967   8.821
 3114TIP3   OH220164   3.950   3.848   8.673
 3114TIP3    H120165   3.864   3.837   8.626
 3114TIP3    H220166   3.995   3.763   8.650
 3115TIP3   OH220167   3.895   3.859   8.282
 3115TIP3    H120168   3.912   3.936   8.225
 3115TIP3    H220169   3.818   3.888   8.334
 3116TIP3   OH220170   4.360   3.865   8.686
 3116TIP3    H120171   4.427   3.877   8.616
 3116TIP3    H220172   4.414   3.881   8.765
 3117TIP3   OH220173   4.930   3.876   8.800
 3117TIP3    H120174   5.019   3.858   8.765
 3117TIP3    H220175   4.912   3.796   8.853
 3118TIP3   OH220176   4.029   4.036   8.107
 3118TIP3    H120177   4.097   3.977   8.072
 3118TIP3    H220178   4.078   4.097   8.164
 3119TIP3   OH220179   4.581   4.098   8.327
 3119TIP3    H120180   4.588   4.046   8.410
 3119TIP3    H220181   4.605   4.186   8.362
 3120TIP3   OH220182   5.074   3.784   9.872
 3120TIP3    H120183   5.041   3.778   9.963
 3120TIP3    H220184   5.090   3.880   9.864
 3121TIP3   OH220185   1.413   1.044   9.930
 3121TIP3    H120186   1.361   1.019   9.851
 3121TIP3    H220187   1.482   1.097   9.890
 3122TIP3   OH220188   0.460   1.189   9.854
 3122TIP3    H120189   0.529   1.168   9.918
 3122TIP3    H220190   0.485   1.281   9.832
 3123TIP3   OH220191   0.290   1.755   9.944
 3123TIP3    H120192   0.270   1.770  10.038
 3123TIP3    H220193   0.373   1.704   9.945
 3124TIP3   OH220194   2.428   0.390   9.959
 3124TIP3    H120195   2.481   0.418  10.036
 3124TIP3    H220196   2.411   0.472   9.910
 3125TIP3   OH220197   3.477   0.442   9.954
 3125TIP3    H120198   3.527   0.372  10.001
 3125TIP3    H220199   3.388   0.409   9.973
 3126TIP3   OH220200   4.733   1.676   9.866
 3126TIP3    H120201   4.688   1.623   9.933
 3126TIP3    H220202   4.801   1.613   9.832
 3127TIP3   OH220203   4.444   0.845   9.901
 3127TIP3    H120204   4.441   0.886   9.812
 3127TIP3    H220205   4.513   0.894   9.946
 3128TIP3   OH220206   0.235   3.636   9.993
 3128TIP3    H120207   0.163   3.575   9.969
 3128TIP3    H220208   0.313   3.581   9.983
 3129TIP3   OH220209   3.262   2.926   9.965
 3129TIP3    H120210   3.224   2.929   9.876
 3129TIP3    H220211   3.336   2.864   9.956
 3130TIP3   OH220212   4.080   3.633   9.907
 3130TIP3    H120213   4.119   3.722   9.908
 3130TIP3    H220214   4.147   3.577   9.949
 3131TIP3   OH220215   0.664   5.162   9.892
 3131TIP3    H120216   0.754   5.161   9.855
 3131TIP3    H220217   0.668   5.236   9.956
 3132TIP3   OH220218   1.509   4.437   9.908
 3132TIP3    H120219   1.575   4.424   9.839
 3132TIP3    H220220   1.473   4.347   9.912
 3133TIP3   OH220221   1.508   4.159   9.899
 3133TIP3    H120222   1.560   4.168   9.981
 3133TIP3    H220223   1.426   4.117   9.929
 3134TIP3   OH220224   2.527   5.191   9.851
 3134TIP3    H120225   2.500   5.134   9.776
 3134TIP3    H220226   2.498   5.138   9.927
 3135TIP3   OH220227   2.063   4.482  10.017
 3135TIP3    H120228   2.011   4.557   9.987
 3135TIP3    H220229   2.011   4.404   9.989
 3136TIP3   OH220230   4.308   4.192   9.875
 3136TIP3    H120231   4.230   4.148   9.913
 3136TIP3    H220232   4.271   4.279   9.852
 3137TIP3   OH220233   4.368   5.213   9.863
 3137TIP3    H120234   4.413   5.152   9.803
 3137TIP3    H220235   4.437   5.256   9.916
 3138TIP3   OH220236   4.793   5.047   9.892
 3138TIP3    H120237   4.746   5.129   9.913
 3138TIP3    H220238   4.744   5.017   9.815
   5.19134   5.19134  24.00000
