;;
;; Generated by CHARMM-GUI FF-Converter
;;
;; Correspondance:
;; jul316@lehigh.edu or wonpil@lehigh.edu
;;
;; The main GROMACS topology file
;;

; Include forcefield parameters
#include "toppar/forcefield.itp"
#include "toppar/OSM.itp"
#include "toppar/SAPS.itp"
#include "toppar/SAPE.itp"
#include "toppar/CHL1.itp"
#include "toppar/SLPC.itp"
#include "toppar/SAPC.itp"
#include "toppar/POPC.itp"
#include "toppar/SOPE.itp"
#include "toppar/SAPI.itp"
#include "toppar/SOD.itp"
#include "toppar/CLA.itp"
#include "toppar/TIP3.itp"

[ system ]
; Name
Title

[ molecules ]
; Compound	#mols
OSM   	          18
SAPS  	           8
SAPE  	          14
CHL1  	          28
SLPC  	           8
SAPC  	           8
POPC  	           4
SOPE  	           6
SAPI  	           2
SOD   	          17
CLA   	           7
TIP3  	        3018
